/*--------------------------------*- C++ -*----------------------------------*\
  =========                 |
  \\      /  F ield         | OpenFOAM: The Open Source CFD Toolbox
   \\    /   O peration     | Website:  https://openfoam.org
    \\  /    A nd           | Version:  7
     \\/     M anipulation  |
\*---------------------------------------------------------------------------*/
FoamFile
{
    version     2.0;
    format      ascii;
    class       volVectorField;
    location    "100";
    object      U;
}
// * * * * * * * * * * * * * * * * * * * * * * * * * * * * * * * * * * * * * //

dimensions      [0 1 -1 0 0 0 0];

internalField   nonuniform List<vector> 
7156
(
(0.713525 -0.266639 -2.53608e-22)
(0.72502 -0.079906 4.79571e-23)
(0.751351 0.105976 4.53678e-23)
(0.78598 0.260312 -9.50468e-23)
(0.820503 0.368728 -1.00831e-24)
(0.848708 0.432324 -1.02766e-23)
(0.868879 0.460373 -1.3443e-23)
(0.88077 0.467119 7.53581e-24)
(0.882309 0.470145 -1.3362e-22)
(0.871205 0.480744 -9.6315e-23)
(0.848401 0.492519 -4.19165e-23)
(0.819053 0.482667 6.23308e-23)
(0.790317 0.427539 -1.72107e-22)
(0.76818 0.319006 2.66646e-25)
(0.756611 0.168992 1.66535e-23)
(0.757808 0.00313659 5.43215e-23)
(0.771694 -0.149677 5.64695e-23)
(0.795058 -0.26757 -5.92461e-23)
(0.821661 -0.344319 8.69889e-23)
(0.842981 -0.389504 -1.07406e-23)
(0.851759 -0.418654 1.02699e-22)
(0.845283 -0.438307 -1.75406e-23)
(0.826026 -0.441525 -6.96959e-23)
(0.799749 -0.413729 5.86339e-23)
(0.774021 -0.344681 -3.84138e-23)
(0.755472 -0.235208 5.12724e-23)
(0.748821 -0.0987314 6.43822e-23)
(0.75555 0.0430214 1.2772e-23)
(0.773417 0.168756 2.10013e-23)
(0.710086 -0.267023 1.45415e-22)
(0.721073 -0.0818875 -2.45157e-22)
(0.747224 0.102925 -9.82046e-23)
(0.781972 0.256942 1.04205e-22)
(0.816892 0.365731 9.15401e-23)
(0.845766 0.43005 9.85571e-23)
(0.866783 0.458884 6.05644e-24)
(0.879502 0.466486 1.94432e-22)
(0.881746 0.470516 9.3034e-23)
(0.87126 0.482142 5.42147e-23)
(0.849055 0.494669 -9.45585e-23)
(0.820318 0.485062 -1.24857e-22)
(0.792142 0.429656 2.94931e-22)
(0.770408 0.320454 -1.37809e-22)
(0.759042 0.169529 -3.90567e-22)
(0.760237 0.00268255 9.56431e-24)
(0.773917 -0.15099 -2.63857e-22)
(0.79689 -0.269371 9.79558e-23)
(0.823025 -0.346045 1.43197e-22)
(0.843906 -0.390571 1.51679e-22)
(0.852278 -0.418713 3.5768e-23)
(0.845396 -0.437381 -1.00334e-22)
(0.825746 -0.439936 5.62937e-23)
(0.799101 -0.411961 1.6907e-22)
(0.773082 -0.343224 1.37376e-23)
(0.754413 -0.234429 2.24105e-22)
(0.747836 -0.098805 -8.70198e-23)
(0.754771 0.0421572 -7.37014e-23)
(0.772851 0.167451 -7.32922e-23)
(0.706801 -0.267532 3.99468e-22)
(0.717261 -0.0840391 8.86014e-23)
(0.743207 0.0996959 -2.19965e-22)
(0.77805 0.253411 -3.32002e-22)
(0.813349 0.362598 -2.49619e-22)
(0.842881 0.427661 -4.9742e-23)
(0.864737 0.457303 3.64853e-23)
(0.878282 0.465779 -2.42164e-22)
(0.88124 0.470823 2.71226e-22)
(0.871386 0.483476 -1.46759e-22)
(0.849796 0.496767 2.06901e-22)
(0.821684 0.487437 3.08267e-24)
(0.794072 0.431803 -3.80067e-22)
(0.772741 0.321983 -4.34337e-22)
(0.761573 0.170183 8.57552e-22)
(0.76276 0.00235881 -1.22736e-22)
(0.776226 -0.152179 1.60713e-22)
(0.798799 -0.271069 3.58247e-22)
(0.824453 -0.347696 -7.74471e-23)
(0.844892 -0.391583 2.21613e-22)
(0.852863 -0.418731 5.30473e-23)
(0.845585 -0.436422 -3.41547e-22)
(0.825554 -0.43833 8.15745e-23)
(0.798552 -0.410199 -1.3667e-22)
(0.772247 -0.341802 2.93592e-23)
(0.753456 -0.233712 -1.29047e-22)
(0.746945 -0.0989579 -1.70473e-23)
(0.754073 0.0412147 -8.96196e-23)
(0.772355 0.166083 1.06214e-23)
(0.703672 -0.26816 1.65179e-22)
(0.713587 -0.0863551 -6.16421e-22)
(0.739304 0.0962939 2.45749e-22)
(0.774217 0.249723 6.15461e-22)
(0.809874 0.35933 -2.48176e-22)
(0.840053 0.425158 1.01329e-21)
(0.86274 0.45563 -1.5324e-22)
(0.877109 0.464998 -2.42523e-22)
(0.880788 0.471061 1.58888e-22)
(0.87158 0.484743 -1.4702e-24)
(0.850623 0.498808 5.68899e-22)
(0.823149 0.489789 -5.68432e-22)
(0.796106 0.433979 6.88255e-22)
(0.775177 0.323594 1.47598e-21)
(0.764203 0.170955 -1.51228e-21)
(0.765376 0.00216713 3.9266e-22)
(0.778622 -0.153243 1.67532e-22)
(0.800786 -0.272665 -7.10283e-23)
(0.825948 -0.349272 -3.33035e-22)
(0.845939 -0.392544 -1.60809e-22)
(0.853514 -0.418708 -3.76752e-22)
(0.845849 -0.435433 4.14232e-22)
(0.825448 -0.436709 -1.71571e-23)
(0.798101 -0.408445 -2.91196e-22)
(0.771516 -0.340416 1.97022e-22)
(0.7526 -0.233058 -4.0528e-22)
(0.746147 -0.0991886 -8.14976e-22)
(0.753457 0.0401955 -4.72257e-22)
(0.771927 0.164653 2.77526e-23)
(0.700701 -0.268903 5.87397e-22)
(0.710052 -0.0888297 3.77584e-22)
(0.735514 0.092723 -1.20944e-21)
(0.77047 0.24588 -9.91734e-22)
(0.806467 0.355927 2.34241e-22)
(0.837281 0.422541 -7.25829e-22)
(0.86079 0.453864 -3.05559e-22)
(0.875981 0.46414 5.76902e-22)
(0.880389 0.471228 -4.75477e-22)
(0.871842 0.48594 7.1602e-23)
(0.851534 0.500791 -8.03731e-23)
(0.82471 0.492117 2.26879e-22)
(0.798243 0.436184 -7.47759e-22)
(0.777715 0.325288 -1.00548e-21)
(0.766931 0.171848 1.2176e-21)
(0.768084 0.00210944 -1.17241e-21)
(0.781104 -0.154181 7.51761e-23)
(0.80285 -0.274155 -1.87901e-22)
(0.82751 -0.350772 7.55703e-22)
(0.847047 -0.393452 1.85593e-22)
(0.85423 -0.418646 -1.08272e-22)
(0.846188 -0.434414 -3.80709e-22)
(0.825429 -0.435072 3.45373e-22)
(0.797749 -0.406697 -8.48779e-23)
(0.770888 -0.339065 -6.35982e-22)
(0.751844 -0.232465 -1.97392e-22)
(0.74544 -0.0994955 5.75995e-22)
(0.75292 0.0391011 6.26036e-22)
(0.771566 0.163161 1.49882e-22)
(0.697892 -0.269753 5.12859e-22)
(0.706658 -0.0914571 -1.6812e-22)
(0.731839 0.0889882 2.6915e-22)
(0.766811 0.241885 5.38342e-22)
(0.803127 0.35239 -6.25603e-22)
(0.834564 0.419809 6.19832e-22)
(0.858887 0.452003 1.22915e-22)
(0.874897 0.463204 2.55444e-22)
(0.880042 0.471321 -1.29079e-22)
(0.872168 0.487063 -5.44446e-22)
(0.852527 0.502714 5.06597e-22)
(0.826366 0.494421 -4.15351e-22)
(0.80048 0.438418 -1.62294e-23)
(0.780353 0.327066 -1.24337e-21)
(0.769755 0.172863 -4.40886e-22)
(0.770884 0.00218742 1.86699e-21)
(0.783673 -0.15499 -4.03954e-22)
(0.804993 -0.27554 -4.21278e-23)
(0.829139 -0.352196 -1.70316e-22)
(0.848217 -0.39431 -3.07856e-22)
(0.855014 -0.418547 -4.92885e-22)
(0.846604 -0.433368 4.46677e-22)
(0.825498 -0.433423 -2.54748e-22)
(0.797496 -0.404958 9.00784e-22)
(0.770364 -0.337747 -1.31864e-23)
(0.751188 -0.231931 7.44797e-22)
(0.744823 -0.0998769 1.07542e-21)
(0.752461 0.037933 -2.70837e-22)
(0.771272 0.161609 -8.3213e-22)
(0.695246 -0.270704 3.50245e-22)
(0.703405 -0.0942311 2.17209e-22)
(0.728278 0.0850941 -1.52965e-21)
(0.76324 0.23774 1.03825e-21)
(0.799855 0.348721 2.34817e-22)
(0.8319 0.416963 1.1326e-22)
(0.857027 0.450047 5.43229e-22)
(0.873856 0.462188 -1.08159e-21)
(0.879743 0.471338 1.16038e-21)
(0.872558 0.48811 3.3778e-22)
(0.853599 0.504573 4.42484e-23)
(0.828115 0.496698 -8.50515e-23)
(0.802814 0.44068 1.78907e-21)
(0.783089 0.328928 1.62514e-21)
(0.772675 0.174 5.20279e-22)
(0.773774 0.00240274 -1.85785e-21)
(0.786326 -0.155669 -3.2524e-22)
(0.807215 -0.276818 6.2128e-22)
(0.830837 -0.353544 2.19716e-22)
(0.849449 -0.395117 -5.19135e-22)
(0.855864 -0.418413 4.11818e-22)
(0.847096 -0.432296 7.79806e-23)
(0.825652 -0.431763 -2.68018e-22)
(0.79734 -0.403228 -2.24775e-22)
(0.769943 -0.336464 -4.42703e-22)
(0.75063 -0.231456 1.61321e-22)
(0.744294 -0.100331 -4.07977e-22)
(0.752078 0.0366929 -2.70176e-22)
(0.771042 0.159997 8.85327e-22)
(0.692765 -0.27175 -1.04542e-22)
(0.700296 -0.0971453 1.57366e-21)
(0.724833 0.0810456 -1.27246e-21)
(0.759756 0.233448 -9.6136e-22)
(0.796649 0.34492 1.97249e-22)
(0.829289 0.414001 -5.4462e-22)
(0.855211 0.447995 -5.08822e-22)
(0.872855 0.461089 5.77825e-22)
(0.879493 0.471275 6.47962e-22)
(0.87301 0.489078 -1.15352e-21)
(0.854748 0.506366 2.13991e-22)
(0.829953 0.498946 3.75028e-22)
(0.805244 0.442971 -9.76504e-22)
(0.785922 0.330875 2.37333e-22)
(0.775689 0.175262 2.69688e-21)
(0.776753 0.00275717 -2.44552e-21)
(0.789065 -0.156216 2.32915e-21)
(0.809517 -0.277987 -1.16076e-21)
(0.832605 -0.354814 -3.04849e-22)
(0.850743 -0.395875 -3.55716e-23)
(0.856781 -0.418246 2.87182e-22)
(0.847664 -0.431201 -3.83086e-22)
(0.825893 -0.430092 -1.81387e-22)
(0.797282 -0.401507 -1.95007e-22)
(0.769624 -0.335214 5.04839e-22)
(0.75017 -0.231037 1.25994e-22)
(0.743853 -0.100856 4.46312e-23)
(0.751769 0.0353821 -6.64181e-22)
(0.770875 0.158326 -9.79696e-22)
(0.69045 -0.272884 -6.47623e-22)
(0.69733 -0.100193 -1.21266e-21)
(0.721503 0.0768477 3.57331e-21)
(0.75636 0.229012 -3.14888e-22)
(0.793508 0.340988 2.10403e-21)
(0.826729 0.410924 -1.35754e-21)
(0.853435 0.445846 -3.47912e-22)
(0.871892 0.459906 -4.71005e-22)
(0.879287 0.471131 -2.67087e-22)
(0.87352 0.489963 -2.82035e-23)
(0.855973 0.508091 1.02274e-21)
(0.831878 0.501164 -5.0219e-22)
(0.807767 0.445289 -9.41147e-22)
(0.78885 0.332907 -2.50296e-21)
(0.778795 0.176649 -2.62684e-21)
(0.77982 0.00325295 9.97832e-22)
(0.791889 -0.156631 1.22113e-21)
(0.811897 -0.279047 -5.55698e-22)
(0.834442 -0.356007 7.80757e-22)
(0.8521 -0.396585 2.26705e-22)
(0.857764 -0.418047 -2.44441e-22)
(0.848308 -0.430084 5.33088e-22)
(0.826219 -0.428413 3.34324e-22)
(0.797319 -0.399796 4.18586e-22)
(0.769407 -0.333997 -1.41553e-21)
(0.749807 -0.230674 -1.56171e-21)
(0.743498 -0.101451 -6.31217e-22)
(0.751534 0.0340024 4.72756e-22)
(0.770769 0.156597 2.75552e-22)
(0.688303 -0.274098 6.10791e-22)
(0.694509 -0.103368 1.3721e-21)
(0.718288 0.0725055 -2.62639e-22)
(0.75305 0.224436 -2.47761e-21)
(0.790433 0.336926 6.6599e-22)
(0.824219 0.407733 -1.38622e-22)
(0.851699 0.443599 2.37075e-22)
(0.870966 0.458637 -7.11228e-22)
(0.879125 0.470902 1.08402e-21)
(0.874087 0.490763 1.02064e-22)
(0.857269 0.509744 -8.43787e-22)
(0.833887 0.50335 -6.63284e-22)
(0.810381 0.447633 8.55448e-22)
(0.791869 0.335023 1.02635e-21)
(0.781991 0.178161 9.12626e-23)
(0.782973 0.00388925 1.61413e-21)
(0.794795 -0.15691 -2.53269e-21)
(0.814357 -0.279996 1.89122e-21)
(0.836349 -0.357122 -3.00496e-22)
(0.85352 -0.397247 1.47915e-21)
(0.858813 -0.417817 -8.15556e-22)
(0.849028 -0.428947 -5.25447e-22)
(0.82663 -0.426726 -3.24176e-23)
(0.797452 -0.398095 -1.49594e-21)
(0.76929 -0.332812 1.14577e-21)
(0.749539 -0.230364 8.54046e-22)
(0.743228 -0.102113 1.88061e-21)
(0.75137 0.0325553 5.18605e-22)
(0.770724 0.154812 4.47849e-22)
(0.686325 -0.275386 -1.15046e-21)
(0.691832 -0.106663 -4.65057e-22)
(0.715188 0.0680241 3.55707e-21)
(0.749827 0.219721 -1.39177e-21)
(0.787423 0.332736 3.43546e-22)
(0.821756 0.404426 -3.81927e-22)
(0.85 0.441254 1.29481e-21)
(0.870075 0.457281 1.34104e-21)
(0.879005 0.470587 5.94217e-23)
(0.874708 0.491475 -8.49456e-22)
(0.858635 0.511322 -7.90422e-22)
(0.835977 0.505502 2.42621e-21)
(0.813082 0.450003 -1.12676e-21)
(0.794979 0.337225 3.72086e-21)
(0.785275 0.179801 -3.7279e-21)
(0.786212 0.00466742 7.88373e-22)
(0.797785 -0.157054 2.70986e-21)
(0.816896 -0.280832 -2.84706e-21)
(0.838327 -0.358157 -7.59954e-22)
(0.855003 -0.397861 -1.08901e-21)
(0.859929 -0.41756 3.61905e-22)
(0.849823 -0.427791 -3.68692e-22)
(0.827126 -0.425032 -3.07396e-22)
(0.797679 -0.396405 3.65465e-22)
(0.769273 -0.331658 -4.82221e-22)
(0.749366 -0.230107 -1.71016e-21)
(0.74304 -0.10284 4.9113e-22)
(0.751275 0.0310424 -1.45221e-21)
(0.770738 0.152969 -2.14732e-23)
(0.684517 -0.276741 -2.57726e-21)
(0.689299 -0.110072 -1.69232e-21)
(0.712203 0.0634088 1.03821e-21)
(0.746689 0.214872 -6.91511e-22)
(0.784475 0.328418 -1.41997e-21)
(0.819341 0.401005 1.13383e-21)
(0.848337 0.438809 -2.88304e-22)
(0.869216 0.455837 -4.29113e-22)
(0.878923 0.470181 1.96161e-22)
(0.875381 0.492095 -9.24302e-22)
(0.860068 0.512825 7.86556e-22)
(0.838146 0.507618 -7.97552e-23)
(0.815867 0.452396 2.76512e-22)
(0.798176 0.339511 -1.27922e-21)
(0.788645 0.181568 1.25132e-21)
(0.789533 0.00559097 -9.6814e-22)
(0.800856 -0.157061 2.60855e-21)
(0.819514 -0.281555 -9.16708e-22)
(0.840376 -0.359114 2.77521e-22)
(0.85655 -0.398428 9.64224e-22)
(0.86111 -0.417275 -7.45707e-22)
(0.850694 -0.426619 -3.46717e-24)
(0.827705 -0.423334 1.19505e-21)
(0.797999 -0.394726 1.41699e-21)
(0.769355 -0.330534 -1.92373e-22)
(0.749287 -0.229901 1.09676e-23)
(0.742933 -0.103631 8.82944e-22)
(0.751248 0.0294652 2.26771e-22)
(0.770808 0.151071 -6.71417e-22)
(0.682878 -0.278153 6.74027e-22)
(0.686911 -0.113586 1.59765e-21)
(0.709332 0.0586649 -2.36657e-22)
(0.743637 0.20989 -1.07711e-21)
(0.781591 0.323973 1.4165e-21)
(0.816972 0.397469 -2.27911e-21)
(0.846707 0.436265 1.73322e-21)
(0.868388 0.454301 -7.75802e-22)
(0.878877 0.469684 -7.77974e-22)
(0.876103 0.492622 -4.25349e-22)
(0.861564 0.514247 -1.25847e-21)
(0.840389 0.509696 4.82393e-22)
(0.818735 0.454812 -3.92226e-21)
(0.801458 0.34188 -2.16371e-21)
(0.7921 0.183463 2.32132e-21)
(0.792936 0.00666051 -4.84505e-21)
(0.804007 -0.15693 -6.16115e-22)
(0.822211 -0.282163 1.91798e-21)
(0.842497 -0.35999 -1.31236e-22)
(0.858159 -0.398949 -1.66184e-21)
(0.862356 -0.416965 5.06154e-22)
(0.851639 -0.425432 6.82687e-22)
(0.828367 -0.421631 -1.21802e-22)
(0.798411 -0.393058 -1.86505e-21)
(0.769533 -0.329441 1.53853e-21)
(0.749299 -0.229742 4.92347e-22)
(0.742906 -0.104483 -9.17988e-22)
(0.751287 0.0278255 1.12984e-22)
(0.770934 0.149119 4.63409e-23)
(0.681411 -0.279616 2.21286e-21)
(0.684667 -0.117199 -3.2757e-21)
(0.706575 0.0537978 2.5029e-21)
(0.74067 0.204779 -4.43151e-22)
(0.778767 0.319404 7.45997e-22)
(0.814646 0.393818 -1.77321e-22)
(0.845109 0.433621 5.7491e-22)
(0.867588 0.452674 8.99388e-22)
(0.878865 0.469094 3.92636e-22)
(0.876871 0.493052 1.60765e-21)
(0.86312 0.515588 -2.86433e-22)
(0.842704 0.511733 -1.09089e-21)
(0.821681 0.457249 4.26248e-21)
(0.804822 0.344334 -1.60562e-21)
(0.795636 0.185487 -5.2261e-22)
(0.796418 0.00787561 5.00053e-21)
(0.807237 -0.156658 1.92437e-21)
(0.824986 -0.282656 -2.57719e-21)
(0.844689 -0.360785 -1.84186e-22)
(0.859832 -0.399424 1.55738e-21)
(0.863666 -0.416631 -4.09984e-22)
(0.852658 -0.424231 1.30628e-21)
(0.82911 -0.419925 -4.0488e-22)
(0.798912 -0.391402 7.92933e-22)
(0.769808 -0.328376 -1.48004e-22)
(0.749402 -0.229631 6.54913e-22)
(0.742957 -0.105394 5.75144e-22)
(0.751389 0.0261248 -5.36644e-22)
(0.771114 0.147112 7.68133e-23)
(0.680114 -0.281122 6.18199e-22)
(0.682567 -0.120902 2.83167e-21)
(0.703931 0.0488131 -3.29046e-22)
(0.737786 0.199543 -9.25238e-22)
(0.776005 0.314711 2.00467e-21)
(0.812362 0.390053 5.2111e-22)
(0.843541 0.430875 -4.31134e-22)
(0.866814 0.450953 -1.19131e-21)
(0.878885 0.468407 7.32821e-22)
(0.877681 0.493383 -1.04163e-22)
(0.864734 0.516844 -3.96468e-22)
(0.845087 0.513728 3.28358e-21)
(0.824702 0.459704 -6.47729e-22)
(0.808266 0.346869 -8.89099e-22)
(0.799252 0.187639 2.77308e-21)
(0.799978 0.00923773 1.5909e-21)
(0.810545 -0.156247 -2.90948e-21)
(0.827838 -0.283032 1.97774e-21)
(0.846953 -0.361498 -7.72024e-22)
(0.861568 -0.399853 2.07882e-22)
(0.865041 -0.416275 1.80949e-21)
(0.85375 -0.423018 -1.51931e-21)
(0.829935 -0.418217 -4.83976e-22)
(0.799502 -0.389757 -1.99131e-22)
(0.770177 -0.32734 -7.58204e-22)
(0.749595 -0.229566 1.40351e-22)
(0.743084 -0.106363 -2.00225e-22)
(0.751554 0.0243648 1.3705e-21)
(0.771346 0.145052 -1.3828e-22)
(0.678989 -0.282662 -1.4069e-21)
(0.680611 -0.124689 3.18697e-21)
(0.701399 0.0437164 -1.58588e-21)
(0.734986 0.194184 7.96648e-22)
(0.773302 0.309897 -1.63671e-21)
(0.810119 0.386175 -9.6329e-22)
(0.842001 0.428028 2.23355e-22)
(0.866064 0.449137 -5.8116e-22)
(0.878933 0.467621 9.97257e-22)
(0.878532 0.493612 -8.87532e-22)
(0.866401 0.518012 -4.92313e-21)
(0.847534 0.515676 2.04533e-21)
(0.827796 0.462177 1.96684e-21)
(0.811786 0.349486 3.99076e-21)
(0.802944 0.189919 -6.28206e-21)
(0.803613 0.01075 -2.98218e-21)
(0.813929 -0.155693 5.26464e-22)
(0.830767 -0.283291 -5.66619e-22)
(0.849288 -0.362129 -7.37462e-22)
(0.863368 -0.400237 8.5198e-22)
(0.866478 -0.415897 -1.06786e-21)
(0.854915 -0.421795 1.27507e-21)
(0.830841 -0.416508 4.09251e-22)
(0.800179 -0.388125 -3.21432e-22)
(0.770638 -0.32633 -1.02546e-22)
(0.749876 -0.229543 1.02329e-22)
(0.743286 -0.107388 -9.33204e-22)
(0.75178 0.0225471 -1.68116e-21)
(0.771628 0.142939 1.46867e-21)
(0.678035 -0.284229 5.88026e-22)
(0.678798 -0.128552 -9.02292e-22)
(0.698979 0.0385134 -3.4378e-21)
(0.732268 0.188706 1.59576e-21)
(0.770657 0.304961 -1.49728e-21)
(0.807915 0.382182 2.98941e-21)
(0.840486 0.425079 -2.09174e-21)
(0.865335 0.447225 1.53524e-21)
(0.879007 0.466736 -4.57054e-22)
(0.87942 0.493736 3.10783e-21)
(0.868118 0.51909 3.68505e-22)
(0.850042 0.517577 7.27347e-23)
(0.830959 0.464665 -7.9798e-24)
(0.815379 0.352183 -7.616e-21)
(0.80671 0.192328 2.41126e-21)
(0.807322 0.0124091 -1.27092e-22)
(0.817386 -0.154997 5.85575e-22)
(0.833772 -0.28343 -2.48446e-21)
(0.851695 -0.362676 2.97743e-21)
(0.86523 -0.400575 -5.89545e-22)
(0.867978 -0.4155 -7.64378e-23)
(0.856152 -0.420564 4.01303e-22)
(0.831825 -0.414799 -5.84437e-22)
(0.800941 -0.386505 -1.68327e-22)
(0.771191 -0.325348 8.6171e-22)
(0.750244 -0.229562 -3.29391e-22)
(0.743561 -0.108465 1.40397e-21)
(0.752064 0.0206734 5.22883e-22)
(0.77196 0.140775 2.34796e-22)
(0.677253 -0.285815 -3.58448e-21)
(0.677128 -0.132482 2.00323e-21)
(0.696669 0.0332099 5.66927e-21)
(0.729632 0.183113 -1.13029e-21)
(0.768069 0.299906 -3.06594e-21)
(0.805748 0.378077 7.24273e-22)
(0.838995 0.422027 2.09965e-21)
(0.864625 0.445216 -4.55499e-22)
(0.879104 0.465749 -3.58387e-22)
(0.880342 0.493755 -2.98353e-22)
(0.869881 0.520075 1.45919e-21)
(0.852607 0.519427 -6.71329e-23)
(0.834186 0.467165 1.5826e-21)
(0.819043 0.354958 -2.54076e-21)
(0.810548 0.194865 3.63137e-21)
(0.811101 0.0142153 1.51039e-21)
(0.820917 -0.154157 -4.15523e-21)
(0.836852 -0.28345 -1.94348e-22)
(0.854173 -0.36314 1.23479e-22)
(0.867155 -0.400867 -3.58147e-21)
(0.869539 -0.415084 2.69984e-21)
(0.857459 -0.419325 -2.67849e-22)
(0.832887 -0.41309 -1.35276e-21)
(0.801786 -0.384896 1.81901e-21)
(0.771832 -0.324391 -8.6732e-22)
(0.750696 -0.229621 4.11796e-22)
(0.743907 -0.109593 -2.38951e-21)
(0.752405 0.0187453 3.35938e-22)
(0.772338 0.138559 -1.96375e-21)
(0.676642 -0.287411 -1.64697e-21)
(0.6756 -0.136472 -2.56858e-21)
(0.69447 0.027812 -4.16139e-21)
(0.727076 0.177407 2.34188e-21)
(0.765537 0.294734 -7.02293e-22)
(0.803617 0.373859 -2.31221e-21)
(0.837526 0.418873 -8.12454e-22)
(0.863931 0.443108 -4.37789e-21)
(0.879221 0.464658 1.86625e-22)
(0.881294 0.493664 1.89432e-23)
(0.871686 0.520964 -2.95555e-21)
(0.855225 0.521223 1.10099e-21)
(0.837475 0.469675 6.39508e-21)
(0.822774 0.357811 -4.86905e-21)
(0.814453 0.19753 -3.10802e-21)
(0.814948 0.0161728 3.61628e-21)
(0.824518 -0.153173 -2.04253e-21)
(0.840005 -0.283349 -3.94669e-21)
(0.856722 -0.363519 2.38562e-21)
(0.869143 -0.401114 -1.00492e-21)
(0.871161 -0.41465 5.00267e-23)
(0.858835 -0.41808 -6.12771e-22)
(0.834027 -0.411383 7.35665e-22)
(0.802713 -0.383301 -6.09169e-22)
(0.772561 -0.323459 1.87192e-21)
(0.751233 -0.229717 3.18067e-22)
(0.744323 -0.11077 4.63797e-22)
(0.752801 0.0167647 -2.56578e-22)
(0.772762 0.136294 -2.42613e-22)
(0.676202 -0.289009 1.6687e-21)
(0.674214 -0.140512 -1.07065e-22)
(0.69238 0.0223257 -1.28991e-22)
(0.724601 0.171593 2.75262e-21)
(0.76306 0.289446 -9.93222e-22)
(0.801521 0.36953 3.72467e-21)
(0.836076 0.415616 1.80845e-21)
(0.863251 0.440902 8.90083e-22)
(0.879355 0.463461 -2.06504e-21)
(0.882273 0.493462 1.44986e-21)
(0.873531 0.521756 1.65539e-22)
(0.857892 0.522962 -1.34922e-22)
(0.840822 0.472193 -1.66979e-21)
(0.826568 0.360739 3.74286e-21)
(0.818424 0.200322 -1.23555e-21)
(0.818861 0.0182807 -1.10208e-21)
(0.828188 -0.152044 2.68062e-21)
(0.843231 -0.283127 4.51746e-21)
(0.859341 -0.363812 4.4417e-21)
(0.871193 -0.401316 -2.75348e-21)
(0.872842 -0.414201 2.68658e-21)
(0.860279 -0.416832 -1.69005e-21)
(0.835243 -0.409678 1.60453e-22)
(0.803719 -0.381717 4.57496e-22)
(0.773374 -0.32255 -1.21579e-21)
(0.751851 -0.22985 -1.87216e-21)
(0.744807 -0.111994 5.93175e-23)
(0.75325 0.0147331 -8.52958e-22)
(0.77323 0.133979 -1.77268e-22)
(0.675933 -0.290602 6.34772e-21)
(0.672971 -0.144596 -3.52377e-21)
(0.690399 0.0167573 3.51996e-21)
(0.722204 0.165673 -4.67654e-21)
(0.760637 0.284045 3.70762e-21)
(0.799456 0.365089 -1.41949e-21)
(0.834644 0.412255 5.63653e-22)
(0.862583 0.438595 -1.37997e-21)
(0.879504 0.462158 1.76159e-21)
(0.883275 0.493147 3.74106e-22)
(0.87541 0.522446 -8.37073e-22)
(0.860604 0.524642 -8.03672e-22)
(0.844223 0.474715 -1.86691e-21)
(0.830422 0.36374 -1.02069e-21)
(0.822457 0.20324 6.8861e-21)
(0.822836 0.0205388 -2.64079e-21)
(0.831925 -0.15077 4.35884e-21)
(0.846529 -0.282782 -2.46595e-21)
(0.862031 -0.364018 -1.98561e-21)
(0.873305 -0.401472 5.12071e-22)
(0.874582 -0.413736 -7.40992e-22)
(0.86179 -0.41558 -1.43502e-21)
(0.836534 -0.407977 -2.61891e-21)
(0.804803 -0.380146 2.39113e-22)
(0.77427 -0.321665 -1.06643e-21)
(0.752549 -0.230017 -2.41588e-23)
(0.745358 -0.113262 -4.34007e-22)
(0.753751 0.0126523 -5.13434e-22)
(0.77374 0.131615 1.41842e-22)
(0.675835 -0.292181 -4.59964e-22)
(0.67187 -0.148714 1.40867e-21)
(0.688525 0.0111129 -6.33646e-22)
(0.719885 0.159653 4.42371e-22)
(0.758266 0.278532 -1.35124e-21)
(0.797423 0.360538 -2.57294e-21)
(0.833227 0.408792 -1.72704e-21)
(0.861923 0.436188 2.23716e-21)
(0.879664 0.460747 -6.56109e-22)
(0.884298 0.492717 7.08659e-22)
(0.87732 0.523033 -2.07902e-21)
(0.863358 0.52626 1.76041e-21)
(0.847674 0.477238 3.11295e-21)
(0.834333 0.366812 -1.64258e-21)
(0.826548 0.206283 -6.0713e-21)
(0.826872 0.0229471 2.65445e-21)
(0.835726 -0.149349 2.54271e-21)
(0.849896 -0.282314 7.26209e-22)
(0.86479 -0.364137 1.16515e-21)
(0.875479 -0.401581 1.72288e-21)
(0.87638 -0.413256 -1.32804e-22)
(0.863367 -0.414328 1.51569e-21)
(0.837898 -0.406279 5.77611e-22)
(0.805964 -0.378586 1.48348e-21)
(0.775246 -0.320802 2.03665e-21)
(0.753327 -0.230215 1.64122e-21)
(0.745975 -0.114571 5.04098e-22)
(0.754302 0.0105242 -1.28668e-22)
(0.77429 0.129203 1.75183e-21)
(0.675907 -0.293738 -1.84908e-21)
(0.67091 -0.152857 -5.18137e-22)
(0.68676 0.00539919 -1.92468e-21)
(0.717644 0.153536 1.3064e-21)
(0.755947 0.272909 8.69283e-22)
(0.795419 0.355877 7.92614e-22)
(0.831824 0.405226 2.16553e-21)
(0.86127 0.433679 -2.28975e-21)
(0.879832 0.459226 1.43018e-21)
(0.885336 0.49217 -9.3279e-22)
(0.879257 0.523514 9.53986e-22)
(0.866147 0.527812 -3.40828e-21)
(0.85117 0.47976 -3.33366e-21)
(0.838296 0.369953 -1.44984e-21)
(0.830695 0.209451 7.58667e-21)
(0.830966 0.0255057 -2.32701e-21)
(0.83959 -0.147781 6.32938e-22)
(0.853332 -0.281722 -1.74625e-21)
(0.867618 -0.364168 2.09624e-21)
(0.877714 -0.401645 8.78881e-22)
(0.878235 -0.412763 1.0754e-21)
(0.865007 -0.413075 8.41543e-22)
(0.839335 -0.404586 4.33858e-22)
(0.807198 -0.377039 -7.1647e-22)
(0.7763 -0.31996 -5.48006e-22)
(0.754181 -0.230445 4.88738e-22)
(0.746655 -0.115921 2.83921e-22)
(0.754901 0.00835042 -9.89185e-23)
(0.774879 0.126745 -1.63315e-22)
(0.676148 -0.295267 -1.25583e-22)
(0.670094 -0.157018 6.62368e-22)
(0.685102 -0.00037345 1.59124e-21)
(0.715479 0.147325 -3.87862e-21)
(0.753678 0.267178 1.17025e-21)
(0.793443 0.351108 -1.24951e-21)
(0.830432 0.401556 4.88108e-22)
(0.860621 0.431068 2.18539e-21)
(0.880005 0.457595 8.4275e-22)
(0.886388 0.491504 3.83819e-22)
(0.881216 0.523886 1.21239e-21)
(0.86897 0.529295 -1.04921e-21)
(0.854709 0.482277 3.09474e-21)
(0.842308 0.37316 -1.8162e-21)
(0.834893 0.212742 1.31401e-21)
(0.835114 0.0282143 -3.17665e-21)
(0.843513 -0.146065 -2.51966e-21)
(0.856834 -0.281005 1.85182e-21)
(0.870514 -0.364109 -1.90309e-21)
(0.880011 -0.401661 -2.14126e-21)
(0.880145 -0.412256 1.77039e-22)
(0.866709 -0.411824 -2.08762e-21)
(0.840844 -0.402898 -5.74348e-22)
(0.808505 -0.375504 -3.94773e-22)
(0.777429 -0.319138 5.58563e-22)
(0.75511 -0.230703 -1.73688e-21)
(0.747398 -0.117308 -2.34007e-22)
(0.755547 0.00613287 -2.05211e-21)
(0.775504 0.12424 8.70872e-22)
(0.676557 -0.296759 -8.4488e-22)
(0.66942 -0.161187 -1.81514e-21)
(0.683551 -0.00619175 5.04484e-21)
(0.71339 0.141026 -2.41246e-21)
(0.751459 0.261342 4.58249e-21)
(0.791493 0.346231 -6.7589e-22)
(0.82905 0.397784 -6.7731e-22)
(0.859973 0.428355 -2.31443e-21)
(0.880181 0.455853 2.12427e-21)
(0.887449 0.490718 7.89345e-22)
(0.883194 0.524148 -2.53242e-21)
(0.87182 0.530706 5.31428e-21)
(0.858286 0.484786 -1.28792e-21)
(0.846364 0.37643 -4.51878e-21)
(0.83914 0.216154 -3.09964e-21)
(0.839314 0.0310727 5.63715e-21)
(0.847494 -0.144202 6.67419e-21)
(0.860402 -0.280163 3.00463e-25)
(0.873476 -0.363961 1.00367e-21)
(0.882367 -0.401631 5.29129e-21)
(0.882109 -0.411738 -2.10771e-21)
(0.868471 -0.410575 -1.16533e-21)
(0.842422 -0.401216 -5.16595e-22)
(0.809883 -0.373979 2.89169e-21)
(0.77863 -0.318336 -7.49557e-22)
(0.756112 -0.230988 1.02392e-21)
(0.748202 -0.118731 3.27461e-21)
(0.756238 0.00387337 -6.02622e-22)
(0.776165 0.12169 2.01202e-22)
(0.677133 -0.298209 -2.24252e-21)
(0.668892 -0.165356 -3.11407e-21)
(0.682108 -0.0120719 8.19277e-22)
(0.711376 0.134642 6.90169e-21)
(0.749288 0.255403 -6.04091e-21)
(0.789568 0.341248 2.03781e-21)
(0.827675 0.39391 1.08178e-21)
(0.859324 0.425539 -1.1772e-21)
(0.880356 0.453998 8.60401e-22)
(0.888515 0.48981 -2.47018e-21)
(0.885186 0.524296 -5.44844e-22)
(0.874694 0.532041 -7.89276e-22)
(0.861896 0.487282 3.57242e-21)
(0.850462 0.37976 -2.08196e-21)
(0.843432 0.219687 -1.32449e-21)
(0.843562 0.0340805 4.20765e-22)
(0.85153 -0.142192 -1.03658e-21)
(0.864032 -0.279194 2.31605e-22)
(0.876505 -0.363721 -4.9366e-21)
(0.884783 -0.401552 -2.0311e-21)
(0.884128 -0.411207 -2.26114e-21)
(0.870292 -0.40933 9.76888e-22)
(0.844068 -0.399541 1.40912e-21)
(0.81133 -0.372467 -8.52545e-22)
(0.779901 -0.317552 -6.18184e-22)
(0.757185 -0.231299 2.72895e-22)
(0.749065 -0.120186 -1.27543e-22)
(0.756972 0.00157381 -3.62977e-22)
(0.776859 0.119096 3.98151e-22)
(0.677874 -0.299608 -4.34389e-22)
(0.668507 -0.169516 8.06123e-22)
(0.680773 -0.0180053 1.51896e-21)
(0.709438 0.128178 -5.22171e-21)
(0.747164 0.249364 7.03226e-22)
(0.787666 0.336159 -1.9796e-21)
(0.826305 0.389933 9.83342e-22)
(0.858672 0.422621 7.61077e-22)
(0.880526 0.452031 -9.64187e-22)
(0.889583 0.48878 -3.24904e-21)
(0.887188 0.524328 2.14493e-21)
(0.877588 0.533298 9.84055e-22)
(0.865535 0.489763 -3.29426e-21)
(0.854597 0.383148 -1.23652e-21)
(0.847765 0.223337 1.86502e-21)
(0.847856 0.0372371 -4.74681e-21)
(0.855619 -0.140033 -3.72263e-21)
(0.867724 -0.2781 -1.79737e-21)
(0.879598 -0.36339 -2.00119e-21)
(0.887258 -0.401425 3.82979e-21)
(0.886199 -0.410665 1.60889e-21)
(0.87217 -0.408091 -3.59935e-21)
(0.845782 -0.397873 4.00407e-22)
(0.812845 -0.370964 2.99328e-22)
(0.781239 -0.316786 1.45347e-21)
(0.758327 -0.231633 -2.44601e-22)
(0.749987 -0.121672 1.04328e-21)
(0.75775 -0.000763637 2.75877e-22)
(0.777585 0.116459 -8.67916e-23)
(0.678778 -0.300951 1.89188e-21)
(0.668267 -0.17366 -5.28532e-21)
(0.679547 -0.0239643 2.83684e-21)
(0.707575 0.121639 3.6588e-21)
(0.745087 0.243227 1.76511e-22)
(0.785787 0.330967 -5.2989e-22)
(0.82494 0.385854 -5.37506e-21)
(0.858013 0.4196 5.22347e-21)
(0.88069 0.449951 2.13429e-21)
(0.890649 0.487624 7.87969e-23)
(0.889196 0.524242 5.22463e-22)
(0.880496 0.534473 4.14646e-22)
(0.869199 0.492224 1.35691e-21)
(0.858765 0.386589 -1.19802e-21)
(0.852135 0.227103 -7.88884e-22)
(0.852192 0.0405419 4.61127e-21)
(0.859759 -0.137725 8.50875e-21)
(0.871474 -0.276878 1.69873e-22)
(0.882755 -0.362967 2.88923e-21)
(0.889791 -0.40125 9.70382e-22)
(0.888321 -0.410112 -1.40242e-21)
(0.874103 -0.406858 -2.6061e-21)
(0.84756 -0.396213 -8.84193e-22)
(0.814426 -0.369473 2.2038e-21)
(0.782641 -0.316037 -1.04974e-21)
(0.759534 -0.231989 -2.76783e-21)
(0.750967 -0.123187 -3.49795e-22)
(0.758568 -0.00313662 1.53999e-22)
(0.778341 0.113779 9.61974e-22)
(0.679843 -0.302231 -3.37604e-22)
(0.668174 -0.177777 2.91371e-21)
(0.67843 -0.0299477 -5.25322e-21)
(0.705787 0.11503 2.21636e-21)
(0.743056 0.236995 -1.70634e-21)
(0.783928 0.325672 -4.3827e-21)
(0.823576 0.381675 7.45039e-21)
(0.857346 0.416476 -4.09259e-21)
(0.880844 0.447757 -9.79258e-22)
(0.891709 0.486344 7.66684e-23)
(0.891205 0.524037 -1.0229e-21)
(0.883415 0.535561 4.71748e-21)
(0.872884 0.494661 -4.04516e-21)
(0.862961 0.390081 -4.08048e-21)
(0.856539 0.230983 4.38437e-21)
(0.856567 0.0439938 1.6335e-21)
(0.863946 -0.135269 -5.80272e-21)
(0.875282 -0.275528 2.69695e-21)
(0.885975 -0.36245 -1.04151e-21)
(0.892382 -0.401024 4.9132e-21)
(0.890494 -0.409549 7.67306e-22)
(0.876089 -0.405632 -1.86942e-22)
(0.849402 -0.394563 1.2451e-21)
(0.816072 -0.367991 -2.50882e-21)
(0.784105 -0.315303 2.00533e-22)
(0.760805 -0.232366 -4.00055e-22)
(0.752003 -0.124729 -2.50289e-22)
(0.759427 -0.00554448 2.5289e-22)
(0.779126 0.111057 -1.10233e-23)
(0.681064 -0.303443 4.56731e-21)
(0.668228 -0.18186 2.51544e-21)
(0.677426 -0.0359518 -2.65377e-21)
(0.704075 0.108356 7.49429e-22)
(0.741071 0.23067 1.70462e-21)
(0.78209 0.320276 3.85017e-21)
(0.822212 0.377395 -8.73195e-22)
(0.856668 0.41325 -3.04256e-21)
(0.880984 0.44545 3.45487e-21)
(0.89276 0.484937 -2.90684e-21)
(0.893212 0.523708 2.02999e-21)
(0.88634 0.536561 -1.60093e-21)
(0.876586 0.49707 -2.31864e-21)
(0.867182 0.39362 4.56012e-21)
(0.860972 0.234974 2.5301e-21)
(0.860979 0.047592 -1.04665e-21)
(0.868178 -0.132665 -5.14364e-21)
(0.879145 -0.27405 3.99222e-21)
(0.889254 -0.361839 -2.91933e-21)
(0.89503 -0.400748 8.06894e-22)
(0.892716 -0.408974 -2.56191e-21)
(0.878127 -0.404415 9.49256e-22)
(0.851306 -0.392922 7.21065e-23)
(0.817782 -0.36652 -3.51175e-22)
(0.785628 -0.314584 2.46388e-21)