/*--------------------------------*- C++ -*----------------------------------*\
  =========                 |
  \\      /  F ield         | OpenFOAM: The Open Source CFD Toolbox
   \\    /   O peration     | Website:  https://openfoam.org
    \\  /    A nd           | Version:  7
     \\/     M anipulation  |
\*---------------------------------------------------------------------------*/
FoamFile
{
    version     2.0;
    format      ascii;
    class       surfaceScalarField;
    location    "300";
    object      phi;
}
// * * * * * * * * * * * * * * * * * * * * * * * * * * * * * * * * * * * * * //

dimensions      [0 3 -1 0 0 0 0];

internalField   nonuniform List<scalar> 
13974
(
-0.00324388
-0.000172145
-0.000153129
-0.00308404
-0.000173345
-0.00315286
-0.00322318
-0.000194039
-0.000152634
-0.00299746
-0.000173206
-0.00306346
-0.000194241
-0.00313183
-0.00320167
-0.000215752
-0.000150831
-0.00291402
-0.000171712
-0.00297658
-0.000193101
-0.00304207
-0.000214955
-0.00310997
-0.00317935
-0.000237279
-0.000147815
-0.0028341
-0.00016892
-0.00289291
-0.000190604
-0.0029549
-0.000212809
-0.00301987
-0.000235481
-0.0030873
-0.00315621
-0.000258617
-0.000123083
-0.00270547
-0.000143687
-0.00275776
-0.000164936
-0.00281285
-0.000186821
-0.00287103
-0.000209306
-0.00293241
-0.000232326
-0.00299685
-0.000255816
-0.00306381
-0.00313227
-0.000279762
-0.000117829
-0.00263555
-0.000138524
-0.00268477
-0.000159867
-0.00273642
-0.00018187
-0.00279085
-0.000204529
-0.00284837
-0.000227811
-0.00290913
-0.000251646
-0.00297302
-0.000275955
-0.0030395
-0.00310751
-0.000300709
-0.000111599
-0.00256818
-0.000132369
-0.00261478
-0.000153788
-0.00266335
-0.000175864
-0.00271434
-0.000198613
-0.0027681
-0.000222041
-0.00282494
-0.000246116
-0.00288506
-0.000270764
-0.00294837
-0.000295892
-0.00301437
-0.00308195
-0.000321455
-0.000104424
-0.00250282
-0.00012525
-0.00254735
-0.000146737
-0.00259329
-0.000168874
-0.00264122
-0.000191674
-0.00269154
-0.000215163
-0.00274461
-0.000239352
-0.00280075
-0.000264215
-0.00286019
-0.000289675
-0.00292291
-0.000315623
-0.00298842
-0.00305558
-0.000341993
-9.63592e-05
-0.0024387
-0.000117195
-0.00248198
-0.000138735
-0.00252581
-0.000160932
-0.00257109
-0.000183779
-0.00261837
-0.000207296
-0.00266802
-0.000231515
-0.00272039
-0.000256457
-0.00277581
-0.000282103
-0.00283455
-0.000308372
-0.00289664
-0.000335142
-0.00296165
-0.0030284
-0.00036232
-8.74866e-05
-0.00237471
-0.00010825
-0.00241794
-0.000129805
-0.00246043
-0.000152052
-0.00250357
-0.000174952
-0.00254819
-0.000198502
-0.00259482
-0.000222728
-0.0026438
-0.000247669
-0.00269545
-0.000273354
-0.00275013
-0.000299774
-0.00280813
-0.00032685
-0.00286956
-0.000354444
-0.00293406
-0.00300041
-0.000382431
-7.79333e-05
-0.0023091
-9.84944e-05
-0.00235414
-0.000119987
-0.00239645
-0.000142251
-0.00243816
-0.000165199
-0.00248062
-0.000188795
-0.0025246
-0.000213042
-0.00257057
-0.000237968
-0.00261887
-0.00026362
-0.0026698
-0.000290038
-0.00272371
-0.000317224
-0.00278094
-0.000345102
-0.00284168
-0.00037352
-0.00290564
-0.00297162
-0.000402318
-8.80473e-05
-0.00228894
-0.000109356
-0.00233284
-0.000131568
-0.00237424
-0.000154534
-0.0024152
-0.000178176
-0.00245698
-0.000202461
-0.00250031
-0.000227397
-0.00254564
-0.000253015
-0.00259325
-0.000279368
-0.00264345
-0.000306506
-0.00269657
-0.000334446
-0.002753
-0.000363121
-0.00281301
-0.000392365
-0.0028764
-0.002942
-0.000421978
-7.70808e-05
-0.00221987
-9.80245e-05
-0.00226799
-0.000120069
-0.00231079
-0.000142991
-0.00235131
-0.000166652
-0.00239153
-0.00019098
-0.00243265
-0.000215949
-0.00247534
-0.000241566
-0.00252002
-0.000267868
-0.00256695
-0.000294911
-0.00261641
-0.000322756
-0.00266872
-0.000351437
-0.00272432
-0.0003809
-0.00278355
-0.00041097
-0.00284633
-0.00291157
-0.000441401
-6.58247e-05
-0.00214353
-8.61582e-05
-0.00219954
-0.000107863
-0.00224629
-0.000130632
-0.00228802
-0.000154256
-0.00232769
-0.000178604
-0.00236719
-0.000203612
-0.00240764
-0.000229257
-0.0024497
-0.00025555
-0.00249373
-0.000282527
-0.00253997
-0.000310248
-0.00258868
-0.000338786
-0.00264019
-0.000368192
-0.00269491
-0.000398431
-0.00275331
-0.000429328
-0.00281543
-0.00288032
-0.000460582
-5.45668e-05
-0.00205541
-7.39797e-05
-0.00212412
-9.51086e-05
-0.00217841
-0.000117562
-0.00222383
-0.000141045
-0.00226454
-0.00016536
-0.00230338
-0.000190389
-0.00234216
-0.00021607
-0.00238196
-0.000242385
-0.00242338
-0.000269347
-0.00246677
-0.000296991
-0.00251233
-0.00032538
-0.0025603
-0.000354595
-0.00261097
-0.000384708
-0.0026648
-0.000415709
-0.00272231
-0.000447429
-0.00278371
-0.00284823
-0.000479513
-4.36429e-05
-0.00194991
-6.17716e-05
-0.00203728
-8.20213e-05
-0.00210387
-0.00010393
-0.0021565
-0.000127119
-0.00220065
-0.000151306
-0.00224035
-0.000176304
-0.00227838
-0.000202005
-0.00231646
-0.000228353
-0.00235561
-0.000255332
-0.0023964
-0.000282956
-0.00243914
-0.00031126
-0.00248403
-0.000340307
-0.00253125
-0.000370184
-0.00258109
-0.000400983
-0.002634
-0.000432726
-0.00269056
-0.000465265
-0.00275117
-0.00281532
-0.000498184
-3.3413e-05
-0.00182062
-4.9868e-05
-0.00193346
-6.88784e-05
-0.00201827
-8.99474e-05
-0.0020828
-0.000112621
-0.00213383
-0.000136533
-0.00217673
-0.000161413
-0.00221547
-0.000187086
-0.0022527
-0.000213451
-0.00229009
-0.000240459
-0.0023286
-0.000268098
-0.00236877
-0.000296379
-0.00241086
-0.000325336
-0.00245507
-0.000355031
-0.00250155
-0.000385556
-0.00255057
-0.000417019
-0.00260254
-0.00044948
-0.0026581
-0.000482828
-0.00271782
-0.00278155
-0.000516591
-3.86333e-05
-0.00180621
-5.60116e-05
-0.00191608
-7.58848e-05
-0.0019984
-9.77563e-05
-0.00206093
-0.000121181
-0.0021104
-0.000145802
-0.00215211
-0.000171366
-0.00218991
-0.000197705
-0.00222636
-0.000224727
-0.00226307
-0.000252389
-0.00230094
-0.00028068
-0.00234047
-0.000309613
-0.00238193
-0.000339219
-0.00242546
-0.000369555
-0.00247122
-0.000400713
-0.00251941
-0.000432817
-0.00257043
-0.000465967
-0.00262495
-0.000500112
-0.00268368
-0.00274694
-0.000534727
-2.84299e-05
-0.00164867
-4.37894e-05
-0.00179085
-6.20715e-05
-0.0018978
-8.27889e-05
-0.00197768
-0.000105446
-0.00203827
-0.000129607
-0.00208624
-0.000154927
-0.00212679
-0.000181163
-0.00216367
-0.00020816
-0.00219937
-0.000235832
-0.0022354
-0.000264141
-0.00227263
-0.000293079
-0.00231154
-0.000322659
-0.00235235
-0.000352909
-0.00239521
-0.000383881
-0.00244025
-0.000415662
-0.00248763
-0.000448385
-0.00253771
-0.000482192
-0.00259115
-0.000517112
-0.00264876
-0.00271146
-0.000552586
-1.95767e-05
-0.00145419
-3.25861e-05
-0.00163566
-4.8879e-05
-0.00177456
-6.80455e-05
-0.00187863
-8.95888e-05
-0.00195613
-0.000113016
-0.00201485
-0.000137898
-0.00206136
-0.000163905
-0.00210079
-0.000190803
-0.00213677
-0.000218449
-0.00217172
-0.000246763
-0.00220708
-0.000275713
-0.00224368
-0.000305292
-0.00228196
-0.000335515
-0.00232213
-0.000366406
-0.00236432
-0.000398011
-0.00240864
-0.00043041
-0.00245523
-0.000463733
-0.00250439
-0.000498161
-0.00255672
-0.000533831
-0.00261309
-0.00267512
-0.000570172
-2.27434e-05
-0.00144375
-3.66927e-05
-0.00162172
-5.38997e-05
-0.00175735
-7.39314e-05
-0.0018586
-9.62828e-05
-0.00193378
-0.000120463
-0.00199067
-0.000146054
-0.00203577
-0.000172736
-0.0020741
-0.000200287
-0.00210922
-0.000228572
-0.00214344
-0.00025752
-0.00217813
-0.000287103
-0.0022141
-0.000317319
-0.00225174
-0.000348179
-0.00229127
-0.00037971
-0.00233279
-0.000411948
-0.0023764
-0.000444963
-0.00242222
-0.000478874
-0.00247048
-0.000513892
-0.0025217
-0.000550284
-0.0025767
-0.00263789
-0.000587516
-1.45307e-05
-0.00120929
-2.5876e-05
-0.00143241
-4.07473e-05
-0.00160684
-5.88494e-05
-0.00173925
-7.97275e-05
-0.00183772
-0.000102869
-0.00191064
-0.000127788
-0.00196575
-0.000154073
-0.00200948
-0.000181417
-0.00204676
-0.000209611
-0.00208103
-0.000238527
-0.00211452
-0.000268102
-0.00214856
-0.000298311
-0.00218389
-0.000329156
-0.0022209
-0.00036065
-0.00225977
-0.000392818
-0.00230062
-0.000425692
-0.00234353
-0.000459328
-0.00238858
-0.000493824
-0.00243598
-0.000529411
-0.00248611
-0.000566498
-0.00253961
-0.00259973
-0.000604654
-8.11643e-06
-0.000928115
-1.67324e-05
-0.00120068
-2.89726e-05
-0.00142017
-4.47481e-05
-0.00159107
-6.37263e-05
-0.00172027
-8.5432e-05
-0.00181601
-0.000109347
-0.00188673
-0.000134988
-0.00194011
-0.000161954
-0.00198252
-0.00018995
-0.00201877
-0.000218776
-0.0020522
-0.000248314
-0.00208498
-0.000278507
-0.00211837
-0.000309335
-0.00215306
-0.000340802
-0.00218943
-0.000372925
-0.00222765
-0.000405727
-0.00226782
-0.00043924
-0.00231002
-0.000473507
-0.00235431
-0.000508603
-0.00240089
-0.000544754
-0.00244996
-0.000582488
-0.00250188
-0.00256063
-0.000621588
-9.4768e-06
-0.0009222
-1.89116e-05
-0.00119124
-3.20311e-05
-0.00140705
-4.8693e-05
-0.00157441
-6.85284e-05
-0.00170044
-9.10433e-05
-0.0017935
-0.000115714
-0.00186206
-0.000142062
-0.00191376
-0.000169697
-0.00195488
-0.000198332
-0.00199013
-0.00022778
-0.00202276
-0.000257931
-0.00205483
-0.000288733
-0.00208757
-0.000320171
-0.00212162
-0.000352253
-0.00215735
-0.000384998
-0.0021949
-0.000418432
-0.00223439
-0.000452587
-0.00227586
-0.000487498
-0.0023194
-0.000523229
-0.00236516
-0.000559985
-0.00241321
-0.000598259
-0.0024636
-0.00252037
-0.000638522
-4.22904e-06
-0.000594865
-1.08252e-05
-0.000915604
-2.10667e-05
-0.001181
-3.505e-05
-0.00139306
-5.25802e-05
-0.00155688
-7.32542e-05
-0.00167976
-9.65599e-05
-0.00177019
-0.00012197
-0.00183665
-0.00014901
-0.00188672
-0.000177299
-0.00192659
-0.000206563
-0.00196087
-0.000236622
-0.0019927
-0.000267376
-0.00202408
-0.000298779
-0.00205616
-0.000330819
-0.00208958
-0.000363508
-0.00212466
-0.000396867
-0.00216154
-0.000430926
-0.00220033
-0.000465719
-0.00224107
-0.000501287
-0.00228383
-0.000537699
-0.00232874
-0.000575159
-0.00237574
-0.000614233
-0.00242453
-0.00247961
-0.000654992
-4.88855e-06
-0.00059102
-1.21569e-05
-0.000908335
-2.31921e-05
-0.00116996
-3.80228e-05
-0.00137823
-5.64032e-05
-0.0015385
-7.78969e-05
-0.00165827
-0.000101976
-0.00174611
-0.000128108
-0.00181051
-0.000155825
-0.001859
-0.000184756
-0.00189766
-0.000214636
-0.00193099
-0.000245297
-0.00196204
-0.000276645
-0.00199273
-0.000308639
-0.00202417
-0.000341272
-0.00205695
-0.000374558
-0.00209137
-0.000408522
-0.00212758
-0.000443195
-0.00216565
-0.000478618
-0.00220564
-0.000514841
-0.00224761
-0.000551958
-0.00229163
-0.000590072
-0.00233763
-0.000628791
-0.00238581
-0.00243732
-0.000671089
-1.23178e-06
-0.000217683
-5.54509e-06
-0.000586707
-1.3478e-05
-0.000900402
-2.52947e-05
-0.00115815
-4.09573e-05
-0.00136257
-6.01702e-05
-0.00151928
-8.24654e-05
-0.00163597
-0.000107299
-0.00172128
-0.000134137
-0.00178368
-0.000162517
-0.00183062
-0.000192077
-0.0018681
-0.000222562
-0.0019005
-0.000253814
-0.00193079
-0.000285745
-0.0019608
-0.000318321
-0.00199159
-0.000351537
-0.00202373
-0.000385411
-0.0020575
-0.000419967
-0.00209302
-0.000455243
-0.00213038
-0.000491279
-0.00216961
-0.000528134
-0.00221076
-0.000565898
-0.00225386
-0.000604637
-0.00229889
-0.000644384
-0.00234606
-0.0023954
-0.0006863
-1.41862e-06
-0.000216264
-6.19548e-06
-0.00058193
-1.47839e-05
-0.000891814
-2.73691e-05
-0.00114556
-4.38474e-05
-0.00134609
-6.38749e-05
-0.00149926
-8.69531e-05
-0.0016129
-0.000112524
-0.00169571
-0.000140052
-0.00175615
-0.00016908
-0.00180159
-0.000199256
-0.00183792
-0.000230335
-0.00186942
-0.000262166
-0.00189895
-0.000294671
-0.00192829
-0.000327819
-0.00195845
-0.000361608
-0.00198994
-0.000396058
-0.00202305
-0.000431197
-0.00205789
-0.000467061
-0.00209451
-0.000503693
-0.00213298
-0.00054115
-0.0021733
-0.000579511
-0.0022155
-0.000618839
-0.00225956
-0.000659255
-0.00230565
-0.00235342
-0.000701231
-1.60396e-06
-0.000214661
-6.83924e-06
-0.000576694
-1.60737e-05
-0.00088258
-2.9414e-05
-0.00113222
-4.66917e-05
-0.00132882
-6.75158e-05
-0.00147843
-9.13589e-05
-0.00158905
-0.00011765
-0.00166942
-0.000145852
-0.00172795
-0.000175513
-0.00177193
-0.000206292
-0.00180715
-0.000237953
-0.00183776
-0.000270354
-0.00186655
-0.000303422
-0.00189522
-0.000337132
-0.00192474
-0.000371484
-0.00195559
-0.0004065
-0.00198803
-0.000442209
-0.00202218
-0.000478647
-0.00205808
-0.000515857
-0.00209576
-0.000553894
-0.00213526
-0.000592823
-0.00217657
-0.000632703
-0.00221968
-0.000673652
-0.0022647
-0.00231121
-0.000715864
-1.78767e-06
-0.000212873
-7.47586e-06
-0.000571006
-1.73466e-05
-0.000872709
-3.14283e-05
-0.00111814
-4.9489e-05
-0.00131075
-7.10918e-05
-0.00145683
-9.56817e-05
-0.00156446
-0.000122675
-0.00164242
-0.000151535
-0.00169909
-0.000181816
-0.00174165
-0.000213185
-0.00177578
-0.000245416
-0.00180553
-0.000278376
-0.00183359
-0.000311998
-0.0018616
-0.000346258
-0.00189048
-0.000381163
-0.00192069
-0.000416734
-0.00195246
-0.000453001
-0.00198591
-0.00049
-0.00202108
-0.000527774
-0.00205799
-0.000566371
-0.00209667
-0.000605848
-0.0021371
-0.000646259
-0.00217927
-0.000687691
-0.00222326
-0.00226867
-0.00073023
-1.96959e-06
-0.000210903
-8.10486e-06
-0.000564871
-1.86017e-05
-0.000862212
-3.34109e-05
-0.00110333
-5.22379e-05
-0.00129193
-7.46016e-05
-0.00143447
-9.99203e-05
-0.00153914
-0.0001276
-0.00161475
-0.000157102
-0.00166958
-0.000187988
-0.00171077
-0.000219934
-0.00174383
-0.000252724
-0.00177274
-0.000286232
-0.00180008
-0.000320396
-0.00182744
-0.000355198
-0.00185567
-0.000390645
-0.00188524
-0.00042676
-0.00191635
-0.000463573
-0.0019491
-0.000501121
-0.00198353
-0.000539443
-0.00201967
-0.000578586
-0.00205752
-0.000618597
-0.00209709
-0.000659522
-0.00213835
-0.000701426
-0.00218136
-0.00222575
-0.000744343
-2.1496e-06
-0.000208754
-8.72576e-06
-0.000558295
-1.98382e-05
-0.0008511
-3.53608e-05
-0.00108781
-5.49375e-05
-0.00127235
-7.80441e-05
-0.00141136
-0.000104074
-0.00151311
-0.000132422
-0.0015864
-0.000162551
-0.00163946
-0.000194028
-0.00167929
-0.000226539
-0.00171132
-0.000259877
-0.0017394
-0.000293922
-0.00176604
-0.000328618
-0.00179274
-0.00036395
-0.00182034
-0.000399929
-0.00184926
-0.000436576
-0.0018797
-0.000473924
-0.00191175
-0.000512008
-0.00194545
-0.000550867
-0.00198081
-0.000590541
-0.00201785
-0.000631074
-0.00205655
-0.000672504
-0.00209692
-0.000714879
-0.00213899
-0.00218242
-0.000758213
-2.32753e-06
-0.000206426
-9.33812e-06
-0.000551284
-2.10553e-05
-0.000839382
-3.72769e-05
-0.00107159
-5.75867e-05
-0.00125204
-8.14185e-05
-0.00138753
-0.000108142
-0.00148639
-0.000137142
-0.0015574
-0.000167882
-0.00160871
-0.000199937
-0.00164723
-0.000233
-0.00167826
-0.000266873
-0.00170553
-0.000301444
-0.00173147
-0.000336662
-0.00175752
-0.000372514
-0.00178449
-0.000409013
-0.00181276
-0.000446183
-0.00184253
-0.000484055
-0.00187388
-0.000522663
-0.00190684
-0.000562045
-0.00194143
-0.00060224
-0.00197766
-0.000643284
-0.00201551
-0.000685213
-0.00205499
-0.000728061
-0.00209614
-0.00213864
-0.000771839
-2.50324e-06
-0.000203923
-9.94147e-06
-0.000543846
-2.22524e-05
-0.000827071
-3.91584e-05
-0.00105468
-6.01844e-05
-0.00123102
-8.47236e-05
-0.00136299
-0.000112123
-0.00145899
-0.000141758
-0.00152776
-0.000173094
-0.00157738
-0.000205713
-0.00161462
-0.000239315
-0.00164465
-0.000273713
-0.00167113
-0.000308799
-0.00169638
-0.000344528
-0.0017218
-0.00038089
-0.00174813
-0.000417899
-0.00177575
-0.00045558
-0.00180485
-0.000493964
-0.00183549
-0.000533085
-0.00186772
-0.00057298
-0.00190153
-0.000613684
-0.00193695
-0.000655231
-0.00197396
-0.000697653
-0.00201257
-0.000740978
-0.00205281
-0.00209441
-0.000785216
-2.67658e-06
-0.000201246
-1.05354e-05
-0.000535987
-2.34287e-05
-0.000814178
-4.10045e-05
-0.0010371
-6.27297e-05
-0.00120929
-8.79588e-05
-0.00133776
-0.000116016
-0.00143093
-0.00014627
-0.00149751
-0.000178188
-0.00154546
-0.000211356
-0.00158145
-0.000245486
-0.00161052
-0.000280396
-0.00163622
-0.000315986
-0.00166079
-0.000352215
-0.00168557
-0.000389076
-0.00171127
-0.000426584
-0.00173825
-0.000464766
-0.00176667
-0.000503652
-0.00179661
-0.000543275
-0.00182809
-0.000583672
-0.00186114
-0.000624875
-0.00189575
-0.000666917
-0.00193192
-0.000709827
-0.00196966
-0.000753631
-0.00200901
-0.0020497
-0.000798339
-2.84741e-06
-0.000198399
-1.11195e-05
-0.000527715
-2.45836e-05
-0.000800714
-4.28142e-05
-0.00101887
-6.52219e-05
-0.00118688
-9.11231e-05
-0.00131186
-0.000119821
-0.00140224
-0.000150679
-0.00146665
-0.000183162
-0.00151298
-0.000216867
-0.00154774
-0.000251511
-0.00157588
-0.000286922
-0.00160081
-0.000323005
-0.00162471
-0.000359723
-0.00164885
-0.000397073
-0.00167392
-0.00043507
-0.00170025
-0.000473741
-0.001728
-0.000513118
-0.00175723
-0.000553233
-0.00178798
-0.000594121
-0.00182025
-0.000635814
-0.00185405
-0.000678345
-0.00188939
-0.000721738
-0.00192626
-0.00076602
-0.00196472
-0.00200451
-0.000811205
-3.01558e-06
-0.000195383
-1.16934e-05
-0.000519037
-2.57164e-05
-0.000786691
-4.45868e-05
-0.001
-6.76601e-05
-0.00116381
-9.42159e-05
-0.0012853
-0.000123538
-0.00137291
-0.000154982
-0.00143521
-0.000188017
-0.00147994
-0.000222244
-0.00151352
-0.000257391
-0.00154073
-0.000293291
-0.00156491
-0.000329856
-0.00158814
-0.000367053
-0.00161165
-0.00040488
-0.00163609
-0.000443355
-0.00166177
-0.000482506
-0.00168885
-0.000522363
-0.00171737
-0.000562959
-0.00174738
-0.000604328
-0.00177888
-0.000646503
-0.00181188
-0.000689513
-0.00184638
-0.000733385
-0.00188239
-0.000778144
-0.00191997
-0.00195885
-3.18099e-06
-0.000192202
-1.22568e-05
-0.000509961
-2.68266e-05
-0.000772121
-4.63217e-05
-0.000980509
-7.00435e-05
-0.00114009
-9.72365e-05
-0.00125811
-0.000127166
-0.00134298
-0.00015918
-0.00140319
-0.000192751
-0.00144637
-0.000227488
-0.00147878
-0.000263125
-0.0015051
-0.000299502
-0.00152853
-0.000336538
-0.00155111
-0.000374203
-0.00157399
-0.000412497
-0.0015978
-0.00045144
-0.00162283
-0.000491059
-0.00164923
-0.000531385
-0.00167705
-0.000572453
-0.00170631
-0.000614294
-0.00173704
-0.000656941
-0.00176923
-0.000700423
-0.0018029
-0.000744767
-0.00183805
-0.00079
-0.00187473
-0.00191271
-3.34349e-06
-0.000188859
-1.28092e-05
-0.000500496
-2.79136e-05
-0.000757017
-4.8018e-05
-0.000960404
-7.23715e-05
-0.00111573
-0.000100184
-0.0012303
-0.000130703
-0.00131247
-0.000163272
-0.00137062
-0.000197365
-0.00141228
-0.000232598
-0.00144355
-0.000268713
-0.00146898
-0.000305556
-0.00149169
-0.000343052
-0.00151361
-0.000381173
-0.00153587
-0.000419924
-0.00155905
-0.000459323
-0.00158343
-0.0004994
-0.00160915
-0.000540186
-0.00163626
-0.000581714
-0.00166478
-0.000624017
-0.00169474
-0.000667127
-0.00172612
-0.000711074
-0.00175895
-0.000755884
-0.00179324
-0.000801587
-0.00182903
-0.00186609
-3.50296e-06
-0.000185356
-1.33503e-05
-0.000490648
-2.89769e-05
-0.00074139
-4.96753e-05
-0.000939706
-7.46434e-05
-0.00109077
-0.000103059
-0.00120188
-0.000134151
-0.00128137
-0.000167258
-0.00133752
-0.000201859
-0.00137768
-0.000237574
-0.00140783
-0.000274154
-0.0014324
-0.000311452
-0.00145439
-0.000349396
-0.00147567
-0.000387964
-0.0014973
-0.00042716
-0.00151985
-0.000467005
-0.00154358
-0.00050753
-0.00156863
-0.000548765
-0.00159502
-0.000590743
-0.00162281
-0.000633499
-0.00165198
-0.000677063
-0.00168256
-0.000721465
-0.00171455
-0.000766735
-0.00174797
-0.0008129
-0.00178286
-3.65929e-06
-0.000181697
-1.38798e-05
-0.000480428
-3.0016e-05
-0.000725254
-5.12928e-05
-0.000918429
-7.68586e-05
-0.0010652
-0.000105859
-0.00117288
-0.000137507
-0.00124973
-0.000171138
-0.00130388
-0.000206232
-0.00134258
-0.000242417
-0.00137165
-0.000279449
-0.00139537
-0.00031719
-0.00141665
-0.000355572
-0.00143729
-0.000394574
-0.0014583
-0.000434204
-0.00148022
-0.000474486
-0.0015033
-0.000515447
-0.00152766
-0.00055712
-0.00155335
-0.000599539
-0.00158039
-0.000642737
-0.00160878
-0.000686746
-0.00163855
-0.000731596
-0.0016697
-0.000777317
-0.00170225
-0.00173624
-3.81236e-06
-0.000177884
-1.43975e-05
-0.000469843
-3.10303e-05
-0.000708621
-5.287e-05
-0.000896589
-7.90165e-05
-0.00103905
-0.000108585
-0.00114331
-0.000140773
-0.00121754
-0.000174912
-0.00126975
-0.000210484
-0.00130701
-0.000247125
-0.00133501
-0.000284598
-0.0013579
-0.00032277
-0.00137848
-0.000361578
-0.00139848
-0.000401004
-0.00141887
-0.000441058
-0.00144016
-0.000481764
-0.0014626
-0.000523151
-0.00148628
-0.000565253
-0.00151125
-0.000608102
-0.00153754
-0.000651732
-0.00156515
-0.000696175
-0.00159411
-0.000741464
-0.00162441
-0.000787628
-0.00165608
-0.00168917
-3.96208e-06
-0.000173922
-1.4903e-05
-0.000458902
-3.20195e-05
-0.000691505
-5.44065e-05
-0.000874202
-8.11166e-05
-0.00101234
-0.000111236
-0.00111319
-0.000143947
-0.00118483
-0.000178578
-0.00123511
-0.000214615
-0.00127097
-0.000251699
-0.00129792
-0.0002896
-0.00131999
-0.000328191
-0.00133989
-0.000367414
-0.00135926
-0.000407253
-0.00137903
-0.00044772
-0.0013997
-0.00048884
-0.00142148
-0.000530642
-0.00144447
-0.000573161
-0.00146873
-0.00061643
-0.00149427
-0.000660482
-0.0015211
-0.000705351
-0.00154924
-0.000751069
-0.00157869
-0.000797667
-0.00160948
-4.10833e-06
-0.000169814
-1.5396e-05
-0.000447614
-3.29831e-05
-0.000673918
-5.59015e-05
-0.000851284
-8.31585e-05
-0.000985087
-0.000113811
-0.00108254
-0.00014703
-0.00115161
-0.000182138
-0.00120001
-0.000218625
-0.00123449
-0.000256138
-0.00126041
-0.000294456
-0.00128168
-0.000333455
-0.00130089
-0.00037308
-0.00131963
-0.000413321
-0.00133879
-0.00045419
-0.00135883
-0.000495713
-0.00137996
-0.00053792
-0.00140227
-0.000580845
-0.00142581
-0.000624523
-0.00145059
-0.000668987
-0.00147664
-0.000714272
-0.00150395
-0.000760409
-0.00153255
-0.00156246
-4.25102e-06
-0.000165563
-1.58763e-05
-0.000435989
-3.39208e-05
-0.000655873
-5.73548e-05
-0.00082785
-8.51415e-05
-0.0009573
-0.000116311
-0.00105137
-0.00015002
-0.0011179
-0.00018559
-0.00116444
-0.000222513
-0.00119756
-0.000260444
-0.00122248
-0.000299164
-0.00124296
-0.000338559
-0.00126149
-0.000378576
-0.00127961
-0.000419208
-0.00129816
-0.000460468
-0.00131757
-0.000502382
-0.00133804
-0.000544983
-0.00135967
-0.000588304
-0.00138248
-0.00063238
-0.00140651
-0.000677246
-0.00143177
-0.000722935
-0.00145826
-0.000769483
-0.00148601
-0.00151502
-4.39006e-06
-0.000161173
-1.63437e-05
-0.000424035
-3.48321e-05
-0.000637385
-5.87659e-05
-0.000803916
-8.70654e-05
-0.000929
-0.000118734
-0.0010197
-0.000152918
-0.00108371
-0.000188934
-0.00112842
-0.00022628
-0.00116022
-0.000264614
-0.00118415
-0.000303726
-0.00120384
-0.000343505
-0.00122171
-0.000383902
-0.00123921
-0.000424913
-0.00125715
-0.000466553
-0.00127593
-0.000508848
-0.00129575
-0.000551831
-0.00131668
-0.000595537
-0.00133878
-0.000640001
-0.00136205
-0.000685257
-0.00138651
-0.000731341
-0.00141218
-0.000778288
-0.00143906
-0.00146718
-4.52535e-06
-0.000156647
-1.67978e-05
-0.000411763
-3.57166e-05
-0.000618466
-6.01342e-05
-0.000779498
-8.89296e-05
-0.000900205
-0.000121082
-0.00098755
-0.000155723
-0.00104907
-0.000192171
-0.00109197
-0.000229925
-0.00112246
-0.00026865
-0.00114542
-0.000308141
-0.00116435
-0.000348291
-0.00118156
-0.000389058
-0.00119845
-0.000430437
-0.00121577
-0.000472444
-0.00123392
-0.000515109
-0.00125308
-0.000558464
-0.00127333
-0.000602544
-0.0012947
-0.000647384
-0.00131721
-0.00069302
-0.00134088
-0.000739488
-0.00136571
-0.000786823
-0.00139172
-4.65681e-06
-0.000151991
-1.72385e-05
-0.000399181
-3.65741e-05
-0.00059913
-6.14595e-05
-0.000754613
-9.07339e-05
-0.000870931
-0.000123352
-0.000954932
-0.000158436
-0.00101399
-0.0001953
-0.00105511
-0.000233448
-0.00108432
-0.00027255
-0.00110632
-0.000312408
-0.00112449
-0.000352919
-0.00114105
-0.000394043
-0.00115732
-0.000435778
-0.00117404
-0.000478142
-0.00119156
-0.000521165
-0.00121006
-0.000564881
-0.00122961
-0.000609323
-0.00125026
-0.000654529
-0.00127201
-0.000700534
-0.00129487
-0.000747374
-0.00131887
-0.00134401
-4.78435e-06
-0.000147206
-1.76655e-05
-0.0003863
-3.74041e-05
-0.000579392
-6.27414e-05
-0.000729276
-9.24778e-05
-0.000841194
-0.000125545
-0.000921865
-0.000161055
-0.000978478
-0.000198321
-0.00101784
-0.00023685
-0.00104579
-0.000276316
-0.00106685
-0.000316528
-0.00108428
-0.000357387
-0.00110019
-0.000398856
-0.00111585
-0.000440936
-0.00113196
-0.000483647
-0.00114885
-0.000527017
-0.00116669
-0.00057108
-0.00118555
-0.000615874
-0.00120546
-0.000661434
-0.00122645
-0.000707796
-0.00124851
-0.000754999
-0.00127167
-0.00129593
-4.9079e-06
-0.000142298
-1.80787e-05
-0.000373129
-3.82065e-05
-0.000559264
-6.39794e-05
-0.000703503
-9.4161e-05
-0.000811013
-0.000127661
-0.000888365
-0.000163582
-0.000942557
-0.000201234
-0.000980191
-0.000240129
-0.00100689
-0.000279947
-0.00102704
-0.0003205
-0.00104373
-0.000361696
-0.001059
-0.000403499
-0.00107405
-0.000445912
-0.00108954
-0.000488956
-0.0011058
-0.000532662
-0.00112298
-0.000577063
-0.00114115
-0.000622196
-0.00116033
-0.000668099
-0.00118054
-0.000714807
-0.0012018
-0.00076236
-0.00122412
-0.0012475
-5.02739e-06
-0.000137271
-1.84778e-05
-0.000359679
-3.89808e-05
-0.000538761
-6.51733e-05
-0.00067731
-9.57832e-05
-0.000780403
-0.000129699
-0.000854449
-0.000166014
-0.000906242
-0.000204039
-0.000942166
-0.000243286
-0.000967645
-0.000283442
-0.000986879
-0.000324325
-0.00100285
-0.000365844
-0.00101748
-0.00040797
-0.00103193
-0.000450705
-0.00104681
-0.000494071
-0.00106244
-0.0005381
-0.00107895
-0.000582827
-0.00109642
-0.000628289
-0.00111487
-0.000674522
-0.00113431
-0.000721565
-0.00115476
-0.000769456
-0.00117623
-5.14273e-06
-0.000132128
-1.88626e-05
-0.000345959
-3.97269e-05
-0.000517897
-6.63228e-05
-0.000650714
-9.73441e-05
-0.000749381
-0.000131659
-0.000820133
-0.000168353
-0.000869548
-0.000206735
-0.000903785
-0.000246321
-0.000928059
-0.000286802
-0.000946397
-0.000328002
-0.000961647
-0.000369834
-0.000975648
-0.000412269
-0.00098949
-0.000455314
-0.00100376
-0.000498991
-0.00101876
-0.000543332
-0.00103461
-0.000588373
-0.00105138
-0.000634151
-0.00106909
-0.000680704
-0.00108776
-0.000728069
-0.00110739
-0.00112801
-5.25386e-06
-0.000126874
-1.92331e-05
-0.00033198
-4.04444e-05
-0.000496685
-6.74275e-05
-0.000623731
-9.88433e-05
-0.000717966
-0.000133542
-0.000785435
-0.000170598
-0.000832492
-0.000209322
-0.000865061
-0.000249233
-0.000888148
-0.000290027
-0.000905603
-0.000331531
-0.000920143
-0.000373663
-0.000933516
-0.000416396
-0.000946756
-0.000459739
-0.00096042
-0.000503715
-0.000974783
-0.000548356
-0.000989971
-0.000593699
-0.00100604
-0.000639782
-0.00102301
-0.000686642
-0.0010409
-0.000734318
-0.00105972
-0.00107948
-5.36072e-06
-0.000121514
-1.95889e-05
-0.000317751
-4.11331e-05
-0.000475141
-6.84872e-05
-0.000596377
-0.000100281
-0.000686172
-0.000135345
-0.000750371
-0.000172749
-0.000795088
-0.000211801
-0.00082601
-0.000252023
-0.000847925
-0.000293116
-0.00086451
-0.000334912
-0.000878347
-0.000377331
-0.000891097
-0.000420351
-0.000903737
-0.00046398
-0.000916792
-0.000508242
-0.000930521
-0.000553172
-0.000945041
-0.000598806
-0.000960404
-0.00064518
-0.000976633
-0.000692336
-0.000993742
-0.00074031
-0.00101174
-0.00103064
-5.46323e-06
-0.00011605
-1.993e-05
-0.000303285
-4.17927e-05
-0.000453278
-6.95016e-05
-0.000568668
-0.000101656
-0.000654018
-0.000137071
-0.000714956
-0.000174806
-0.000757352
-0.000214171
-0.000786646
-0.00025469
-0.000807406
-0.00029607
-0.000823131
-0.000338145
-0.000836272
-0.00038084
-0.000848402
-0.000424133
-0.000860443
-0.000468036
-0.000872889
-0.000512574
-0.000885983
-0.00055778
-0.000899835
-0.000603691
-0.000914492
-0.000650346
-0.000929978
-0.000697785
-0.000946304
-0.000746046
-0.000963481
-0.00098152
-5.56136e-06
-0.000110489
-2.02562e-05
-0.00028859
-4.24231e-05
-0.000431111
-7.04704e-05
-0.000540621
-0.000102969
-0.000621519
-0.000138717
-0.000679208
-0.000176769
-0.0007193
-0.000216432
-0.000746983
-0.000257235
-0.000766602
-0.000298888
-0.000781478
-0.000341229
-0.00079393
-0.000384187
-0.000805444
-0.000427743
-0.000816887
-0.000471907
-0.000828725
-0.000516708
-0.000841183
-0.000562178
-0.000854365
-0.000608355
-0.000868315
-0.000655279
-0.000883054
-0.000702988
-0.000898594
-0.000751523
-0.000914947