/*--------------------------------*- C++ -*----------------------------------*\
  =========                 |
  \\      /  F ield         | OpenFOAM: The Open Source CFD Toolbox
   \\    /   O peration     | Website:  https://openfoam.org
    \\  /    A nd           | Version:  7
     \\/     M anipulation  |
\*---------------------------------------------------------------------------*/
FoamFile
{
    version     2.0;
    format      ascii;
    class       volVectorField;
    location    "40";
    object      U;
}
// * * * * * * * * * * * * * * * * * * * * * * * * * * * * * * * * * * * * * //

dimensions      [0 1 -1 0 0 0 0];

internalField   nonuniform List<vector> 
7158
(
(0.542696 -0.00950334 9.25116e-24)
(0.559716 -0.0100636 8.4152e-24)
(0.576109 -0.0101045 1.4261e-23)
(0.591756 -0.00967865 7.44269e-24)
(0.606929 -0.00885233 -8.6905e-24)
(0.621387 -0.00770919 1.34143e-24)
(0.635535 -0.00633932 1.24306e-23)
(0.64893 -0.00483469 7.83826e-24)
(0.662185 -0.00329079 2.69557e-24)
(0.674568 -0.00178494 -1.17253e-23)
(0.687019 -0.000402349 7.90736e-24)
(0.698393 0.00081286 -3.89485e-24)
(0.710124 0.00179579 -4.93816e-24)
(0.720483 0.00254465 -1.11909e-23)
(0.731615 0.00301974 -3.80766e-25)
(0.740963 0.0032572 -8.38766e-24)
(0.751663 0.00324739 -7.82803e-24)
(0.75999 0.00304224 -1.70608e-24)
(0.770461 0.0026756 1.19207e-24)
(0.777723 0.00217128 4.22541e-24)
(0.788183 0.00163719 3.02114e-24)
(0.794281 0.00100211 1.48076e-24)
(0.804972 0.000499347 -2.56772e-24)
(0.809747 -0.000117841 3.12686e-24)
(0.820946 -0.000432766 -1.98311e-24)
(0.824205 -0.00092683 -1.75874e-24)
(0.83622 -0.000984673 -2.40134e-24)
(0.83779 -0.00128269 3.66079e-26)
(0.850865 -0.00113944 -2.03254e-24)
(0.544232 -0.0105906 -1.02137e-24)
(0.56114 -0.0110895 4.28372e-23)
(0.57739 -0.0110725 -1.53616e-23)
(0.592876 -0.0105952 -2.94807e-23)
(0.607877 -0.00971976 -6.14501e-24)
(0.62216 -0.0085337 1.06567e-24)
(0.636139 -0.00712126 -3.45435e-23)
(0.649378 -0.00557989 -3.80832e-23)
(0.662496 -0.00399726 -2.70161e-23)
(0.674765 -0.002459 1.53576e-23)
(0.687125 -0.00103984 1.94269e-23)
(0.698435 0.000203947 -2.39045e-23)
(0.710126 0.00122169 7.05628e-24)
(0.720469 0.00199481 -3.05913e-24)
(0.731604 0.0025029 1.81559e-23)
(0.74097 0.00275957 1.1562e-23)
(0.751701 0.00278127 8.3035e-24)
(0.760067 0.00258994 6.68485e-24)
(0.770579 0.00225417 -1.9002e-23)
(0.777883 0.00175837 6.18703e-24)
(0.788379 0.00125562 -3.18324e-24)
(0.794512 0.000623748 -1.51281e-23)
(0.805221 0.000153786 8.07616e-24)
(0.810018 -0.000465703 -1.1537e-23)
(0.821215 -0.000746132 -4.92809e-24)
(0.824484 -0.00124784 -3.42746e-24)
(0.836474 -0.00127066 -2.9023e-24)
(0.838047 -0.00157925 -2.40231e-24)
(0.851082 -0.00140651 -1.63515e-24)
(0.546334 -0.0116709 -2.05159e-23)
(0.563106 -0.0121068 -4.68229e-23)
(0.579193 -0.0120308 -1.16796e-23)
(0.594497 -0.0115014 3.32882e-23)
(0.609304 -0.0105768 -6.76022e-23)
(0.623394 -0.00934821 -3.19538e-23)
(0.637185 -0.00789395 1.51302e-23)
(0.650251 -0.00631687 8.3832e-23)
(0.663213 -0.00469675 3.82282e-23)
(0.67535 -0.00312744 1.72564e-23)
(0.687603 -0.00167311 -2.74129e-23)
(0.698832 -0.000402078 6.91198e-23)
(0.710468 0.000649247 -2.92337e-23)
(0.720779 0.00144558 2.08091e-23)
(0.731901 0.00198579 -5.33986e-23)
(0.741273 0.00226103 1.57403e-24)
(0.75202 0.00231379 -1.91799e-23)
(0.760413 0.00213607 -1.04045e-23)
(0.770951 0.0018311 1.70291e-23)
(0.778288 0.00134396 2.47702e-24)
(0.788806 0.000872719 1.16079e-23)
(0.794965 0.000244445 9.09717e-24)
(0.80568 -0.000192444 -9.47517e-24)
(0.810493 -0.000813767 -6.71687e-25)
(0.821673 -0.00105947 7.83206e-24)
(0.824948 -0.00156837 5.31673e-24)
(0.836899 -0.00155606 3.69152e-24)
(0.838473 -0.00187491 3.1717e-24)
(0.851454 -0.00167266 4.74225e-24)
(0.548991 -0.0127429 -2.48167e-23)
(0.565607 -0.0131143 4.18974e-23)
(0.581509 -0.0129782 -5.76699e-23)
(0.596612 -0.0123961 -3.91516e-23)
(0.611207 -0.0114224 1.00761e-22)
(0.625085 -0.0101516 1.62261e-23)
(0.63867 -0.00865632 -3.53101e-23)
(0.651544 -0.00704462 -9.16323e-23)
(0.664333 -0.0053883 1.0102e-23)
(0.676322 -0.00378934 -2.22157e-23)
(0.68845 -0.00230126 -2.32505e-23)
(0.699584 -0.00100437 -3.38775e-23)
(0.711146 7.92652e-05 -1.16806e-23)
(0.721412 0.000897698 -1.23989e-23)
(0.732506 0.00146912 3.69839e-23)
(0.741871 0.00176226 6.71973e-24)
(0.752619 0.00184558 -1.53091e-23)
(0.761027 0.00168122 1.00282e-23)
(0.771578 0.00140693 -9.04437e-24)
(0.778938 0.000928583 1.78152e-23)
(0.789463 0.000488983 -7.58625e-24)
(0.795641 -0.000135336 -1.46608e-23)
(0.806348 -0.000538927 -1.1304e-23)
(0.811169 -0.00116162 3.32607e-23)
(0.82232 -0.0013724 1.43936e-23)
(0.825595 -0.00188808 2.36162e-24)
(0.837495 -0.00184055 2.10902e-24)
(0.839067 -0.00216937 1.74857e-24)
(0.851979 -0.0019376 8.07767e-24)
(0.552194 -0.0138052 7.29088e-23)
(0.568632 -0.0141106 -2.47382e-23)
(0.584331 -0.0139136 8.80142e-23)
(0.599213 -0.0132784 -5.30667e-23)
(0.613579 -0.0122554 -1.63068e-23)
(0.627227 -0.0109429 1.78737e-23)
(0.640588 -0.00940742 3.42481e-23)
(0.653254 -0.0077622 -2.35724e-24)
(0.665853 -0.00607099 -2.69626e-23)
(0.677677 -0.00444382 3.76022e-23)
(0.689664 -0.00292347 2.60535e-23)
(0.700686 -0.00160212 2.42618e-23)
(0.712161 -0.000487491 -1.37823e-24)
(0.722366 0.00035191 9.08411e-24)
(0.733418 0.000953584 -7.90509e-23)
(0.742761 0.0012639 1.72852e-23)
(0.753497 0.00137726 -1.84389e-24)
(0.761908 0.001226 -1.67262e-23)
(0.772458 0.000982229 3.62238e-23)
(0.779829 0.000512776 5.89626e-24)
(0.79035 0.000104901 -3.86237e-23)
(0.796536 -0.000515119 -3.61537e-24)
(0.807223 -0.00088523 -1.2642e-23)
(0.812046 -0.00150886 -4.35464e-23)
(0.823153 -0.00168457 -1.49518e-23)
(0.826425 -0.00220659 -6.98398e-24)
(0.838259 -0.00212382 -9.81295e-24)
(0.839827 -0.00246229 -3.93484e-24)
(0.852655 -0.00220108 -1.32228e-23)
(0.555929 -0.0148566 -2.9949e-23)
(0.572171 -0.0150946 -1.09979e-22)
(0.587647 -0.0148357 8.41931e-24)
(0.602292 -0.014147 1.04371e-22)
(0.616409 -0.0130749 -1.53646e-22)
(0.629812 -0.0117212 1.56436e-22)
(0.642932 -0.0101463 -4.08115e-23)
(0.655375 -0.00846869 9.82437e-23)
(0.667767 -0.00674396 5.52357e-23)
(0.679411 -0.00509002 1.4839e-23)
(0.691241 -0.0035389 3.39827e-23)
(0.702137 -0.00219454 6.99797e-23)
(0.713508 -0.00105026 9.9023e-23)
(0.723639 -0.000191053 4.6029e-23)
(0.734632 0.000439878 6.21727e-23)
(0.743943 0.000766647 -5.45307e-23)
(0.75465 0.000909456 5.41973e-23)
(0.763053 0.000771008 1.57324e-23)
(0.773588 0.000557549 -3.90954e-23)
(0.780961 9.70694e-05 6.15139e-24)
(0.791463 -0.000279037 4.48708e-23)
(0.79765 -0.000894434 2.36055e-24)
(0.808302 -0.00123093 3.82205e-23)
(0.81312 -0.00185505 2.29326e-23)
(0.824172 -0.00199562 1.62082e-23)
(0.827435 -0.00252354 2.66303e-24)
(0.839191 -0.00240555 1.0193e-23)
(0.840751 -0.00275337 1.73702e-26)
(0.853482 -0.00246281 4.51107e-24)
(0.560183 -0.0158958 6.52211e-24)
(0.576209 -0.0160651 1.22323e-22)
(0.591445 -0.0157436 1.25111e-22)
(0.605835 -0.015001 -1.61749e-22)
(0.61969 -0.01388 2.59822e-22)
(0.632831 -0.0124855 -2.37688e-22)
(0.645695 -0.0108721 9.07207e-23)
(0.6579 -0.00916324 -1.21273e-22)
(0.670069 -0.00740635 3.0052e-24)
(0.681518 -0.00572711 -1.06853e-23)
(0.693176 -0.00414675 6.31482e-23)
(0.703932 -0.00278084 1.28561e-23)
(0.715184 -0.00160829 1.76639e-23)
(0.725227 -0.000730459 -2.5484e-23)
(0.736147 -7.1314e-05 7.00825e-23)
(0.745411 0.000271142 7.3536e-23)
(0.756077 0.000442792 -2.69874e-23)
(0.764459 0.000316839 -4.24664e-24)
(0.774966 0.000133446 1.61305e-23)
(0.782329 -0.000318001 -3.67558e-23)
(0.792799 -0.000662342 2.4256e-23)
(0.798978 -0.00127281 2.4222e-23)
(0.809584 -0.00157561 -1.78339e-23)
(0.81439 -0.00219979 -1.85446e-23)
(0.825374 -0.00230516 -4.43889e-23)
(0.828622 -0.00283858 1.18341e-23)
(0.840287 -0.00268543 -2.55801e-23)
(0.841838 -0.00304227 -9.5531e-27)
(0.854458 -0.00272254 -4.62538e-24)
(0.564937 -0.0169217 5.02239e-24)
(0.58073 -0.0170212 -4.16179e-23)
(0.59571 -0.0166363 -9.45011e-23)
(0.609831 -0.0158395 1.71875e-22)
(0.623407 -0.0146696 -1.86368e-22)
(0.636273 -0.0132349 1.28331e-22)
(0.648868 -0.011584 -6.12139e-23)
(0.660819 -0.00984504 1.05867e-22)
(0.672752 -0.00805738 -1.28605e-22)
(0.683993 -0.00635433 -1.08788e-22)
(0.695463 -0.00474627 -1.84142e-22)
(0.706065 -0.00336028 -4.57899e-23)
(0.717183 -0.00216087 -1.14561e-22)
(0.727125 -0.0012656 -6.20477e-23)
(0.737957 -0.00057931 -9.73212e-23)
(0.747163 -0.000221967 -6.1218e-23)
(0.757771 -2.21145e-05 1.79194e-23)
(0.766122 -0.000135913 -1.60927e-23)
(0.776586 -0.000289535 5.86626e-24)
(0.783931 -0.000731906 7.82442e-23)
(0.794356 -0.00104453 -4.49437e-23)
(0.800518 -0.00164978 3.53005e-23)
(0.811064 -0.00191884 4.42396e-23)
(0.815852 -0.00254268 4.33587e-23)
(0.826755 -0.00261287 3.23286e-23)
(0.829985 -0.00315134 -1.85253e-23)
(0.841546 -0.00296317 3.63595e-23)
(0.843085 -0.00332871 -1.42826e-24)
(0.855581 -0.00298 -1.21492e-23)
(0.570174 -0.0179331 9.90915e-23)
(0.585718 -0.0179618 8.8252e-23)
(0.600426 -0.0175129 1.91623e-23)
(0.614265 -0.0166617 -7.30953e-23)
(0.627549 -0.0154432 3.83852e-23)
(0.640127 -0.0139688 -6.20313e-23)
(0.652438 -0.0122812 1.34743e-22)
(0.664124 -0.0105133 -1.40668e-22)
(0.675806 -0.00869629 -2.09953e-23)
(0.686826 -0.00697091 6.73898e-23)
(0.698095 -0.00533671 1.17416e-22)
(0.70853 -0.00393212 -2.44156e-23)
(0.719499 -0.00270727 9.11029e-23)
(0.729327 -0.00179579 4.21863e-23)
(0.740057 -0.00108345 1.11287e-22)
(0.749192 -0.000712002 -1.79893e-23)
(0.75973 -0.000484654 9.16792e-24)
(0.768039 -0.000586656 -2.94355e-24)
(0.778446 -0.000710829 3.19192e-23)
(0.785762 -0.00114412 -6.57944e-23)
(0.796129 -0.00142512 -2.76138e-23)
(0.802266 -0.00202489 -4.40962e-24)
(0.81274 -0.00226021 -4.79967e-23)
(0.817503 -0.00288332 -1.71674e-23)
(0.828312 -0.00291837 -1.44825e-23)
(0.83152 -0.0034615 1.58303e-23)
(0.842964 -0.00323847 -3.88039e-24)
(0.84449 -0.00361237 5.01601e-24)
(0.856848 -0.00323494 2.42902e-23)
(0.575874 -0.0189292 9.01734e-23)
(0.591154 -0.018886 3.97344e-24)
(0.605577 -0.0183726 -6.79461e-23)
(0.61912 -0.0174668 -4.83604e-23)
(0.6321 -0.0161999 7.5507e-23)
(0.644379 -0.0146865 -4.03047e-23)
(0.656394 -0.0129631 -1.59341e-22)
(0.667803 -0.0111674 9.11678e-23)
(0.679223 -0.00932241 5.4178e-23)
(0.690008 -0.00757616 3.94038e-23)
(0.701063 -0.00591739 -1.22559e-22)
(0.711318 -0.00449568 4.8202e-23)
(0.722126 -0.00324684 -6.42511e-23)
(0.731827 -0.00232037 -1.81434e-23)
(0.742442 -0.00158308 9.23186e-23)
(0.751493 -0.00119833 -1.11717e-22)
(0.761948 -0.000944224 -3.58217e-23)
(0.770202 -0.00103481 4.71452e-24)
(0.78054 -0.0011299 -3.98445e-23)
(0.787818 -0.00155413 3.61588e-23)
(0.798113 -0.00180364 7.25818e-23)
(0.804218 -0.00239769 -7.12879e-23)
(0.814607 -0.00259933 2.25849e-23)
(0.819339 -0.00322132 -3.45678e-23)
(0.830043 -0.00322134 -1.66523e-23)
(0.833224 -0.00376871 -1.19504e-23)
(0.844539 -0.00351104 -6.55849e-24)
(0.846048 -0.00389297 7.36555e-25)
(0.858257 -0.00348712 9.75015e-25)
(0.582015 -0.0199089 1.06209e-22)
(0.597017 -0.0197931 -1.05671e-22)
(0.611143 -0.0192147 -1.4748e-22)
(0.62438 -0.0182542 -3.46896e-23)
(0.637045 -0.0169391 1.64333e-22)
(0.649013 -0.0153872 3.98255e-23)
(0.660722 -0.013629 2.59624e-23)
(0.671843 -0.0118067 -3.44824e-23)
(0.682989 -0.00993508 1.04768e-22)
(0.69353 -0.00816944 -1.4714e-22)
(0.704358 -0.00648765 -3.39763e-23)
(0.714422 -0.00505029 -2.5853e-22)
(0.725055 -0.0037789 -1.01109e-22)
(0.734618 -0.00283867 -1.72517e-23)
(0.745103 -0.00207757 -6.85532e-23)
(0.75406 -0.00168037 6.28097e-23)
(0.764417 -0.00140024 1.00476e-22)
(0.772607 -0.00147981 -2.50474e-23)
(0.782863 -0.00154622 -4.9733e-23)
(0.790092 -0.00196142 -1.08387e-22)
(0.800304 -0.00217963 -4.34518e-24)
(0.806367 -0.00276773 5.58627e-23)
(0.816661 -0.00293579 -3.31346e-23)
(0.821355 -0.0035563 6.71029e-23)
(0.831942 -0.00352143 3.20059e-23)
(0.835092 -0.00407264 -7.76395e-24)
(0.846267 -0.00378059 2.76436e-23)
(0.847758 -0.00417023 -2.19321e-24)
(0.859805 -0.0037363 -1.36117e-23)
(0.588575 -0.0208715 -1.72886e-22)
(0.603287 -0.0206824 1.77327e-22)
(0.617105 -0.0200385 7.44919e-23)
(0.630025 -0.0190233 2.39061e-22)
(0.642366 -0.0176603 -2.63123e-22)
(0.654015 -0.0160704 1.07526e-22)
(0.665408 -0.0142783 1.02541e-22)
(0.676232 -0.0124306 -5.2164e-23)
(0.687094 -0.0105337 -9.03787e-23)
(0.697379 -0.00875014 2.34886e-23)
(0.70797 -0.00704687 6.00097e-23)
(0.717831 -0.00559532 2.53445e-22)
(0.728278 -0.00430284 2.60732e-22)
(0.737691 -0.00335007 8.93809e-23)
(0.748034 -0.00256633 7.38238e-23)
(0.756885 -0.00215751 2.14307e-23)
(0.767133 -0.00185213 6.73403e-23)
(0.775247 -0.00192111 -9.15562e-23)
(0.785408 -0.00195929 -4.25464e-24)
(0.792579 -0.0023655 2.36368e-23)
(0.802697 -0.00255263 -4.03934e-23)
(0.80871 -0.00313458 -2.24232e-23)
(0.818896 -0.0032692 -4.85716e-24)
(0.823546 -0.00388789 -5.10764e-23)
(0.834006 -0.00381832 -3.91605e-24)
(0.83712 -0.00437298 8.23143e-25)
(0.848145 -0.00404687 -3.10056e-23)
(0.849615 -0.00444387 1.84845e-24)
(0.861488 -0.00398225 1.67533e-23)
(0.595529 -0.0218161 -9.34697e-23)
(0.609941 -0.021553 5.91252e-23)
(0.623441 -0.0208435 -2.6707e-22)
(0.636036 -0.0197735 -7.25612e-23)
(0.648045 -0.0183629 7.45067e-23)
(0.659367 -0.0167358 -2.38831e-22)
(0.670437 -0.0149107 -3.47604e-22)
(0.680956 -0.0130386 5.91986e-23)
(0.691524 -0.0111178 1.66974e-22)
(0.701545 -0.0093177 9.97191e-23)
(0.711888 -0.00759449 1.46872e-22)
(0.721536 -0.0061302 -2.10842e-22)
(0.731784 -0.00481807 -2.50284e-22)
(0.741036 -0.00385398 1.38401e-22)
(0.751227 -0.00304875 -1.79029e-22)
(0.759961 -0.00262916 2.65593e-23)
(0.770086 -0.00229934 -6.28648e-23)
(0.778115 -0.00235816 9.48599e-23)
(0.788169 -0.00236858 6.41827e-23)
(0.795273 -0.00276589 3.57636e-23)
(0.805284 -0.0029222 6.35435e-23)
(0.811241 -0.00349782 3.74329e-23)
(0.821308 -0.0035992 1.75081e-23)
(0.825908 -0.00421573 1.63554e-23)
(0.83623 -0.00411171 -2.84618e-23)
(0.839305 -0.00466943 1.42409e-23)
(0.850167 -0.00430961 -1.29277e-23)
(0.851614 -0.00471363 -1.15127e-23)
(0.863303 -0.00422474 -1.47637e-23)
(0.602854 -0.0227422 2.39769e-22)
(0.616956 -0.0224046 1.97059e-24)
(0.63013 -0.0216292 3.00402e-22)
(0.642393 -0.0205044 5.54472e-23)
(0.654062 -0.0190467 -1.40824e-22)
(0.665051 -0.0173828 4.20812e-22)
(0.675791 -0.0155256 4.00853e-22)
(0.685998 -0.0136302 3.70847e-23)
(0.696265 -0.0116869 -7.06639e-23)
(0.706013 -0.00987163 -1.51561e-22)
(0.716098 -0.00812999 -1.02497e-22)
(0.725524 -0.00665438 1.18558e-22)
(0.735564 -0.00532402 7.941e-24)
(0.744646 -0.00434984 -2.07218e-22)
(0.754671 -0.00352428 1.41536e-22)
(0.763278 -0.00309477 4.0275e-23)
(0.773269 -0.00274132 -2.66457e-23)
(0.781203 -0.00279043 -1.15513e-22)
(0.791138 -0.00277362 -1.47238e-23)
(0.798167 -0.00316211 -6.99902e-23)
(0.808059 -0.00328791 -1.10581e-23)
(0.813952 -0.00385704 -2.26224e-23)
(0.82389 -0.0039254 2.86352e-23)
(0.828435 -0.00453947 1.44383e-23)
(0.838608 -0.00440128 4.35588e-23)
(0.84164 -0.00496169 -2.44676e-23)
(0.85233 -0.00456855 3.63806e-23)
(0.853753 -0.00497925 2.61507e-23)
(0.865246 -0.00446356 3.12162e-23)
(0.610523 -0.023649 1.34994e-22)
(0.624307 -0.0232367 1.64884e-22)
(0.637148 -0.0223952 3.25168e-22)
(0.649073 -0.0212157 4.57577e-23)
(0.660399 -0.0197112 -1.67474e-22)
(0.67105 -0.0180111 -2.49803e-22)
(0.681453 -0.0161227 -6.15015e-23)
(0.691342 -0.0142052 1.97273e-23)
(0.701301 -0.0122406 7.0992e-24)
(0.710771 -0.0104115 1.46235e-22)
(0.72059 -0.00865289 1.31216e-22)
(0.729785 -0.00716735 -1.60859e-22)
(0.739606 -0.00582019 1.43123e-22)
(0.748508 -0.00483709 4.89073e-23)
(0.758357 -0.00399239 -6.22751e-23)
(0.766828 -0.00355381 -1.63449e-22)
(0.776673 -0.00317758 -2.83035e-23)
(0.784502 -0.00321743 1.42809e-22)
(0.794308 -0.00317392 1.70802e-23)
(0.801253 -0.00355371 4.64182e-23)
(0.811017 -0.00364934 3.48038e-23)
(0.816838 -0.00421185 -3.47115e-24)
(0.826636 -0.00424748 1.5927e-23)
(0.831121 -0.00485879 -2.3774e-23)
(0.841136 -0.00468674 -5.0785e-23)
(0.844121 -0.00524947 -3.32278e-23)
(0.85463 -0.00482345 4.11853e-24)
(0.856026 -0.0052405 -3.47984e-23)
(0.867314 -0.00469852 -6.3224e-24)
(0.61851 -0.0245361 -4.27986e-22)
(0.631969 -0.0240487 -2.54812e-22)
(0.644472 -0.0231411 -4.16794e-22)
(0.656055 -0.0219071 -2.35773e-22)
(0.667033 -0.0203562 -1.78194e-23)
(0.677342 -0.0186206 -1.86378e-22)
(0.687406 -0.0167018 1.9218e-23)
(0.696973 -0.0147631 -1.55654e-23)
(0.706618 -0.0127785 -2.28188e-22)
(0.715802 -0.0109369 -2.39934e-22)
(0.725348 -0.00916277 -1.10397e-22)
(0.734306 -0.00766865 5.12575e-23)
(0.7439 -0.00630609 -9.80671e-23)
(0.752613 -0.00531526 -2.24472e-23)
(0.762275 -0.00445258 -1.03079e-22)
(0.770601 -0.00400576 6.8878e-23)
(0.78029 -0.00360761 -3.95197e-23)
(0.788006 -0.00363868 -1.98178e-23)
(0.797671 -0.00356903 1.54453e-23)
(0.804524 -0.00394026 -3.82871e-23)
(0.814148 -0.0040061 -1.39983e-22)
(0.819892 -0.00456187 -4.31663e-23)
(0.829541 -0.00456508 4.14269e-23)
(0.83396 -0.00517335 4.62036e-23)
(0.843807 -0.00496782 1.36853e-23)
(0.846742 -0.00553252 1.04844e-22)
(0.85706 -0.0050741 -4.26001e-23)
(0.858429 -0.00549715 2.93624e-23)
(0.869502 -0.0049294 -3.17426e-23)
(0.62679 -0.0254032 -6.67204e-23)
(0.639918 -0.0248405 4.04497e-22)
(0.652078 -0.0238669 5.12439e-23)
(0.663317 -0.0225785 8.36019e-22)
(0.673943 -0.0209815 2.78925e-22)
(0.683909 -0.019211 1.04223e-23)
(0.69363 -0.0172627 -1.65101e-22)
(0.702871 -0.0153037 2.70967e-22)
(0.712199 -0.0133003 2.11281e-22)
(0.721093 -0.0114475 1.32879e-23)
(0.73036 -0.00965926 1.10656e-22)
(0.739073 -0.00815787 2.81962e-22)
(0.748431 -0.00678128 5.20106e-23)
(0.756948 -0.00578386 -9.02195e-23)
(0.766415 -0.00490436 7.12965e-23)
(0.774586 -0.00445016 -2.09398e-23)
(0.78411 -0.00403094 7.90774e-23)
(0.791703 -0.0040537 -1.18596e-22)
(0.801218 -0.00395852 3.26405e-23)
(0.807972 -0.00432133 1.28865e-22)
(0.817447 -0.00435781 1.24628e-23)
(0.823107 -0.00490673 4.36008e-23)
(0.832597 -0.00487789 -2.93324e-23)
(0.836945 -0.00548285 3.45526e-23)
(0.846616 -0.00524426 1.45203e-23)
(0.849497 -0.00581057 -6.29296e-23)
(0.859617 -0.00532026 6.70678e-23)
(0.860956 -0.00574898 -1.35858e-23)
(0.871806 -0.00515604 1.68771e-23)
(0.635334 -0.0262497 1.15009e-22)
(0.648127 -0.0256118 -4.74787e-22)
(0.659942 -0.0245722 -1.84807e-23)
(0.670834 -0.0232297 -1.79635e-22)
(0.681109 -0.0215871 -1.73553e-22)
(0.690729 -0.0197822 3.33964e-22)
(0.700106 -0.0178052 -2.75041e-23)
(0.70902 -0.015827 -1.11793e-22)
(0.718027 -0.0138059 1.4821e-22)
(0.726627 -0.011943 2.38597e-22)
(0.73561 -0.010142 -3.00175e-22)
(0.744073 -0.00863464 -3.98365e-23)
(0.753188 -0.00724535 1.50011e-22)
(0.761501 -0.00624247 -1.13328e-23)
(0.770764 -0.00534729 1.14408e-22)
(0.778774 -0.00488653 5.67674e-23)
(0.788122 -0.00444712 -2.88176e-23)
(0.795586 -0.00446206 -1.4824e-23)
(0.804941 -0.00434197 7.64722e-24)
(0.811587 -0.00469653 -1.91798e-22)
(0.820904 -0.00470409 -9.98167e-24)
(0.826474 -0.0052461 2.78981e-23)
(0.835797 -0.00518559 -2.71052e-23)
(0.84007 -0.00578701 -1.00954e-22)
(0.849557 -0.00551579 8.14865e-24)
(0.852382 -0.00608339 9.34975e-24)
(0.862294 -0.00556174 -1.84844e-23)
(0.863602 -0.00599579 8.74594e-24)
(0.874221 -0.00537826 -4.09854e-24)
(0.644117 -0.0270755 1.30692e-22)
(0.656571 -0.0263624 2.51275e-22)
(0.66804 -0.0252571 -1.14647e-22)
(0.678584 -0.0238607 -3.58032e-22)
(0.688507 -0.0221729 -3.08676e-22)
(0.697783 -0.0203342 2.02816e-23)
(0.706815 -0.0183293 -3.17984e-22)
(0.715401 -0.0163327 9.22778e-23)
(0.724085 -0.014295 -2.46867e-22)
(0.732389 -0.0124233 1.20289e-22)
(0.741083 -0.0106108 4.83139e-23)
(0.749291 -0.00909865 6.62117e-23)
(0.758158 -0.00769796 -2.73503e-22)
(0.766261 -0.0066907 -1.81202e-23)
(0.775312 -0.00578098 -9.51639e-23)
(0.783152 -0.00531447 -1.14629e-22)
(0.792316 -0.00485576 7.53377e-23)
(0.799643 -0.00486336 5.53804e-23)
(0.808829 -0.004719 8.53179e-23)
(0.815362 -0.00506548 3.89436e-23)
(0.824513 -0.00504461 2.07912e-22)
(0.829986 -0.00557965 -1.13863e-22)
(0.839134 -0.00548791 9.00878e-24)
(0.843328 -0.00608556 8.83857e-23)
(0.852623 -0.0057822 4.50864e-23)
(0.855388 -0.00635075 1.43751e-23)
(0.865086 -0.00579834 -2.0799e-23)
(0.866363 -0.00623739 7.44075e-24)
(0.876743 -0.0055959 -6.30166e-24)
(0.65311 -0.0278804 -5.61078e-23)
(0.665224 -0.0270923 9.92175e-23)
(0.676346 -0.0259215 -5.61751e-23)
(0.686544 -0.0244715 6.39642e-22)
(0.696116 -0.022739 2.94643e-22)
(0.705048 -0.020867 -2.05098e-22)
(0.713736 -0.018835 3.44024e-22)
(0.721995 -0.0168208 -1.03119e-22)
(0.730356 -0.0147677 1.00219e-22)
(0.738361 -0.0128881 -4.95248e-22)
(0.746763 -0.0110654 2.48707e-22)
(0.754713 -0.0095496 -2.83541e-22)
(0.763326 -0.00813879 2.49803e-22)
(0.771214 -0.00712819 5.35176e-23)
(0.780046 -0.00620504 -6.72112e-23)
(0.78771 -0.00573359 2.22283e-23)
(0.796683 -0.00525644 -1.04426e-22)
(0.803866 -0.00525719 1.64104e-22)
(0.812874 -0.00508922 -1.221e-22)
(0.819287 -0.00542782 8.01661e-23)
(0.828263 -0.00537904 -2.47671e-22)
(0.833635 -0.00590706 2.61947e-23)
(0.842601 -0.00578456 -2.34773e-23)
(0.846711 -0.00637824 -1.5453e-22)
(0.855807 -0.00604325 -6.95482e-23)
(0.858511 -0.00661244 -3.20695e-23)
(0.867988 -0.00602988 2.84081e-23)
(0.869231 -0.0064736 -1.45893e-23)
(0.879366 -0.00580881 9.41461e-24)
(0.662288 -0.0286641 -3.78388e-22)
(0.674061 -0.0278014 -1.12735e-22)
(0.684836 -0.0265654 2.27516e-22)
(0.694689 -0.0250622 -3.88741e-22)
(0.703913 -0.0232855 -2.49971e-22)
(0.712503 -0.0213807 -7.01765e-23)
(0.72085 -0.0193223 -7.41962e-23)
(0.728782 -0.0172914 7.22584e-23)
(0.73682 -0.0152237 2.11073e-22)
(0.744527 -0.0133374 3.49892e-22)
(0.752635 -0.0115056 -3.52937e-23)
(0.760324 -0.00998729 -6.47507e-23)
(0.768678 -0.00856755 1.432e-22)
(0.776346 -0.00755463 4.58142e-23)
(0.784954 -0.00661914 1.28186e-22)
(0.792436 -0.00614352 1.61088e-22)
(0.801209 -0.00564882 2.56635e-22)
(0.808242 -0.0056432 -1.67495e-22)
(0.817066 -0.0054523 2.11705e-22)
(0.823353 -0.00578322 5.82068e-23)
(0.832147 -0.00570706 -1.3975e-23)
(0.837413 -0.00622806 1.12249e-22)
(0.846189 -0.00607529 -2.72927e-23)
(0.850212 -0.0066648 1.36981e-22)
(0.859103 -0.00629873 5.41026e-23)
(0.861743 -0.00686827 -1.29424e-23)
(0.870993 -0.0062562 -7.46956e-23)
(0.872202 -0.00670426 1.8924e-23)
(0.882085 -0.00601685 -1.93006e-23)
(0.671625 -0.0294267 1.73922e-22)
(0.683056 -0.0284897 1.47856e-22)
(0.693486 -0.027189 -1.00786e-22)
(0.702997 -0.025633 2.88232e-22)
(0.711875 -0.0238126 3.38668e-22)
(0.720128 -0.0218756 6.36851e-23)
(0.728136 -0.0197914 -1.4106e-22)
(0.735745 -0.0177444 8.82321e-23)
(0.743461 -0.0156632 -2.58514e-22)
(0.750869 -0.013771 -3.97259e-22)
(0.758683 -0.0119313 -1.35495e-22)
(0.766109 -0.0104115 9.14605e-23)
(0.774201 -0.00898403 -1.56317e-22)
(0.781645 -0.00796975 -1.74063e-23)
(0.790022 -0.00702298 4.55002e-23)
(0.797318 -0.00654394 -1.14896e-22)
(0.805886 -0.00603257 -6.99041e-23)
(0.812763 -0.00602106 -1.78135e-22)
(0.821395 -0.00580792 -1.72671e-22)
(0.827551 -0.00613138 -6.33659e-23)
(0.836156 -0.00602841 1.34405e-22)
(0.841311 -0.00654237 -1.40001e-22)
(0.849891 -0.00635987 -2.42994e-24)
(0.853824 -0.00694504 -9.25751e-23)
(0.862504 -0.00654847 -1.21606e-23)
(0.865078 -0.00711806 8.54343e-23)
(0.874096 -0.00647716 4.15633e-23)
(0.875269 -0.00692923 -3.47421e-23)
(0.884895 -0.00621989 9.58092e-24)
(0.681093 -0.0301682 -3.09339e-22)
(0.692184 -0.0291574 -1.57605e-22)
(0.702272 -0.0277925 3.86942e-22)
(0.711444 -0.026184 -2.85633e-22)
(0.719981 -0.0243204 -4.17713e-23)
(0.727901 -0.0223517 3.34864e-22)
(0.735574 -0.0202424 -3.80038e-22)
(0.742863 -0.0181801 1.81296e-22)
(0.75026 -0.0160861 5.51222e-23)
(0.757371 -0.014189 2.68593e-22)
(0.764891 -0.0123425 3.71275e-22)
(0.772052 -0.0108222 -3.58231e-23)
(0.77988 -0.00938802 -5.10167e-24)
(0.787097 -0.0083733 -1.3935e-22)
(0.79524 -0.00741628 -3.80223e-23)
(0.802344 -0.00693455 2.13206e-22)
(0.8107 -0.00640737 -2.48783e-22)
(0.817416 -0.00639046 5.13841e-23)
(0.82585 -0.00615578 -1.22138e-22)
(0.83187 -0.006472 6.92366e-23)
(0.84028 -0.00634282 -1.0312e-22)
(0.845321 -0.00684976 1.32391e-22)
(0.8537 -0.00663808 4.99508e-23)
(0.857539 -0.00721875 8.28845e-23)
(0.866003 -0.00679229 -1.95794e-23)
(0.868509 -0.00736164 -7.73368e-23)
(0.87729 -0.0066926 -1.55709e-23)
(0.878427 -0.00714837 -2.43912e-24)
(0.887791 -0.00641782 -4.46879e-24)
(0.690668 -0.0308885 3.69566e-22)
(0.701421 -0.0298046 3.60859e-22)
(0.71117 -0.028376 -2.89961e-22)
(0.720008 -0.0267157 -2.53939e-22)
(0.728209 -0.0248093 -4.93061e-23)
(0.735801 -0.0228093 -1.17695e-22)
(0.743145 -0.0206755 1.77367e-22)
(0.750117 -0.0185986 -1.74132e-22)
(0.757198 -0.0164927 4.80354e-24)
(0.764015 -0.0145914 -1.12114e-22)
(0.771241 -0.012739 -1.54124e-22)
(0.778139 -0.0112191 1.58877e-22)
(0.7857 -0.00977939 -1.13627e-22)
(0.792688 -0.0087651 2.1649e-22)
(0.800592 -0.00779883 5.36752e-23)
(0.807501 -0.0073151 -4.29218e-22)
(0.815641 -0.00677297 1.76538e-22)
(0.822191 -0.00675112 1.51508e-22)
(0.830422 -0.00649561 1.90739e-22)
(0.836302 -0.00680483 -1.69044e-22)
(0.844511 -0.00665004 1.56179e-22)
(0.849434 -0.00714998 -5.37068e-23)
(0.857606 -0.00690972 4.71128e-23)
(0.861349 -0.00748575 -6.99876e-23)
(0.869593 -0.00703003 3.91458e-23)
(0.872029 -0.00759888 -7.73962e-24)
(0.880569 -0.00690241 2.51019e-23)
(0.881669 -0.00736157 2.62621e-23)
(0.890768 -0.00661054 2.84649e-23)
(0.700325 -0.0315879 -6.07337e-22)
(0.710743 -0.0304314 -3.39728e-22)
(0.720157 -0.0289398 -1.15768e-22)
(0.728666 -0.0272281 -3.17182e-22)
(0.736537 -0.0252796 3.24864e-22)
(0.743807 -0.0232489 3.80412e-22)
(0.750827 -0.0210912 2.08245e-23)
(0.757489 -0.0190001 -2.79042e-22)
(0.764258 -0.0168831 -2.20759e-22)
(0.770784 -0.0149784 1.08504e-22)
(0.777718 -0.013121 -9.28757e-23)
(0.784352 -0.0116023 -2.44908e-23)
(0.791647 -0.010158 1.84462e-22)
(0.798404 -0.00914497 -5.47374e-23)
(0.806067 -0.00817041 -2.09669e-22)
(0.812777 -0.00768537 3.14457e-22)
(0.820697 -0.00712913 -1.52814e-22)
(0.827078 -0.00710279 7.75892e-23)
(0.835101 -0.00682718 9.112e-23)
(0.840836 -0.00712962 7.21161e-23)
(0.84884 -0.00694986 -1.16747e-22)
(0.853641 -0.00744285 -4.80858e-23)
(0.861602 -0.00717462 -9.59092e-23)
(0.865247 -0.00774587 -4.97839e-24)
(0.873266 -0.00726155 -8.28955e-23)
(0.875631 -0.00782964 1.62782e-23)
(0.883926 -0.00710648 -4.92545e-23)
(0.884989 -0.00756871 1.02759e-23)
(0.893819 -0.00679796 -5.71473e-24)
(0.710041 -0.0322663 1.43411e-22)
(0.720127 -0.0310382 1.48913e-22)
(0.72921 -0.0294843 1.40942e-22)
(0.737397 -0.0277218 -8.71621e-23)
(0.744945 -0.0257317 -1.47738e-22)
(0.7519 -0.0236706 1.44298e-22)
(0.758602 -0.0214896 3.8254e-22)
(0.764959 -0.0193849 2.69569e-22)
(0.771422 -0.0172574 3.38809e-22)
(0.777661 -0.01535 6.98904e-23)
(0.784306 -0.0134885 1.3455e-22)
(0.790678 -0.0119718 -3.60238e-23)
(0.797706 -0.0105239 -3.49413e-22)
(0.804231 -0.00951281 -1.30925e-22)
(0.811651 -0.00853088 2.04116e-22)
(0.818161 -0.00804516 -6.15363e-24)
(0.825856 -0.00747563 1.3035e-22)
(0.832064 -0.00744526 -2.70152e-22)
(0.839874 -0.00715026 -1.44883e-22)
(0.845462 -0.00744617 -1.06086e-22)
(0.853257 -0.00724208 -7.3929e-23)
(0.857933 -0.00772817 1.00461e-22)
(0.865679 -0.0074326 7.93708e-24)
(0.869224 -0.00799896 9.65153e-23)
(0.877015 -0.00748673 1.01156e-22)
(0.879308 -0.00805382 4.56135e-24)
(0.887356 -0.00730471 1.20398e-23)
(0.888381 -0.00776972 -2.32187e-23)
(0.896939 -0.00697999 -2.02191e-24)
(0.719793 -0.0329241 -1.71259e-23)
(0.72955 -0.0316253 -3.1195e-22)
(0.738309 -0.0300098 -2.95873e-22)
(0.74618 -0.0281971 1.30285e-23)
(0.753411 -0.0261659 -4.4356e-22)
(0.760058 -0.024075 -4.21064e-23)
(0.766451 -0.0218711 -5.98238e-22)
(0.77251 -0.0197533 -5.88505e-23)
(0.778673 -0.017616 -1.93839e-23)
(0.784629 -0.0157064 -3.69072e-22)
(0.790988 -0.0138416 -3.00216e-22)
(0.797101 -0.0123276 7.74221e-23)
(0.803863 -0.0108769 4.18611e-22)
(0.810156 -0.00986854 2.66883e-22)
(0.817332 -0.0088801 1.47501e-22)
(0.823639 -0.00839431 1.71063e-22)
(0.831106 -0.00781231 -1.6268e-23)
(0.83714 -0.00777833 -6.36061e-23)
(0.844734 -0.00746467 -2.0202e-25)
(0.850171 -0.00775429 6.00253e-24)
(0.857752 -0.00752653 9.69062e-23)
(0.862301 -0.00800579 -8.38387e-23)
(0.86983 -0.00768353 -8.55977e-23)
(0.873272 -0.00824491 -6.72708e-24)
(0.880833 -0.00770545 -7.98608e-23)
(0.883053 -0.00827131 9.89162e-24)
(0.890851 -0.00749702 -1.4665e-23)
(0.891838 -0.00796452 -3.36174e-24)
(0.900123 -0.00715658 -2.13887e-23)
(0.729558 -0.0335614 9.30402e-23)
(0.738991 -0.0321928 5.98377e-23)
(0.747432 -0.0305167 -5.20262e-23)
(0.754993 -0.0286544 -1.13223e-22)
(0.761916 -0.0265827 -1.73878e-22)
(0.768264 -0.0244625 1.98411e-23)
(0.774355 -0.0222361 7.24621e-23)
(0.780123 -0.0201057 -1.70269e-22)
(0.785992 -0.0179591 8.28345e-23)
(0.791671 -0.0160479 3.91638e-22)
(0.797749 -0.0141804 2.97028e-22)
(0.803605 -0.0126698 -9.85319e-23)
(0.810103 -0.0112171 -1.35671e-22)
(0.816165 -0.0102121 -5.75723e-22)
(0.823095 -0.009218 -2.39537e-22)
(0.829198 -0.0087327 3.86266e-23)
(0.836437 -0.008139 7.59286e-23)
(0.842293 -0.00810184 2.86174e-22)
(0.849668 -0.00777024 5.3546e-23)
(0.854952 -0.00805382 2.29184e-22)
(0.862317 -0.00780307 -6.02096e-23)
(0.866737 -0.00827556 -5.17871e-23)
(0.874045 -0.00792729 9.1259e-23)
(0.877385 -0.00848359 -8.54431e-23)
(0.884713 -0.00791764 -3.46121e-23)
(0.886859 -0.00848204 -6.0865e-23)
(0.894406 -0.00768334 3.12179e-23)
(0.895355 -0.00815305 1.18588e-23)
(0.903365 -0.00732766 -1.3353e-23)
(0.739315 -0.0341785 -4.60731e-22)
(0.74843 -0.0327412 2.76986e-22)
(0.756558 -0.0310053 1.02213e-22)
(0.763818 -0.0290942 5.10611e-25)
(0.770441 -0.0269826 4.08137e-22)
(0.776497 -0.0248334 -7.41069e-23)
(0.782295 -0.0225852 3.78607e-22)
(0.787781 -0.0204424 8.36157e-23)
(0.793363 -0.018287 3.27348e-22)
(0.798771 -0.0163746 -2.29596e-22)
(0.804573 -0.0145052 -9.52616e-23)
(0.810175 -0.0129985 2.05037e-22)
(0.816413 -0.0115446 1.54178e-22)
(0.822245 -0.0105435 1.19637e-22)
(0.82893 -0.00954451 7.95517e-23)
(0.834828 -0.00906024 6.7806e-23)
(0.841836 -0.00845561 -6.2233e-24)
(0.847513 -0.00841567 -1.05481e-23)
(0.854667 -0.00806684 -7.64825e-23)
(0.859796 -0.00834461 -2.78079e-22)
(0.866943 -0.00807156 -2.57515e-23)
(0.871232 -0.00853738 1.38998e-22)
(0.878318 -0.00816377 -7.44895e-24)
(0.881553 -0.00871494 1.00086e-22)
(0.888647 -0.00812321 2.50671e-23)
(0.890719 -0.00868594 7.55326e-23)
(0.898014 -0.00786363 4.78601e-23)
(0.898924 -0.00833526 1.48427e-23)