/*--------------------------------*- C++ -*----------------------------------*\
  =========                 |
  \\      /  F ield         | OpenFOAM: The Open Source CFD Toolbox
   \\    /   O peration     | Website:  https://openfoam.org
    \\  /    A nd           | Version:  7
     \\/     M anipulation  |
\*---------------------------------------------------------------------------*/
FoamFile
{
    version     2.0;
    format      ascii;
    class       surfaceScalarField;
    location    "260";
    object      phi;
}
// * * * * * * * * * * * * * * * * * * * * * * * * * * * * * * * * * * * * * //

dimensions      [0 3 -1 0 0 0 0];

internalField   nonuniform List<scalar> 
8921
(
-0.00247666
-0.0010701
-0.00240258
-0.00108796
-0.00232765
-0.00110529
-0.0010463
-0.00219948
-0.00225186
-0.00112208
-0.00106171
-0.00212466
-0.00217524
-0.00113832
-0.00107657
-0.00204906
-0.00209781
-0.001154
-0.00109089
-0.00197268
-0.00201959
-0.00116912
-0.00102754
-0.00185242
-0.00110466
-0.00189556
-0.0019406
-0.00118365
-0.00104003
-0.00177639
-0.00111787
-0.00181771
-0.00186088
-0.0011976
-0.00105198
-0.00169968
-0.00113052
-0.00173917
-0.00178044
-0.00121096
-0.0010634
-0.00162233
-0.0011426
-0.00165997
-0.00169931
-0.00122372
-0.000996283
-0.00151056
-0.00107426
-0.00154435
-0.0011541
-0.00158013
-0.00161753
-0.00123588
-0.00100601
-0.00143376
-0.00108458
-0.00146578
-0.00116503
-0.00149968
-0.00153513
-0.00124743
-0.0010152
-0.00135642
-0.00109434
-0.00138664
-0.00117536
-0.00141865
-0.00145213
-0.00125836
-0.00102387
-0.00127855
-0.00110354
-0.00130697
-0.00118511
-0.00133708
-0.00136857
-0.00126867
-0.00103201
-0.0012002
-0.00111218
-0.0012268
-0.00119427
-0.00125499
-0.00128448
-0.00127836
-0.000960803
-0.00109807
-0.00103962
-0.00112138
-0.00112026
-0.00114617
-0.00120283
-0.00117242
-0.0011999
-0.00128741
-0.000967444
-0.00102055
-0.00104669
-0.00104214
-0.00112776
-0.00106509
-0.00121078
-0.0010894
-0.00111485
-0.00129583
-0.000973576
-0.000942652
-0.00105322
-0.000962498
-0.0011347
-0.000983604
-0.00121814
-0.00100597
-0.00102937
-0.00130361
-0.000979199
-0.000864395
-0.0010592
-0.000882495
-0.00114106
-0.000901748
-0.00122488
-0.000922149
-0.000943504
-0.00131075
-0.00098431
-0.000785812
-0.00106465
-0.00080216
-0.00114684
-0.000819551
-0.00123101
-0.000837981
-0.000857274
-0.00131724
-0.000988908
-0.000706937
-0.00106954
-0.000721526
-0.00115204
-0.000737048
-0.00123653
-0.000753498
-0.00077072
-0.00132308
-0.00099299
-0.000627802
-0.00107389
-0.000640627
-0.00115667
-0.000654272
-0.00124143
-0.000668735
-0.000683876
-0.00132827
-0.000996555
-0.00054844
-0.00107769
-0.000559494
-0.0011607
-0.000571258
-0.00124571
-0.000583726
-0.00059678
-0.00133281
-0.000999602
-0.000468883
-0.00108093
-0.000478163
-0.00116415
-0.000488039
-0.00124937
-0.000498507
-0.000509466
-0.00133669
-0.00100213
-0.000389164
-0.00108363
-0.000396666
-0.00116702
-0.00040465
-0.00125241
-0.000413113
-0.000421971
-0.00133991
-0.00100414
-0.000309317
-0.00108577
-0.000315037
-0.00116929
-0.000321125
-0.00125482
-0.000327579
-0.000334332
-0.00134246
-0.000925681
-0.00022568
-0.00100562
-0.000229374
-0.00108735
-0.00023331
-0.00117098
-0.000237499
-0.00125661
-0.000241942
-0.000246585
-0.00134436
-0.000926583
-0.000147351
-0.00100659
-0.000149369
-0.00108838
-0.000151518
-0.00117207
-0.000153808
-0.00125778
-0.000156236
-0.000158768
-0.00134559
-0.000926996
-6.89937e-05
-0.00100703
-6.93348e-05
-0.00108885
-6.96973e-05
-0.00117257
-7.00851e-05
-0.00125831
-7.04988e-05
-7.0918e-05
-0.00134616
-0.00092692
9.35846e-06
-0.00100695
1.06949e-05
-0.00108877
1.21197e-05
-0.00117249
1.36336e-05
-0.00125822
1.52339e-05
1.69183e-05
-0.00134605
-0.000926354
8.76729e-05
-0.00100635
9.06868e-05
-0.00108813
9.38989e-05
-0.00117181
9.73143e-05
-0.0012575
0.000100929
0.0001047
-0.00134528
-0.000925299
-0.00100522
0.000170608
-0.00108693
0.000175607
-0.00117054
0.000180924
-0.00125616
0.000186555
0.000192453
-0.00134392
-0.00100357
0.000250424
-0.00108517
0.000257209
-0.00116868
0.000264427
-0.0012542
0.000272073
0.00028009
-0.00134183
-0.0010014
0.000330103
-0.00108286
0.000338672
-0.00116622
0.000347788
-0.0012516
0.000357446
0.000367573
-0.00133908
-0.000998708
0.000409611
-0.00108
0.00041996
-0.00116318
0.000430971
-0.00124837
0.000442637
0.000454869
-0.00133567
-0.000995495
0.000488915
-0.00107658
0.000501041
-0.00115955
0.000513942
-0.00124452
0.000527612
0.000541943
-0.00133159
-0.000991761
0.000567981
-0.0010726
0.00058188
-0.00115532
0.000596667
-0.00124005
0.000612335
0.000628757
-0.00132686
-0.000987508
0.000646777
-0.00106807
0.000662444
-0.00115052
0.000679111
-0.00123495
0.00069677
0.000715278
-0.00132147
-0.000982738
0.000725271
-0.00106299
0.0007427
-0.00114512
0.000761239
-0.00122924
0.000780883
0.000801467
-0.00131543
-0.000977451
0.000803429
-0.00105737
0.000822614
-0.00113915
0.000843019
-0.0012229
0.00086464
0.000887291
-0.00130873
-0.000971649
0.00088122
-0.00105119
0.000902154
-0.00113259
0.000924417
-0.00121595
0.000948004
0.000972714
-0.00130137
-0.000965335
0.000958611
-0.00104447
0.000981287
-0.00112545
0.0010054
-0.00120839
0.00103094
0.0010577
-0.00129338
-0.00095851
-0.0010372
0.00105998
-0.00111774
0.00108593
-0.00120022
0.00111342
0.00114222
-0.00128473
-0.0010294
0.0011382
-0.00110945
0.00116598
-0.00119144
0.00119541
0.00122623
-0.00127545
-0.00102105
0.00121593
-0.00110059
0.00124552
-0.00118206
0.00127687
0.0013097
-0.00126553
-0.00101218
0.00129311
-0.00109117
0.00132452
-0.00117207
0.00135778
0.0013926
-0.00125497
-0.00100277
0.00136974
-0.00108118
0.00140293
-0.0011615
0.0014381
0.00147489
-0.00124379
-0.000992825
-0.00107064
0.00148075
-0.00115033
0.00151779
0.00155655
-0.00123199
-0.00105953
0.00155792
-0.00113858
0.00159683
0.00163754
-0.00121957
-0.00104788
0.00163443
-0.00112624
0.0016752
0.00171783
-0.00120653
-0.00103568
0.00171025
-0.00111333
0.00175285
0.00179739
-0.00119289
-0.00102293
-0.00109985
0.00182976
0.0018762
-0.00117866
-0.0010858
0.00190592
0.00195422
-0.00116383
-0.0010712
0.00198128
0.00203143
-0.00114841
-0.00105604
0.00210782
-0.00113242
0.00218334
-0.00111587
0.002258
-0.00109875
-0.00108109
0.00559893
6.25551e-05
-5.9509e-05
0.00559049
0.000182798
-0.000174358
0.00557749
0.000294264
-0.000281267
0.00556053
0.000397727
-0.000380765
0.00553991
0.000494992
-0.000474377
0.00551614
0.00058731
-0.000563543
0.00548936
0.000676635
-0.000649847
0.00546014
0.000763966
-0.000734747
0.00542864
0.000851632
-0.000820135
0.00539574
0.000939754
-0.000906852
0.00536173
0.00103094
-0.000996928
0.00532799
0.00112383
-0.0010901
0.00529502
0.00122152
-0.00118855
0.00526503
0.00132034
-0.00129034
0.00523856
0.00142471
-0.00139824
0.0052192
0.00152694
-0.00150758
0.0052069
0.00163534
-0.00162304
0.00520798
0.00173341
-0.00173449
0.00521928
0.00184178
-0.00185308
0.00525452
0.00191959
-0.00195483
0.0020297
-0.00207422
0.00573221
6.55001e-05
0.00572403
0.00019098
0.00571143
0.00030686
0.00569509
0.000414074
0.00567528
0.000514801
0.00565263
0.000609958
0.00562726
0.000702001
0.00559995
0.000791285
0.00557082
0.000880763
0.005541
0.00096957
0.00551075
0.00106119
0.00548182
0.00115276
0.00545454
0.0012488
0.00543166
0.00134322
0.00541329
0.00144308
0.00540383
0.0015364
0.00540221
0.00163695
0.00541586
0.00171976
0.00544032
0.00181732
0.00548885
0.00187106
0.00196671
0.00586866
6.83482e-05
0.0058608
0.000198839
0.00584873
0.000318938
0.00583314
0.00042966
0.00581436
0.000533584
0.00579306
0.000631259
0.00576942
0.000725636
0.00574429
0.000816411
0.0057179
0.000907153
0.00569148
0.000995993
0.00566536
0.00108731
0.00564143
0.0011767
0.00562005
0.00127017
0.0056041
0.00135917
0.00559365
0.00145354
0.00559304
0.001537
0.00560121
0.00162878
0.00562472
0.00169625
0.00566021
0.00178183
0.00571597
0.0018153
0.00189565
0.00600837
7.10822e-05
0.00600088
0.000206325
0.00598941
0.000330406
0.00597471
0.00044436
0.00595712
0.000551176
0.00593737
0.000651015
0.0059157
0.000747305
0.00589302
0.000839088
0.00586965
0.000930523
0.00584689
0.00101875
0.00582516
0.00110903
0.00580639
0.00119546
0.00579103
0.00128554
0.00578186
0.00136834
0.00577904
0.00145636
0.00578646
0.00152959
0.00580345
0.00161179
0.00583481
0.00166489
0.00587892
0.00173772
0.00593911
0.00175511
0.00181967
0.00615141
7.36849e-05
0.00614434
0.000213394
0.00613356
0.000341189
0.00611985
0.000458071
0.00610359
0.000567438
0.00608554
0.000669062
0.00606603
0.000766817
0.00604601
0.000859111
0.00602587
0.000950656
0.00600697
0.00103765
0.00598982
0.00112619
0.00597631
0.00120897
0.00596697
0.00129487
0.00596439
0.00137092
0.00596888
0.00145187
0.00598358
0.00151489
0.00600841
0.00158696
0.00604626
0.00162704
0.00609705
0.00168693
0.00616094
0.00169123
0.00174029
0.00629787
7.61396e-05
0.00629126
0.000220003
0.00628124
0.000351215
0.00626861
0.000470698
0.00625379
0.000582252
0.0062376
0.000685261
0.0062204
0.000784017
0.00620319
0.000876317
0.00618645
0.000967393
0.00617154
0.00105257
0.00615904
0.00113868
0.00615078
0.00121724
0.00614738
0.00129827
0.00615108
0.00136723
0.00616243
0.00144052
0.00618369
0.00149363
0.00621535
0.0015553
0.00625865
0.00158374
0.00631458
0.00163099
0.00638146
0.00162435
0.00165926
0.00644782
7.84305e-05
0.00644172
0.00022611
0.00643251
0.000360416
0.00642106
0.000482152
0.0064078
0.000595512
0.00639357
0.000699493
0.00637881
0.000798778
0.00636454
0.000890589
0.0063513
0.000980626
0.00634044
0.00106343
0.00633262
0.0011465
0.0063295
0.00122036
0.00633185
0.00129592
0.00634145
0.00135762
0.0063591
0.00142288
0.00638619
0.00146653
0.00642365
0.00151784
0.00647147
0.00153592
0.00653123
0.00157124
0.00660007
0.00155551
0.00157797
0.00660135
8.05417e-05
0.00659579
0.000231676
0.00658748
0.000368727
0.00657728
0.000492353
0.00656567
0.000607121
0.0065535
0.000711656
0.00654129
0.000810996
0.00653003
0.00090184
0.00652037
0.000990291
0.00651356
0.00107024
0.00651036
0.0011497
0.00651222
0.0012185
0.00652002
0.00128812
0.00653509
0.00134255
0.00655841
0.00139956
0.00659062
0.00143432
0.00663289
0.00147556
0.00668434
0.00148448
0.00674674
0.00150884
0.00681661
0.00148565
0.00149734
0.00675854
8.24578e-05
0.00675356
0.000236661
0.0067462
0.000376087
0.00673732
0.000501227
0.00672745
0.000616993
0.00671744
0.000721668
0.00670785
0.000820589
0.00669967
0.000910019
0.0066936
0.000996363
0.00669079
0.00107305
0.0066921
0.00114839
0.00669872
0.00121188
0.00671162
0.00127522
0.00673168
0.00132249
0.00676001
0.00137124
0.00679661
0.00139771
0.00684278
0.0014294
0.006897
0.00143025
0.00696106
0.00144478
0.0070312
0.00141551
0.00141801
0.00691948
8.41642e-05
0.00691511
0.000241031
0.00690876
0.000382439
0.00690128
0.00050871
0.00689321
0.000625054
0.00688542
0.000729462
0.00687851
0.000827501
0.00687342
0.000915103
0.00687093
0.000998859
0.00687205
0.00107193
0.00687769
0.00114274
0.0068888
0.00120078
0.00690639
0.00125762
0.00693096
0.00129792
0.00696362
0.00133858
0.00700393
0.00135741
0.00705313
0.0013802
0.00710936
0.00137402
0.00717427
0.00137987
0.00724404
0.00134574
0.00134046
0.00708425
8.56469e-05
0.00708053
0.000244755
0.00707524
0.000387733
0.0070692
0.000514746
0.00706301
0.000631244
0.00705748
0.00073499
0.00705328
0.0008317
0.00705129
0.000917098
0.00705231
0.000997834
0.00705723
0.00106702
0.007067
0.00113297
0.00708229
0.00118549
0.00710415
0.00123576
0.00713272
0.00126935
0.00716906
0.00130224
0.0072124
0.00131406
0.00726386
0.00132874
0.0073214
0.00131648
0.00738649
0.00131479
0.00745539
0.00127684
0.00126509
0.00725295
8.68934e-05
0.0072499
0.000247804
0.00724571
0.000391926
0.00724117
0.000519289
0.00723689
0.000635517
0.00723366
0.000738222
0.00723218
0.000833179
0.00723324
0.000916037
0.0072377
0.000993379
0.00724626
0.00105845
0.0072599
0.00111933
0.00727906
0.00116633
0.00730473
0.00121009
0.00733679
0.0012373
0.00737618
0.00126284
0.00742193
0.00126832
0.00747498
0.00127569
0.00753321
0.00125824
0.00759791
0.00125009
0.0076655
0.00120925
0.00119219
0.00742567
8.78927e-05
0.00742331
0.000250156
0.00742026
0.000394982
0.00741724
0.000522305
0.00741491
0.000637844
0.00741399
0.000739148
0.00741521
0.000831959
0.00741927
0.00091198
0.00742703
0.000985617
0.00743905
0.00104643
0.00745629
0.00110209
0.00747896
0.00114366
0.00750799
0.00118106
0.00754303
0.00120225
0.0075849
0.00122097
0.00763247
0.00122075
0.00768651
0.00122165
0.00774491
0.00119985
0.00780876
0.00118623
0.00787469
0.00114331
0.00112199
0.00760249
8.86355e-05
0.00760085
0.000251792
0.00759896
0.000396876
0.0075975
0.00052377
0.00759713
0.000638213
0.0075985
0.000737776
0.00760237
0.000828085
0.00760934
0.000905013
0.00762025
0.000974703
0.00763554
0.00103114
0.00765606
0.00108156
0.0076819
0.00111782
0.00771383
0.00114913
0.00775138
0.00116471
0.00779518
0.00117717
0.00784403
0.00117191
0.00789855
0.00116713
0.00795665
0.00114175
0.00801928
0.0011236
0.0080833
0.0010793
0.0010546
0.00778352
8.91149e-05
0.00778261
0.000252697
0.0077819
0.00039759
0.00778199
0.000523673
0.00778358
0.000636632
0.00778722
0.000734134
0.00779368
0.000821626
0.00780344
0.000895247
0.00781733
0.000960812
0.00783564
0.00101284
0.00785915
0.00105806
0.00788778
0.00108919
0.00792218
0.00111472
0.00796176
0.00112513
0.00800701
0.00113192
0.00805667
0.00112225
0.00811121
0.00111259
0.00816864
0.00108432
0.00822975
0.00106248
0.00829165
0.00101741
0.00099013
0.00796885
8.93263e-05
0.00796868
0.000252863
0.00796915
0.000397119
0.00797081
0.000522016
0.00797432
0.000633122
0.00798018
0.000728271
0.00798913
0.000812676
0.00800157
0.000882814
0.00801823
0.000944143
0.00803931
0.000991759
0.00806548
0.00103189
0.00809654
0.00105813
0.008133
0.00107825
0.00817418
0.00108396
0.00822042
0.00108568
0.00827046
0.00107221
0.00832464
0.0010584
0.00838108
0.00102789
0.00844045
0.00100311
0.00850008
0.00095778
0.000928602
0.00815858
8.92673e-05
0.00815916
0.000252286
0.00816081
0.000395467
0.00816401
0.000518814
0.00816941
0.000627724
0.00817743
0.000720252
0.00818876
0.000801347
0.0082037
0.000867869
0.00822293
0.000924912
0.00824652
0.00096817
0.00827503
0.00100339
0.00830815
0.00102501
0.00834627
0.00104013
0.00838864
0.00104159
0.00843547
0.00103884
0.00848552
0.00102216
0.00853902
0.0010049
0.0085942
0.000972706
0.00865165
0.00094567
0.00870892
0.00090051
0.000870022
0.00835282
8.89385e-05
0.00835413
0.00025097
0.00835695
0.000392648
0.00836167
0.000514094
0.0083689
0.000620495
0.00837899
0.000710164
0.00839257
0.000787771
0.00840985
0.000850585
0.00843142
0.000903345
0.00845725
0.000942343
0.00848776
0.000972872
0.0085226
0.000990169
0.00856201
0.00100073
0.00860519
0.00099841
0.00865225
0.000991781
0.00870198
0.000972424
0.00875454
0.000952348
0.00880826
0.000918986
0.00886364
0.000890282
0.00891849
0.000845658
0.000814363
0.00855166
8.83425e-05
0.00855371
0.000248921
0.00855767
0.000388686
0.00856387
0.000507897
0.00857286
0.000611507
0.00858491
0.000698108
0.00860059
0.000772093
0.00862003
0.000831148
0.00864369
0.00087968
0.00867148
0.000914554
0.0087037
0.000940652
0.00873992
0.000953953
0.00878025
0.000960397
0.0088239
0.00095476
0.00887088
0.000944805
0.00892002
0.000923286
0.00897139
0.000900972
0.00902349
0.00086689
0.00907673
0.00083704
0.00912914
0.000793253
0.000761578
0.00875522
8.74848e-05
0.00875799
0.000246157
0.00876306
0.000383617
0.00877068
0.000500278
0.00878134
0.000600846
0.00879524
0.000684203
0.00881286
0.000754475
0.00883425
0.00080976
0.00885977
0.000854159
0.00888924
0.000885081
0.00892286
0.000907036
0.00896013
0.00091668
0.00900108
0.000919451
0.00904489
0.000910947
0.0090915
0.000898194
0.00913981
0.000874981
0.00918983
0.000850952
0.00924017
0.000816544
0.00929121
0.000786001
0.00934117
0.000743298
0.000711602
0.00896361
8.6373e-05
0.00896707
0.000242697
0.0089732
0.000377484
0.00898218
0.000491303
0.00899441
0.000588611
0.00901004
0.000668581
0.00902942
0.000735089
0.00905255
0.000786627
0.00907969
0.000827026
0.00911057
0.000854196
0.00914529
0.000872317
0.00918332
0.000878653
0.00922458
0.000878188
0.00926828
0.000867248
0.00931428
0.00085219
0.00936155
0.000827709
0.00941007
0.000802434
0.00945857
0.000768042
0.00950738
0.000737196
0.0095549
0.000695774
0.000664357
0.00917694
8.50168e-05
0.00918106
0.000238569
0.00918821
0.00037034
0.00919846
0.000481049
0.00921216
0.000574914
0.00922936
0.000651385
0.00925033
0.000714114
0.00927499
0.000761965
0.00930349
0.000798527
0.00933552
0.000822168
0.00937106
0.000836775
0.00940956
0.000840153
0.00945088
0.000836876
0.00949421
0.000823909
0.00953941
0.000807
0.00958548
0.000781636
0.00963238
0.00075553
0.00967898
0.000721446
0.00972554
0.000690631
0.00977067
0.000650647
0.000619758
0.00939531
8.34283e-05
0.00940008
0.000233807
0.00940817
0.000362245
0.00941962
0.000469604
0.00943466
0.000559874
0.00945327
0.000632768
0.00947565
0.000691738
0.00950163
0.000735989
0.00953125
0.000768901
0.00956417
0.000789253
0.00960027
0.000800671
0.00963899
0.000801437
0.00968011
0.000795755
0.00972287
0.000781142
0.00976708
0.000762798
0.00981182
0.000736897
0.00985702
0.000710323
0.00990167
0.000676798
0.00994601
0.000646294
0.00998879
0.000607868
0.00057771
0.00961887
8.16211e-05
0.00962423
0.000228448
0.0096332
0.000353267
0.00964574
0.000457065
0.009662
0.00054362
0.00968187
0.000612891
0.00970546
0.00066815
0.00973254
0.000708915
0.00976305
0.000738382
0.00979661
0.000755696
0.00983303
0.000764252
0.00987172
0.000762742
0.00991244
0.000755039
0.00995445
0.000739134
0.00999751
0.000719732
0.0100408
0.000693597
0.0100843
0.000666874
0.0101269
0.000634115
0.0101691
0.000604158
0.0102096
0.000567379
0.000538113
0.00984771
7.96105e-05
0.00985362
0.000222537
0.00986341
0.000343479
0.00987694
0.000443537
0.00989427
0.000526288
0.00991525
0.000591918
0.00993985
0.000643542
0.00996781
0.000680956
0.009999
0.000707198
0.010033
0.000721732
0.0100695
0.000727743
0.0101079
0.000724281
0.0101481
0.000714915
0.0101891
0.000698043
0.010231
0.000677919
0.0102727
0.000651818
0.0103144
0.00062522
0.0103551
0.0005934
0.0103951
0.000564184
0.0104333
0.000529111
0.000500867
0.010082
7.74135e-05
0.0100884
0.000216122
0.0100989
0.000332963
0.0101133
0.000429128
0.0101316
0.000508017
0.0101535
0.000570016
0.0101789
0.000618102
0.0102076
0.00065232
0.0102392
0.000675564
0.0102734
0.000687576
0.0103097
0.000691352
0.0103478
0.000686245
0.0103872
0.000675548
0.0104272
0.000658002
0.0104677
0.000637457
0.0105079
0.000611621
0.0105477
0.00058538
0.0105865
0.000554637
0.0106243
0.00052632
0.0106604
0.000492991
0.000465867
0.0103218
7.5048e-05
0.0103287
0.000209253
0.0103398
0.0003218
0.010355
0.000413954
0.0103741
0.00048895
0.0103967
0.000547353
0.0104228
0.000592017
0.0104519
0.000623207
0.0104838
0.000643683
0.0105179
0.00065343
0.010554
0.000655267
0.0105915
0.000648803
0.0106299
0.000637079
0.0106688
0.000619122
0.0107079
0.000598419
0.0107464
0.000573045
0.0107845
0.000547357
0.0108213
0.000517802
0.0108571
0.000490508
0.0108912
0.000458939
0.000433008
0.0105673
7.2533e-05
0.0105745
0.000201986
0.0105863
0.000310078
0.0106021
0.000398132
0.0106218
0.00046923
0.0106451
0.000524095
0.0106716
0.00056547
0.010701
0.000593807
0.010733
0.000611748
0.0107669
0.000619479
0.0108025
0.000619656
0.0108392
0.000612103
0.0108767
0.000599625
0.0109143
0.000581493
0.0109519
0.000560859
0.0109888
0.000536115
0.011025
0.000511141
0.01106
0.000482858
0.0110938
0.000456683
0.0111258
0.000426873
0.000402184
0.0108186
6.98884e-05
0.0108262
0.000194376
0.0108384
0.000297885
0.0108547
0.00038178
0.010875
0.000448999
0.0108987
0.000500404
0.0109255
0.000538633
0.010955
0.000564301
0.0109868
0.000579935
0.0110204
0.000585889
0.0110554
0.000584669
0.0110912
0.000576271
0.0111276
0.000563285
0.0111639
0.000545183
0.0111999
0.000524815
0.0112352
0.000500838
0.0112696
0.000476709
0.0113027
0.000449759
0.0113346
0.000424773
0.0113648
0.000396708
0.000373291
0.0110758
6.71343e-05
0.0110837
0.000186481
0.0110963
0.000285311
0.0111131
0.000365015
0.0111337
0.000428397
0.0111576
0.000476436
0.0111846
0.000511673
0.0112141
0.000534856
0.0112456
0.000548406
0.0112787
0.000552812
0.0113129
0.000550437
0.0113477
0.000541416
0.0113829
0.000528141
0.0114178
0.000510246
0.0114523
0.000490309
0.011486
0.000467211
0.0115186
0.000444031
0.0115499
0.000418453
0.01158
0.000394706
0.0116084
0.000368358
0.000346227
0.0113392
6.42911e-05
0.0113473
0.000178359
0.0113602
0.000272446
0.0113772
0.000347952
0.0113981
0.000407558
0.0114222
0.00045234
0.0114491
0.000484744
0.0114783
0.000505629
0.0115094
0.000517308
0.0115419
0.000520381
0.0115752
0.000517071
0.011609
0.000507627
0.0116429
0.000494254
0.0116764
0.000476718
0.0117094
0.000457349
0.0117414
0.000435219
0.0117723
0.000413067
0.0118019
0.000388884
0.0118302
0.000366404
0.0118568
0.000341735
0.000320891
0.0116088
6.13793e-05
0.0116171
0.000170067
0.0116301
0.000259376
0.0116474
0.000330705
0.0116683
0.000386614
0.0116924
0.000428259
0.0117192
0.000457992
0.011748
0.00047676
0.0117786
0.000486772
0.0118102
0.000488712
0.0118426
0.000484669
0.0118753
0.000474979
0.0119079
0.000461672
0.01194
0.000444623
0.0119714
0.000425934
0.0120018
0.000404837
0.0120311
0.00038377
0.012059
0.000360988
0.0120856
0.00033979
0.0121106
0.000316754
0.000297183
0.0118848
5.84189e-05
0.0118932
0.000161663
0.0119063
0.000246187
0.0119237
0.00031338
0.0119446
0.000365687
0.0119685
0.000404323
0.011995
0.000431549
0.0120234
0.000448377
0.0120532
0.000456914
0.012084
0.000457904
0.0121154
0.000453309
0.0121468
0.000443527
0.0121781
0.000430428
0.0122087
0.000413969
0.0122386
0.00039605
0.0122674
0.000376034
0.0122951
0.000356089
0.0123214
0.000334702
0.0123464
0.000314784
0.0123698
0.000293329
0.00027501
0.0121673
5.54296e-05
0.0121757
0.0001532
0.012189
0.000232961
0.0122063
0.000296079
0.0122271
0.000344892
0.0122507
0.000380654
0.0122767
0.000405536
0.0123045
0.000420595
0.0123336
0.000427835
0.0123635
0.000428043
0.0123937
0.000423055
0.0124239
0.000413315
0.0124538
0.000400541
0.012483
0.000384757
0.0125114
0.000367674
0.0125387
0.000348769
0.0125648
0.000329968
0.0125895
0.000309959
0.012613
0.000291308
0.012635
0.000271376
0.000254279
0.0124565
5.24299e-05
0.012465
0.00014473
0.0124781
0.000219773
0.0124953
0.000278899
0.0125159
0.000324336
0.0125392
0.000357363
0.0125646
0.00038006
0.0125917
0.000393513
0.0126199
0.000399621
0.0126488
0.000399197
0.0126779
0.000393956
0.0127068
0.000384372
0.0127353
0.000372021
0.0127631
0.000356975
0.01279
0.000340778
0.0128158
0.000322999
0.0128404
0.00030535
0.0128637
0.00028669
0.0128857
0.000269284
0.0129063
0.000250812
0.000234901
0.0127526
4.94376e-05
0.012761
0.000136303
0.0127741
0.000206697
0.012791
0.000261928
0.0128112
0.000304114
0.0128341
0.000334548
0.0128589
0.000355217
0.0128852
0.000367216
0.0129125
0.000372344
0.0129403
0.000371422
0.0129682
0.000366049
0.0129958
0.000356716
0.013023
0.000344865
0.0130493
0.000330605
0.0130748
0.000315327
0.0130991
0.000298676
0.0131223
0.000282173
0.0131442
0.000264826
0.0131648
0.000248634
0.0131841
0.000231559
0.000216792
0.0130556
4.64693e-05
0.013064
0.000127963
0.0130769
0.000193798
0.0130936
0.000245244
0.0131134
0.000284314
0.0131356
0.000312298
0.0131597
0.000331087
0.0131852
0.000341777
0.0132115
0.000346061
0.0132381
0.00034476
0.0132648
0.000339359
0.0132912
0.000330353
0.013317
0.000319062
0.013342
0.000305621
0.013366
0.000291279
0.0133889
0.000275746
0.0134107
0.000260374
0.0134313
0.000244299
0.0134506
0.000229284
0.0134686
0.000213538
0.000199871
0.0133659
4.354e-05
0.0133741
0.000119753
0.0133868
0.000181136
0.0134031
0.000228921
0.0134224
0.000265012
0.013444
0.000290687
0.0134674
0.00030774
0.0134919
0.000317253
0.0135172
0.000320817
0.0135427
0.00031924
0.0135681
0.000313897
0.0135932
0.00030528
0.0136177
0.000294594
0.0136413
0.00028199
0.013664
0.00026859
0.0136856
0.000254157
0.0137061
0.000239891
0.0137253
0.000225041
0.0137435
0.000211159
0.0137603
0.000196676
0.00018406
0.0136836
4.06636e-05
0.0136916
0.000111708
0.013704
0.000168765
0.0137199
0.00021302
0.0137386
0.000246273
0.0137595
0.000269779
0.0137821
0.000285231
0.0138056
0.00029369
0.0138298
0.000296644
0.0138541
0.000294879
0.0138784
0.000289666
0.0139022
0.000281486
0.0139253
0.000271435
0.0139476
0.000259674
0.013969
0.000247211
0.0139893
0.000233852
0.0140086
0.00022066
0.0140266
0.000206984
0.0140436
0.00019419
0.0140594
0.000180901
0.000169287
0.0140088
3.78521e-05
0.0140166
0.000103862
0.0140286
0.000156731
0.0140441
0.000197596
0.0140622
0.000228154
0.0140823
0.000249626
0.014104
0.000263605
0.0141265
0.000271122
0.0141496
0.000273563
0.0141728
0.000271686
0.0141958
0.00026666
0.0142184
0.000258951
0.0142402
0.000249552
0.0142613
0.000238632
0.0142814
0.000227091
0.0143005
0.000214773
0.0143185
0.000202618
0.0143354
0.000190062
0.0143513
0.000178306
0.0143661
0.000166145
0.000155481
0.0143417
3.51161e-05
0.0143493
9.62435e-05
0.014361
0.000145072
0.0143759
0.000182693
0.0143933
0.000210699
0.0144127
0.000230267
0.0144334
0.000242895
0.0144549
0.000249571
0.0144769
0.000251584
0.0144989
0.000249657
0.0145207
0.000244863
0.014542
0.000237647
0.0145627
0.000228909
0.0145825
0.000218817
0.0146014
0.000208176
0.0146193
0.000196861
0.0146362
0.000185702
0.0146521
0.000174211
0.014667
0.000163442
0.0146808
0.000152342
0.000142578
0.0146825
3.24644e-05
0.0146899
8.88745e-05
0.0147011
0.000133823
0.0147155
0.000168348
0.0147322
0.000193941
0.0147508
0.000211734
0.0147705
0.000223121
0.0147911
0.000229049
0.0148119
0.000230706
0.0148328
0.000228781
0.0148534
0.000224252
0.0148735
0.000217543
0.014893
0.000209464
0.0149116
0.000200181
0.0149294
0.000190412
0.0149462
0.000180058
0.014962
0.00016985
0.0149769
0.000159368
0.0149908
0.000149534
0.0150037
0.00013943
0.000130514
0.0150314
2.99043e-05
0.0150385
8.17743e-05
0.0150493
0.000123006
0.0150631
0.000154587
0.0150791
0.000177907
0.0150968
0.000194044
0.0151156
0.000204295
0.0151351
0.000209555
0.0151549
0.000210921
0.0151747
0.000209039
0.0151941
0.000204799
0.0152131
0.0001986
0.0152314
0.000191171
0.0152489
0.000182673
0.0152655
0.000173743
0.0152813
0.000164304
0.0152961
0.000155002
0.01531
0.00014547
0.015323
0.00013652
0.0153351
0.000127349
0.000119232
0.0153886
2.74414e-05
0.0153954
7.49567e-05
0.0154058
0.000112641
0.015419
0.000141429
0.0154343
0.000162611
0.0154511
0.000177206
0.015469
0.000186417
0.0154875
0.000191084
0.0155062
0.000192211
0.0155248
0.000190403
0.0155431
0.000186468
0.015561
0.000180776
0.0155781
0.000173982
0.0155946
0.000166238
0.0156102
0.000158112
0.015625
0.000149542
0.0156389
0.000141097
0.0156519
0.00013246
0.0156641
0.000124341
0.0156754
0.000116042
0.000108676
0.0157543
2.50795e-05
0.0157609
6.84313e-05
0.0157708
0.00010274
0.0157833
0.000128884
0.0157979
0.000148059
0.0158138
0.000161221
0.0158308
0.000169479
0.0158482
0.000173616
0.0158659
0.00017455
0.0158835
0.000172842
0.0159007
0.000169218
0.0159175
0.000164025
0.0159336
0.000157844
0.015949
0.000150823
0.0159637
0.000143461
0.0159775
0.000135713
0.0159905
0.000128075
0.0160027
0.000120279
0.0160141
0.00011294
0.0160247
0.000105456
9.87927e-05
0.0161287
2.28209e-05
0.016135
6.22032e-05
0.0161444
9.3307e-05
0.0161563
0.000116955
0.0161701
0.000134248
0.0161853
0.00014608
0.0162013
0.000153464
0.0162178
0.000157129
0.0162344
0.000157907
0.0162509
0.000156314
0.0162672
0.000153005
0.0162829
0.000148295
0.016298
0.000142705
0.0163125
0.00013637
0.0163262
0.000129733
0.0163392
0.000122758
0.0163514
0.000115881
0.0163628
0.00010887
0.0163734
0.000102263
0.0163834
9.55374e-05
8.9532e-05
0.016512
2.06665e-05
0.016518
5.62733e-05
0.0165269
8.43412e-05
0.0165382
0.000105636
0.0165513
0.000121168
0.0165656
0.000131764
0.0165808
0.000138347
0.0165963
0.00014159
0.016612
0.000142242
0.0166275
0.000140776
0.0166427
0.000137777
0.0166575
0.000133534
0.0166717
0.000128507
0.0166852
0.000122823
0.0166981
0.000116869
0.0167102
0.00011062
0.0167217
0.000104455
0.0167323
9.8179e-05
0.0167424
9.22555e-05
0.0167517
8.62367e-05
8.08462e-05
0.0169044
1.86155e-05
0.0169101
5.06386e-05
0.0169186
7.58359e-05
0.0169293
9.49162e-05
0.0169417
0.0001088
0.0169552
0.000118248
0.0169694
0.000124097
0.0169841
0.00012696
0.0169988
0.000127511
0.0170134
0.000126178
0.0170277
0.000123483
0.0170415
0.000119686
0.0170548
0.000115193
0.0170675
0.000110121
0.0170796
0.00010481
0.017091
9.92406e-05
0.0171017
9.37436e-05
0.0171117
8.8152e-05
0.0171211
8.28671e-05
0.0171298
7.75053e-05
7.26891e-05
0.0173062
1.66659e-05
0.0173115
4.52922e-05
0.0173196
6.77785e-05
0.0173297
8.47763e-05
0.0173414
9.7119e-05
0.0173542
0.000105501
0.0173676
0.000110674
0.0173813
0.000113195
0.0173952
0.000113663
0.0174089
0.000112466
0.0174223
0.000110064
0.0174353
0.000106691
0.0174478
0.000102703
0.0174597
9.82069e-05
0.017471
9.34975e-05
0.0174817
8.85635e-05
0.0174918
8.36899e-05
0.0175012
7.87362e-05
0.01751
7.40472e-05
0.0175182
6.92962e-05
6.50164e-05
0.0177175
1.48142e-05
0.0177226
4.02235e-05
0.0177302
6.01513e-05
0.0177398
7.51913e-05
0.0177508
8.60924e-05
0.0177628
9.34824e-05
0.0177755
9.80329e-05
0.0177884
0.000100243
0.0178014
0.000100644
0.0178143
9.95816e-05
0.0178269
9.74596e-05
0.0178391
9.44874e-05
0.0178509
9.09748e-05
0.017862
8.7018e-05
0.0178727
8.28721e-05
0.0178827
7.85308e-05
0.0178921
7.42391e-05
0.017901
6.98793e-05
0.0179093
6.57463e-05
0.017917
6.15634e-05
5.77847e-05
0.0181386
1.30557e-05
0.0181434
3.54184e-05
0.0181506
5.29313e-05
0.0181597
6.613e-05
0.0181701
7.56813e-05
0.0181814
8.21473e-05
0.0181933
8.61214e-05
0.0182055
8.80477e-05
0.0182178
8.83927e-05
0.0182299
8.7462e-05
0.0182417
8.56065e-05
0.0182532
8.30117e-05
0.0182643
7.99449e-05
0.0182748
7.64924e-05
0.0182848
7.28731e-05
0.0182942
6.90846e-05
0.0183031
6.53359e-05
0.0183115
6.15294e-05
0.0183193
5.79154e-05
0.0183266
5.42614e-05
5.09513e-05
0.0185697
1.13844e-05
0.0185743
3.08595e-05
0.0185811
4.60908e-05
0.0185897
5.75554e-05
0.0185995
6.58405e-05
0.0186102
7.14431e-05
0.0186215
7.48821e-05
0.018633
7.65476e-05
0.0186445
7.68447e-05
0.0186559
7.60403e-05
0.0186671
7.44369e-05
0.0186779
7.21962e-05
0.0186883
6.95473e-05
0.0186982
6.6566e-05
0.0187077
6.34389e-05
0.0187166
6.01662e-05
0.018725
5.69247e-05
0.0187329
5.36343e-05
0.0187403
5.05055e-05
0.0187472
4.73449e-05
4.4474e-05
0.0190111
9.79293e-06
0.0190154
2.65261e-05
0.0190219
3.95971e-05
0.01903