/*--------------------------------*- C++ -*----------------------------------*\
  =========                 |
  \\      /  F ield         | OpenFOAM: The Open Source CFD Toolbox
   \\    /   O peration     | Website:  https://openfoam.org
    \\  /    A nd           | Version:  7
     \\/     M anipulation  |
\*---------------------------------------------------------------------------*/
FoamFile
{
    version     2.0;
    format      ascii;
    class       volVectorField;
    location    "260";
    object      U;
}
// * * * * * * * * * * * * * * * * * * * * * * * * * * * * * * * * * * * * * //

dimensions      [0 1 -1 0 0 0 0];

internalField   nonuniform List<vector> 
4575
(
(0.847267 0.314215 -2.71173e-19)
(0.83719 0.308011 5.02803e-19)
(0.82733 0.301462 -2.82727e-19)
(0.804361 0.312149 -1.59306e-19)
(0.817695 0.29457 -1.17525e-19)
(0.794409 0.304452 1.88028e-19)
(0.808295 0.287343 9.32607e-20)
(0.784706 0.296412 -4.93899e-20)
(0.799139 0.279787 1.89999e-19)
(0.775264 0.288035 -5.51382e-20)
(0.790237 0.271908 -2.64583e-19)
(0.749224 0.295998 2.54521e-19)
(0.766095 0.27933 1.62411e-19)
(0.7816 0.263716 1.23729e-19)
(0.739789 0.28641 -1.66164e-19)
(0.757211 0.270304 -1.19611e-19)
(0.773238 0.255218 1.2341e-20)
(0.730668 0.27649 -1.44756e-19)
(0.748623 0.260966 -5.34241e-20)
(0.765159 0.246424 9.07662e-20)
(0.721872 0.266251 -5.72311e-20)
(0.740341 0.251328 4.52642e-19)
(0.757374 0.237345 -2.90626e-19)
(0.693692 0.27081 1.25005e-19)
(0.713415 0.255703 -1.03355e-19)
(0.732378 0.241398 -8.92482e-20)
(0.749892 0.227989 1.99988e-19)
(0.685044 0.259308 1.9126e-19)
(0.705306 0.244857 2.64155e-19)
(0.724742 0.231188 5.30564e-20)
(0.742722 0.218369 -2.36822e-19)
(0.676781 0.247501 -4.75636e-20)
(0.697557 0.233726 -2.75712e-20)
(0.717445 0.220709 3.90775e-20)
(0.735873 0.208495 2.18463e-19)
(0.668913 0.235403 8.94598e-20)
(0.690179 0.222323 -1.31751e-19)
(0.710496 0.209974 -1.20777e-19)
(0.729354 0.198378 -2.35707e-19)
(0.661451 0.223028 4.29606e-20)
(0.683181 0.210661 -1.28858e-20)
(0.703905 0.198994 4.34818e-21)
(0.723172 0.188033 1.2999e-19)
(0.630926 0.222802 1.52854e-19)
(0.654405 0.210391 -1.71166e-19)
(0.676573 0.198754 3.25858e-19)
(0.69768 0.187784 -2.90906e-19)
(0.717336 0.177469 1.05924e-19)
(0.623867 0.209123 -1.00097e-19)
(0.647786 0.197507 9.92763e-21)
(0.670364 0.186616 -2.87261e-19)
(0.691829 0.176356 2.03097e-19)
(0.711853 0.166702 1.88388e-19)
(0.617273 0.195198 1.38842e-19)
(0.641601 0.184392 1.80909e-20)
(0.664562 0.174262 4.53186e-20)
(0.686362 0.164724 1.85424e-20)
(0.706729 0.155743 -2.07392e-19)
(0.611153 0.181042 -1.9629e-19)
(0.635861 0.171063 2.54447e-20)
(0.659175 0.161707 1.63623e-19)
(0.681284 0.152903 -2.29996e-19)
(0.701971 0.144606 -1.0086e-21)
(0.605516 0.166675 1.81306e-19)
(0.630572 0.157535 -1.36524e-19)
(0.654211 0.148967 -1.6687e-20)
(0.676603 0.140906 1.31921e-19)
(0.697585 0.133304 -2.43745e-19)
(0.60037 0.152114 -1.62369e-19)
(0.625742 0.143827 3.5644e-20)
(0.649676 0.136056 -2.36945e-20)
(0.672325 0.12875 -8.27085e-20)
(0.693576 0.121853 3.26591e-20)
(0.595721 0.137377 3.45294e-20)
(0.621378 0.129954 8.09257e-20)
(0.645577 0.122992 1.43661e-20)
(0.668457 0.116448 -1.76359e-20)
(0.68995 0.110265 2.11375e-21)
(0.591576 0.122484 9.89027e-20)
(0.617485 0.115934 8.25584e-20)
(0.641918 0.109791 4.04145e-20)
(0.665002 0.104016 9.22004e-20)
(0.686711 0.0985564 3.70217e-20)
(0.587942 0.107453 -3.37236e-20)
(0.614068 0.101786 -6.76972e-20)
(0.638705 0.0964692 -6.83287e-21)
(0.661966 0.0914702 -1.33156e-19)
(0.683862 0.0867402 2.54217e-21)
(0.584821 0.092304 -7.05381e-20)
(0.611133 0.0875277 -1.00622e-20)
(0.635941 0.0830433 -2.15298e-20)
(0.659352 0.0788261 1.01773e-19)
(0.681408 0.0748319 -1.74308e-20)
(0.58222 0.0770564 1.00034e-19)
(0.608682 0.0731764 1.26085e-19)
(0.633631 0.0695305 -1.83932e-20)
(0.657164 0.0660995 4.63093e-20)
(0.67935 0.0628463 -2.09077e-20)
(0.551939 0.0648935 3.39423e-20)
(0.58014 0.0617299 8.52646e-21)
(0.606719 0.058751 -4.25086e-20)
(0.631777 0.0559479 -4.13377e-21)
(0.655405 0.0533069 -1.00013e-19)
(0.677692 0.0507986 4.15851e-20)
(0.550297 0.0485413 1.6682e-20)
(0.578585 0.0463443 -4.63284e-20)
(0.605246 0.0442698 4.32106e-21)
(0.630381 0.0423127 -2.03755e-21)
(0.654076 0.0404643 2.54177e-20)
(0.676434 0.0387035 5.61856e-22)
(0.549217 0.0321476 -8.49609e-21)
(0.577555 0.0309193 1.12567e-20)
(0.604264 0.0297516 2.17837e-20)
(0.629445 0.0286424 1.61127e-21)
(0.653178 0.0275879 2.37875e-21)
(0.675577 0.0265754 1.04395e-20)
(0.548702 0.0157339 -1.01043e-20)
(0.577053 0.0154752 1.0033e-20)
(0.603775 0.0152148 2.24081e-20)
(0.628969 0.0149543 1.90212e-21)
(0.652713 0.0146946 1.664e-21)
(0.675121 0.0144332 1.11417e-20)
(0.54875 -0.000678453 7.00136e-21)
(0.577078 3.16261e-05 -3.69291e-20)
(0.603779 0.000678073 1.09893e-20)
(0.628953 0.00126593 -1.77986e-21)
(0.652681 0.00180157 1.88541e-20)
(0.67507 0.00229819 1.93067e-21)
(0.549361 -0.017068 2.2407e-20)
(0.577628 -0.0153913 7.28458e-21)
(0.604274 -0.0138402 -5.68194e-20)
(0.629398 -0.0124061 3.34696e-21)
(0.653085 -0.0110776 -8.11085e-20)
(0.675439 -0.00983033 1.81259e-20)
(0.578704 -0.0307738 1.03521e-19)
(0.60526 -0.0283216 9.43676e-20)
(0.630302 -0.0260449 -4.83434e-20)
(0.653918 -0.0239276 6.32247e-20)
(0.676197 -0.0219415 -1.35399e-21)
(0.580302 -0.0460959 -1.01572e-19)
(0.606733 -0.0427473 -1.7848e-20)
(0.631661 -0.0396323 -2.36581e-20)
(0.655178 -0.0367294 3.75608e-20)
(0.677351 -0.0340042 -2.59354e-21)
(0.582419 -0.061338 -1.04126e-20)
(0.608693 -0.0570991 -4.90019e-20)
(0.633474 -0.0531512 2.57201e-20)
(0.656864 -0.0494671 -2.16825e-19)
(0.678903 -0.046006 7.7621e-20)
(0.585051 -0.0764805 1.35304e-19)
(0.611133 -0.0713587 3.57714e-20)
(0.635738 -0.0665846 5.26348e-20)
(0.658974 -0.0621251 1.21977e-19)
(0.68085 -0.0579342 -6.46464e-20)
(0.588193 -0.091504 1.11813e-19)
(0.614051 -0.0855081 -4.6354e-20)
(0.638448 -0.0799158 3.30894e-20)
(0.661503 -0.0746874 6.95327e-20)
(0.683188 -0.0697742 -2.55925e-20)
(0.591841 -0.10639 -2.13228e-19)
(0.617441 -0.0995295 -2.75275e-20)
(0.6416 -0.093128 -6.25528e-20)
(0.664447 -0.0871384 -4.02402e-20)
(0.685914 -0.081511 1.03824e-19)
(0.595988 -0.121118 1.38689e-19)
(0.621298 -0.113405 -1.57392e-19)
(0.645188 -0.106205 -3.39233e-20)
(0.667801 -0.0994626 1.24128e-19)
(0.689024 -0.0931302 -1.0073e-19)
(0.600626 -0.135671 -2.7696e-19)
(0.625615 -0.127118 1.16051e-19)
(0.649206 -0.119131 1.57457e-19)
(0.67156 -0.111645 -2.84249e-19)
(0.692512 -0.104618 9.70648e-22)
(0.605748 -0.150031 2.39734e-19)
(0.630384 -0.140651 2.8156e-20)
(0.653649 -0.131889 -8.07708e-21)
(0.675717 -0.123671 1.34957e-20)
(0.696373 -0.115959 -1.79718e-19)
(0.611346 -0.16418 6.73481e-20)
(0.635599 -0.153988 -1.99614e-19)
(0.658508 -0.144464 -2.43947e-19)
(0.680265 -0.135525 2.80466e-19)
(0.700601 -0.127141 1.75055e-19)
(0.61741 -0.178099 -2.56047e-19)
(0.641251 -0.167112 5.92717e-20)
(0.663775 -0.156842 1.26714e-19)
(0.685198 -0.147194 -1.56809e-19)
(0.705191 -0.138151 -3.18981e-20)
(0.64733 -0.180008 1.59454e-19)
(0.669444 -0.169007 -1.83836e-19)
(0.690507 -0.158663 1.05252e-19)
(0.710134 -0.148973 1.52004e-19)
(0.653828 -0.19266 -1.03497e-20)
(0.675504 -0.180945 -8.21279e-21)
(0.696184 -0.169919 -1.51815e-19)
(0.715425 -0.159597 -3.55728e-19)
(0.660734 -0.205054 -4.75327e-20)
(0.681947 -0.192643 -1.69937e-19)
(0.702221 -0.18095 6.49713e-20)
(0.721055 -0.17001 3.31354e-19)
(0.668037 -0.217174 1.15536e-19)
(0.688762 -0.204086 2.43959e-19)
(0.708608 -0.191742 3.12042e-20)
(0.727016 -0.180199 -3.28018e-19)
(0.675726 -0.229008 -2.94021e-19)
(0.695939 -0.215262 -5.71067e-20)
(0.715336 -0.202283 -4.85719e-20)
(0.733301 -0.190152 2.07914e-19)
(0.703468 -0.226158 -9.43746e-21)
(0.722395 -0.212562 2.23749e-19)
(0.739899 -0.199858 1.06632e-19)
(0.711337 -0.236764 -1.12201e-19)
(0.729774 -0.222567 -1.30146e-20)
(0.746803 -0.209307 1.29285e-19)
(0.719535 -0.247067 -7.20955e-21)
(0.737463 -0.232289 -2.27841e-19)
(0.754003 -0.218488 -9.82427e-20)
(0.72805 -0.257056 1.76156e-19)
(0.74545 -0.241717 1.69894e-19)
(0.761489 -0.22739 1.67974e-19)
(0.753726 -0.250842 -6.49386e-20)
(0.769253 -0.236005 -1.78639e-19)
(0.762277 -0.259655 -2.67731e-19)
(0.777283 -0.244323 1.22087e-19)
(0.771093 -0.268148 4.36285e-19)
(0.785571 -0.252337 9.36043e-20)
(0.794107 -0.260039 -6.02903e-20)
(0.80288 -0.267421 -2.54729e-19)
(0.811883 -0.274479 4.42425e-19)
(0.999957 0.00233041 0)
(0.998962 0.00726242 0)
(0.996983 0.0124644 0)
(0.994348 0.0179571 0)
(0.990932 0.0238126 0)
(0.987029 0.0301127 0)
(0.982445 0.036967 0)
(0.977521 0.0444951 0)
(0.972005 0.0528721 0)
(0.966353 0.06223 0)
(0.96024 0.0728122 0)
(0.954325 0.0847231 0)
(0.948154 0.098281 0)
(0.94273 0.113491 0)
(0.93734 0.130778 0)
(0.933577 0.14989 0)
(0.93015 0.171494 0)
(0.929754 0.194671 0)
(0.929788 0.220927 -2.26496e-28)
(0.935129 0.247223 2.40692e-28)
(0.94033 0.27889 0)
(0.999959 0.00243858 0)
(0.999018 0.00758308 0)
(0.997141 0.0129874 0)
(0.994657 0.0186782 0)
(0.991439 0.0247419 0)
(0.987798 0.0312421 0)
(0.983533 0.0383127 0)
(0.97902 0.0460342 0)
(0.973992 0.054615 0)
(0.968961 0.0641184 0)
(0.963568 0.0748384 0)
(0.958562 0.0867604 0)
(0.953419 0.100293 0)
(0.949282 0.115226 0)
(0.94529 0.13218 0)
(0.943266 0.150473 0)
(0.941615 0.171272 0)
(0.943418 0.192652 -9.88195e-29)
(0.945459 0.217561 1.05103e-28)
(0.953352 0.240236 -1.18632e-28)
(0.960158 0.270135 1.26126e-28)
(0.999959 0.00254675 0)
(0.999077 0.00790171 0)
(0.997313 0.0135105 0)
(0.994998 0.0194005 0)
(0.992002 0.0256743 0)
(0.98865 0.0323742 0)
(0.984738 0.0396593 0)
(0.98067 0.0475675 0)
(0.976164 0.0563424 0)
(0.971782 0.065972 0)
(0.967133 0.0768057 0)
(0.963037 0.0886962 0)
(0.958908 0.102156 0)
(0.95599 0.11673 0)
(0.953301 0.133269 0)
(0.952805 0.150604 0)
(0.952693 0.170464 0)
(0.956221 0.189886 0)
(0.959836 0.213161 0)
(0.969297 0.232425 0)
(0.977162 0.259548 0)
(0.999959 0.00265274 0)
(0.999139 0.00821264 0)
(0.997496 0.0140198 0)
(0.995361 0.0200994 0)
(0.992602 0.0265697 0)
(0.989559 0.0334518 0)
(0.986022 0.0409273 0)
(0.982419 0.0489938 0)
(0.978462 0.0579256 0)
(0.974744 0.0676402 0)
(0.970857 0.0785366 0)
(0.967661 0.090343 0)
(0.964538 0.103669 0)
(0.962765 0.117833 0)
(0.961315 0.133896 0)
(0.962148 0.15027 0)
(0.96342 0.16914 0)
(0.96826 0.186793 0)
(0.973189 0.208351 0)
(0.983481 0.224992 0)
(0.992278 0.249297 0)
(0.99996 0.00275431 0)
(0.999204 0.00850825 0)
(0.997688 0.0145016 0)
(0.995739 0.0207549 0)
(0.993229 0.0274017 0)
(0.990504 0.0344415 0)
(0.987359 0.0420757 0)
(0.984231 0.0502626 0)
(0.98084 0.059303 0)
(0.977784 0.0690466 0)
(0.974667 0.0799367 0)
(0.972342 0.0915844 0)
(0.970206 0.104687 0)
(0.969492 0.11836 0)
(0.969213 0.133845 0)
(0.97119 0.149219 0)
(0.973705 0.166993 0)
(0.979533 0.183001 0)
(0.985563 0.202766 0)
(0.996269 0.217248 0)
(1.00584 0.238912 0)
(0.999961 0.00285051 0)
(0.99927 0.00878562 0)
(0.997887 0.0149512 0)
(0.996129 0.0213609 0)
(0.993877 0.0281632 0)
(0.991475 0.0353351 0)
(0.988732 0.043096 0)
(0.98608 0.0513644 0)
(0.98326 0.0604651 0)
(0.980855 0.0701814 0)
(0.978501 0.0809967 0)
(0.977003 0.0924128 0)
(0.975818 0.105203 0)
(0.976066 0.118311 0)
(0.976871 0.133115 0)
(0.979818 0.147456 0)
(0.983417 0.164038 0)
(0.989985 0.178492 0)
(0.996894 0.196432 0)
(1.00777 0.209012 0)
(1.01786 0.228181 0)
(0.999963 0.00294074 0)
(0.999338 0.00904327 0)
(0.998093 0.0153662 0)
(0.996527 0.0219145 0)
(0.994541 0.0288506 0)
(0.992462 0.0361287 0)
(0.990127 0.0439837 0)
(0.987946 0.0522953 0)
(0.985697 0.061409 0)
(0.98392 0.0710453 0)
(0.98231 0.0817211 0)
(0.981587 0.092843 0)
(0.981298 0.105241 0)
(0.982409 0.11773 0)
(0.984188 0.13177 0)
(0.987949 0.145074 0)
(0.992458 0.160409 0)
(0.999566 0.173405 0)
(1.00714 0.18955 0)
(1.01799 0.20043 0)
(1.02836 0.217265 0)
(0.999966 0.00302442 0)
(0.999408 0.00927971 0)
(0.998303 0.0157443 0)
(0.996933 0.0224124 0)
(0.995215 0.0294597 0)
(0.99346 0.0368172 0)
(0.991534 0.0447332 0)
(0.989814 0.0530503 0)
(0.988126 0.0621302 0)
(0.986951 0.0716376 0)
(0.986052 0.0821133 0)
(0.986049 0.0928881 0)
(0.986586 0.104825 0)
(0.988461 0.116658 0)
(0.991093 0.129875 0)
(0.995525 0.142157 0)
(1.00077 0.156227 0)
(1.00825 0.167868 0)
(1.01628 0.182291 0)
(1.02698 0.191658 0)
(1.03742 0.206361 -8.52899e-30)
(0.999969 0.00310097 0)
(0.999478 0.00949341 0)
(0.998517 0.0160825 0)
(0.997342 0.022851 0)
(0.995896 0.0299859 0)
(0.994461 0.0373956 0)
(0.992941 0.0453391 0)
(0.99167 0.0536249 0)
(0.990526 0.0626257 0)
(0.989923 0.0719594 0)
(0.989693 0.0821789 0)
(0.990351 0.0925627 0)
(0.991634 0.103981 0)
(0.994177 0.115135 0)
(0.997539 0.127489 0)
(1.00251 0.138774 0)
(1.00833 0.151594 0)
(1.01604 0.161977 0)
(1.02435 0.174783 0)
(1.03478 0.18281 0)
(1.04516 0.195595 0)
(0.999973 0.00316981 0)
(0.99955 0.00968286 0)
(0.998734 0.0163785 0)
(0.997753 0.0232271 0)
(0.996579 0.030425 0)
(0.995459 0.0378599 0)
(0.994337 0.0457975 0)
(0.9935 0.0540169 0)
(0.992877 0.0628949 0)
(0.992813 0.0720148 0)
(0.993204 0.0819278 0)
(0.994462 0.0918851 0)
(0.996408 0.102738 0)
(0.999525 0.113201 0)
(1.00349 0.124674 0)
(1.00888 0.134994 0)
(1.01513 0.146603 0)
(1.02294 0.155822 0)
(1.03139 0.16713 0)
(1.04147 0.173972 0)
(1.05167 0.185047 0)
(0.999977 0.00323041 0)
(0.999621 0.00984672 0)
(0.99895 0.0166298 0)
(0.998164 0.0235378 0)
(0.997258 0.0307739 0)
(0.996447 0.0382072 0)
(0.995711 0.0461058 0)
(0.995292 0.0542257 0)
(0.995161 0.0629401 0)
(0.995601 0.0718108 0)
(0.996559 0.0813739 0)
(0.998355 0.0908769 0)
(1.00088 0.101133 0)
(1.00448 0.110899 0)
(1.00894 0.121491 0)
(1.01463 0.130885 0)
(1.02117 0.141336 0)
(1.02899 0.149484 0)
(1.03746 0.15942 0)
(1.04713 0.165215 0)
(1.05706 0.174769 0)
(0.99998 0.00328225 0)
(0.999693 0.00998379 0)
(0.999166 0.0168345 0)
(0.998572 0.0237809 0)
(0.997927 0.0310299 0)
(0.997418 0.0384354 0)
(0.997052 0.046263 0)
(0.997032 0.0542526 0)
(0.997362 0.0627661 0)
(0.998267 0.0713567 0)
(0.999736 0.080534 0)
(1.00201 0.0895617 0)
(1.00502 0.0991998 0)
(1.00902 0.108274 0)
(1.01386 0.117997 3.9275e-28)
(1.01977 0.126509 -4.17913e-28)
(1.02649 0.135869 0)
(1.03422 0.143036 0)
(1.04261 0.151725 -5.28515e-29)
(1.05183 0.1566 1.3875e-29)
(1.06142 0.164808 4.50031e-29)
(0.999984 0.0033249 0)
(0.999764 0.010093 0)
(0.999379 0.0169908 0)
(0.998973 0.0239545 0)
(0.998583 0.0311913 0)
(0.998366 0.0385434 0)
(0.998352 0.0462695 0)
(0.998707 0.0541003 0)
(0.999464 0.0623797 0)
(1.00079 0.0706637 0)
(1.00272 0.0794272 0)
(1.0054 0.0879653 0)
(1.00883 0.0969761 0)
(1.01314 0.10537 0)
(1.01827 0.11425 0)
(1.0243 0.121928 0)
(1.0311 0.13027 0)
(1.03868 0.136543 0)
(1.0469 0.144105 0)
(1.05566 0.148174 0)
(1.06486 0.155195 0)
(0.999987 0.00335797 0)
(0.999835 0.0101736 0)
(0.999587 0.0170974 0)
(0.999365 0.0240572 0)
(0.999221 0.0312569 0)
(0.999283 0.0385313 0)
(0.999601 0.0461272 0)
(1.00031 0.0537732 0)
(1.00145 0.0617895 0)
(1.00316 0.069745 0)
(1.00549 0.0780741 0)
(1.00852 0.0861143 0)
(1.01229 0.0944984 0)
(1.01684 0.102228 0)
(1.02217 0.110301 0)
(1.02824 0.117195 0)
(1.03504 0.124596 0)
(1.04242 0.130059 0)
(1.05041 0.13661 0)
(1.05869 0.139976 0)
(1.06747 0.145955 0)
(0.99999 0.00338115 0)
(0.999904 0.0102249 0)
(0.99979 0.0171534 0)
(0.999746 0.0240884 0)
(0.999835 0.0312268 0)
(1.00016 0.0384 0)
(1.00079 0.0458393 0)
(1.00182 0.053277 0)
(1.00332 0.061006 0)
(1.00537 0.0686154 0)
(1.00803 0.0764968 0)
(1.01136 0.0840365 0)
(1.01539 0.0918025 0)
(1.02012 0.0988905 0)
(1.02557 0.106197 0)
(1.03163 0.11236 0)
(1.03835 0.118896 0)
(1.04549 0.123631 0)
(1.0532 0.129279 0)
(1.06099 0.132035 0)
(1.06933 0.137102 0)
(0.999993 0.00339422 0)
(0.999971 0.0102464 0)
(0.999985 0.0171583 0)
(1.00011 0.0240477 0)
(1.00042 0.0311016 0)
(1.001 0.0381515 0)
(1.00191 0.0454103 0)
(1.00324 0.0526189 0)
(1.00505 0.0600412 0)
(1.00739 0.0672912 0)
(1.01035 0.0747179 0)
(1.01391 0.0817599 0)
(1.01814 0.0889233 0)
(1.02298 0.0953965 0)
(1.02848 0.101981 0)
(1.03447 0.107468 0)
(1.04107 0.113216 0)
(1.04793 0.117296 0)
(1.05533 0.122142 0)
(1.06264 0.124372 0)
(1.07053 0.128643 0)
(0.999995 0.00339706 0)
(1.00004 0.0102378 0)
(1.00017 0.0171121 0)
(1.00046 0.0239356 0)
(1.00098 0.0308828 0)
(1.00179 0.0377887 0)
(1.00296 0.0448458 0)
(1.00455 0.0518075 0)
(1.00664 0.0589079 0)
(1.00924 0.0657895 0)
(1.01242 0.0727603 0)
(1.01617 0.0793121 0)
(1.02054 0.0858939 0)
(1.02543 0.0917825 0)
(1.03093 0.0976934 0)
(1.03681 0.102558 0)
(1.04324 0.107591 0)
(1.0498 0.111088 0)
(1.05686 0.115225 0)
(1.0637 0.117001 0)
(1.07113 0.120582 5.99691e-30)
(0.999997 0.00338963 0)
(1.0001 0.0101992 0)
(1.00035 0.0170152 0)
(1.00079 0.023753 0)
(1.0015 0.030573 0)
(1.00252 0.0373156 0)
(1.00393 0.0441528 0)
(1.00576 0.0508525 0)
(1.00808 0.0576203 0)
(1.01089 0.0641283 0)
(1.01426 0.0706471 0)
(1.01814 0.0767204 0)
(1.0226 0.0827455 0)
(1.0275 0.0880825 0)
(1.03295 0.0933686 0)
(1.03867 0.097664 0)
(1.04489 0.102052 -9.63097e-29)
(1.05114 0.105032 1.02453e-28)
(1.05785 0.108545 0)
(1.06424 0.109933 0)
(1.07121 0.112915 0)
(0.999999 0.003372 0)
(1.00016 0.0101308 0)
(1.00051 0.0168685 0)
(1.0011 0.0235015 0)
(1.00198 0.0301751 0)
(1.0032 0.0367372 0)
(1.00481 0.043339 0)
(1.00685 0.0497644 0)
(1.00937 0.0561928 0)
(1.01235 0.0623262 0)
(1.01586 0.0684012 0)
(1.01983 0.0740111 0)
(1.02433 0.0795076 0)
(1.02919 0.0843274 0)
(1.03454 0.0890379 0)
(1.04009 0.0928153 0)
(1.04607 0.0966251 0)
(1.052 0.0991491 0)
(1.05835 0.102115 0)
(1.0643 0.103173 0)
(1.07083 0.105639 0)
(1 0.00334432 0)
(1.00021 0.0100331 0)
(1.00067 0.0166732 0)
(1.00138 0.0231834 0)
(1.00243 0.0296933 0)
(1.00381 0.0360591 0)
(1.00561 0.0424128 0)
(1.00782 0.0485549 0)
(1.0105 0.0546408 0)
(1.01361 0.0604016 0)
(1.01723 0.0660445 0)
(1.02124 0.0712094 0)
(1.02574 0.0762074 0)
(1.03053 0.0805455 0)
(1.03575 0.0847287 0)
(1.0411 0.0880375 0)
(1.04682 0.0913314 0)
(1.05243 0.0934544 0)
(1.05842 0.0959431 -1.36219e-29)
(1.06395 0.0967228 5.41289e-30)
(1.07005 0.0987444 9.64604e-30)
(1 0.00330685 0)
(1.00026 0.0099068 0)
(1.00081 0.016431 0)
(1.00164 0.0228013 0)
(1.00283 0.0291318 0)
(1.00436 0.035288 0)
(1.00632 0.0413836 0)
(1.00867 0.047236 0)
(1.01148 0.0529794 0)
(1.01469 0.0583732 0)
(1.01836 0.0635986 0)
(1.02239 0.0683389 0)
(1.02684 0.07287 0)
(1.03153 0.076762 0)
(1.0366 0.0804648 0)
(1.04173 0.0833519 0)
(1.04718 0.0861877 0)
(1.05247 0.0879602 0)
(1.0581 0.0900346 0)
(1.06323 0.0905807 0)
(1.06892 0.0922226 0)
(1 0.00325992 0)
(1.00031 0.00975289 0)
(1.00093 0.016144 0)
(1.00188 0.0223587 0)
(1.00318 0.0284961 0)
(1.00485 0.0344311 0)
(1.00693 0.0402611 0)
(1.0094 0.0458202 0)
(1.0123 0.0512242 0)
(1.01558 0.0562591 0)
(1.01928 0.061084 0)
(1.02328 0.0654219 0)
(1.02766 0.0695181 0)
(1.03223 0.0729995 0)
(1.03711 0.076267 0)
(1.04202 0.0787763 1.46983e-28)
(1.04719 0.0812074 -1.5638e-28)
(1.05216 0.0826752 0)
(1.05743 0.0843915 0)
(1.06219 0.0847435 0)
(1.06748 0.0860621 0)
(1 0.00320393 0)
(1.00035 0.00957261 0)
(1.00105 0.0158147 0)
(1.00208 0.0218592 0)
(1.0035 0.0277916 0)
(1.00527 0.033496 0)
(1.00746 0.0390555 0)
(1.01001 0.0443203 0)
(1.01298 0.0493904 0)
(1.01629 0.0540769 0)
(1.01998 0.0585201 0)
(1.02393 0.062479 0)
(1.02821 0.0661723 0)
(1.03264 0.0692777 0)
(1.03733 0.0721526 0)
(1.04199 0.0743255 0)
(1.04689 0.0764006 0)
(1.05155 0.0776051 0)
(1.05648 0.0790135 0)
(1.06088 0.0792058 0)
(1.06578 0.0802506 0)
(1.00001 0.00313939 0)
(1.00039 0.00936742 0)
(1.00115 0.0154459 0)
(1.00226 0.0213073 0)
(1.00376 0.0270245 0)
(1.00563 0.032491 0)
(1.00789 0.0377773 0)
(1.01051 0.042749 0)
(1.01351 0.0474931 0)
(1.01682 0.0518435 0)
(1.02048 0.055925 0)
(1.02436 0.0595289 0)
(1.02852 0.062851 0)
(1.03278 0.0656138 0)
(1.03726 0.0681365 0)
(1.04169 0.0700111 0)
(1.0463 0.0717747 0)
(1.05066 0.0727529 0)
(1.05526 0.0738981 0)
(1.05932 0.0739609 0)
(1.06387 0.0747752 -4.48079e-30)
(1.00001 0.00306685 0)
(1.00042 0.00913901 0)
(1.00123 0.0150406 0)
(1.00241 0.0207075 0)
(1.00398 0.0262013 0)
(1.00592 0.0314245 0)
(1.00824 0.0364371 -2.02812e-29)
(1.01089 0.0411191 2.15934e-29)
(1.01391 0.0455467 0)
(1.0172 0.049575 0)
(1.02079 0.0533156 8.86527e-29)
(1.02458 0.0565888 -9.43678e-29)
(1.0286 0.0595706 0)
(1.03269 0.0620228 0)
(1.03696 0.0642307 0)
(1.04114 0.0658423 0)
(1.04548 0.0673346 0)
(1.04954 0.0681199 0)
(1.05382 0.0690414 0)
(1.05757 0.0690005 0)
(1.06177 0.0696223 0)
(1.00001 0.00298691 0)
(1.00044 0.00888923 0)
(1.0013 0.014602 0)
(1.00253 0.0200647 0)
(1.00416 0.0253287 0)
(1.00614 0.0303052 0)
(1.0085 0.0350455 0)
(1.01117 0.039443 0)
(1.01417 0.0435653 0)
(1.01742 0.0472865 0)
(1.02093 0.0507074 0)
(1.0246 0.0536741 0)
(1.02848 0.0563452 0)
(1.03238 0.0585172 0)
(1.03643 0.0604453 0)
(1.04037 0.061826 0)
(1.04444 0.0630833 0)
(1.04823 0.063705 0)
(1.0522 0.0644377 0)
(1.05566 0.0643158 0)
(1.05954 0.064778 0)
(1.00001 0.00290024 0)
(1.00046 0.00862011 1.40692e-29)
(1.00135 0.0141339 -1.49819e-29)
(1.00263 0.0193841 0)
(1.0043 0.0244137 0)
(1.00631 0.0291419 0)
(1.00868 0.0336129 0)
(1.01134 0.0377328 0)
(1.01431 0.041562 0)
(1.01749 0.0449922 0)
(1.02092 0.0481146 0)
(1.02446 0.0507985 0)
(1.02817 0.0531873 0)
(1.03188 0.0551075 0)
(1.03571 0.0567878 0)
(1.03942 0.0579671 0)
(1.04322 0.0590218 0)
(1.04674 0.0595062 0)
(1.05043 0.0600807 -1.76342e-29)
(1.05361 0.059897 6.49698e-30)
(1.05718 0.0602281 1.30294e-29)
(1.00001 0.00280755 0)
(1.00048 0.00833378 0)
(1.0014 0.0136398 0)
(1.0027 0.0186711 0)
(1.00439 0.0234632 0)
(1.00642 0.0279432 0)
(1.00878 0.0321496 0)
(1.01142 0.0360001 0)
(1.01434 0.0395493 0)
(1.01744 0.0427048 0)
(1.02075 0.0455499 0)
(1.02416 0.047974 0)
(1.0277 0.0501072 0)
(1.03122 0.0518023 0)
(1.03483 0.0532643 0)
(1.03831 0.0542686 0)
(1.04185 0.0551498 0)
(1.04512 0.0555198 0)
(1.04853 0.0559628 0)
(1.05146 0.0557338 0)
(1.05475 0.0559586 0)
(1.00001 0.00270956 0)
(1.00049 0.00803251 0)
(1.00142 0.0131235 0)
(1.00275 0.017931 0)
(1.00445 0.0224843 0)
(1.00647 0.0267178 0)
(1.00882 0.0306655 0)
(1.01141 0.0342558 0)
(1.01426 0.0375389 0)
(1.01727 0.0404363 0)
(1.02046 0.0430247 0)
(1.02372 0.0452111 0)
(1.02708 0.0471139 0)
(1.03042 0.0486085 0)
(1.03381 0.0498788 0)
(1.03706 0.0507321 0)
(1.04036 0.0514654 0)
(1.04339 0.0517413 0)
(1.04654 0.052076 0)
(1.04923 0.0518157 0)
(1.05225 0.0519553 0)
(1.00001 0.00260705 0)
(1.0005 0.0077186 0)
(1.00144 0.0125889 0)
(1.00277 0.0171693 0)
(1.00446 0.0214837 0)
(1.00647 0.0254739 0)
(1.00878 0.0291699 0)
(1.01132 0.0325103 0)
(1.01409 0.0355415 0)
(1.01699 0.0381974 0)
(1.02005 0.040549 0)
(1.02316 0.0425188 0)
(1.02635 0.0442146 0)
(1.02949 0.0455313 0)
(1.03267 0.0466341 0)
(1.0357 0.0473576 0)
(1.03877 0.0479659 0)
(1.04157 0.0481651 0)
(1.04448 0.0484118 0)
(1.04695 0.0481318 0)
(1.04973 0.0482043 -5.50907e-30)
(1.00001 0.00250077 0)
(1.0005 0.00739437 0)
(1.00144 0.0120398 0)
(1.00277 0.0163912 0)
(1.00445 0.0204684 0)
(1.00643 0.0242195 0)
(1.00869 0.0276719 0)
(1.01116 0.0307732 0)
(1.01383 0.0335667 9.96387e-29)
(1.01663 0.0359975 -1.06075e-28)
(1.01955 0.0381315 0)
(1.0225 0.0399045 0)
(1.02551 0.0414149 0)
(1.02846 0.0425745 0)
(1.03143 0.0435316 0)
(1.03426 0.0441444 0)
(1.0371 0.0446475 0)
(1.03969 0.0447852 0)
(1.04237 0.0449611 0)
(1.04464 0.0446712 0)
(1.04718 0.0446918 0)
(1.00001 0.00239149 0)
(1.0005 0.00706214 0)
(1.00144 0.01148 0)
(1.00275 0.0156022 0)
(1.0044 0.0194447 0)
(1.00634 0.0229621 0)
(1.00854 0.0261797 0)
(1.01093 0.0290532 0)
(1.01351 0.0316233 0)
(1.01618 0.033845 0)
(1.01896 0.0357796 0)
(1.02175 0.0373744 0)
(1.02458 0.0387195 0)
(1.02735 0.0397407 0)
(1.03013 0.0405715 0)
(1.03275 0.0410903 0)
(1.03538 0.0415057 0)
(1.03778 0.041595 0)
(1.04024 0.0417148 0)
(1.04232 0.0414228 0)
(1.04465 0.0414046 0)
(1.00001 0.00227998 0)
(1.0005 0.00672419 0)
(1.00142 0.0109133 0)
(1.00271 0.0148071 0)
(1.00433 0.0184189 0)
(1.00622 0.0217091 0)
(1.00835 0.0247012 0)
(1.01065 0.0273584 0)
(1.01311 0.0297192 0)
(1.01566 0.0317472 0)
(1.01829 0.0334996 0)
(1.02093 0.0349336 0)
(1.02359 0.0361314 0)
(1.02618 0.0370312 0)
(1.02876 0.037753 0)
(1.0312 0.0381926 0)
(1.03363 0.0385353 0)
(1.03584 0.0385872 0)
(1.0381 0.0386635 -1.89018e-29)
(1.04 0.038376 4.37589e-30)
(1.04214 0.0383296 1.67173e-29)
(1.00001 0.00216699 0)
(1.00049 0.00638275 0)
(1.00139 0.0103432 0)
(1.00265 0.0140108 0)
(1.00423 0.0173968 0)
(1.00606 0.0204668 0)
(1.00811 0.0232432 0)
(1.01032 0.0256958 0)
(1.01267 0.0278612 0)
(1.01509 0.0297103 0)
(1.01758 0.0312967 0)
(1.02005 0.0325858 0)
(1.02255 0.0336529 0)
(1.02496 0.0344465 0)
(1.02736 0.0350746 0)
(1.02961 0.0354478 0)
(1.03186 0.0357307 0)
(1.03389 0.0357547 0)
(1.03597 0.0357979 0)
(1.03771 0.0355199 0)
(1.03967 0.0354542 0)
(1.00001 0.00205323 0)
(1.00048 0.00603998 0)
(1.00136 0.00977314 0)
(1.00258 0.0132179 0)
(1.00411 0.0163838 0)
(1.00587 0.0192415 0)
(1.00784 0.0218123 0)
(1.00995 0.0240719 0)
(1.01218 0.0260551 0)
(1.01447 0.0277395 0)
(1.01681 0.0291748 0)
(1.01914 0.0303337 0)
(1.02146 0.031285 0)
(1.02371 0.031986 0)
(1.02593 0.0325338 0)
(1.02802 0.0328517 0)
(1.03009 0.033086 0)
(1.03196 0.0330898 0)
(1.03387 0.0331087 0)
(1.03546 0.032844 0)
(1.03725 0.0327662 0)
(1.00001 0.0019394 0)
(1.00047 0.0056979 0)
(1.00132 0.00920632 0)
(1.0025 0.0124326 0)
(1.00397 0.0153849 0)
(1.00566 0.0180385 0)
(1.00754 0.0204139 0)
(1.00955 0.022492 0)
(1.01166 0.024306 0)
(1.01382 0.0258388 0)
(1.01602 0.027137 0)
(1.01819 0.0281791 0)
(1.02036 0.029028 0)
(1.02244 0.0296485 0)
(1.0245 0.0301276 0)
(1.02643 0.0303998 0)
(1.02834 0.0305949 0)
(1.03005 0.0305849 0)
(1.0318 0.0305868 0)
(1.03326 0.0303382 0)
(1.03489 0.0302541 -1.00741e-29)
(1.00001 0.00182615 0)
(1.00045 0.00535841 0)
(1.00127 0.00864574 0)
(1.00241 0.0116587 0)
(1.00382 0.0144046 0)
(1.00543 0.0168628 0)
(1.00722 0.019053 0)
(1.00912 0.0209609 0)
(1.01111 0.0226179 0)
(1.01314 0.0240116 0)
(1.0152 0.0251854 0)
(1.01723 0.0261229 0)
(1.01924 0.0268814 0)
(1.02118 0.0274319 0)
(1.02308 0.0278525 0)
(1.02486 0.0280871 0)
(1.02661 0.0282509 0)
(1.02818 0.0282324 0)
(1.02978 0.028223 0)
(1.03112 0.0279926 0)
(1.03261 0.0279067 0)
(1.00001 0.00171407 0)
(1.00043 0.00502327 0)
(1.00122 0.00809409 0)
(1.00231 0.0108998 0)
(1.00366 0.0134469 0)
(1.00519 0.0157185 0)
(1.00688 0.0177338 0)
(1.00868 0.0194823 0)
(1.01055 0.020994 0)
(1.01245 0.0222602 0)
(1.01437 0.0233215 0)
(1.01625 0.0241652 0)
(1.01812 0.0248439 0)
(1.01991 0.0253337 0)
(1.02167 0.0257046 0)
(1.02331 0.0259085 0)
(1.02492 0.0260475 0)
(1.02636 0.0260246 0)
(1.02782 0.0260085 0)
(1.02905 0.0257975 -4.72935e-30)
(1.03041 0.0257134 5.02804e-30)
(1.00001 0.00160372 0)
(1.00041 0.00469406 0)
(1.00117 0.00755383 0)
(1.00221 0.0101589 0)
(1.00348 0.0125152 0)
(1.00494 0.0146093 0)
(1.00653 0.0164598 0)
(1.00822 0.0180594 0)
(1.00997 0.0194367 0)
(1.01175 0.0205863 0)
(1.01354 0.0215456 0)
(1.01529 0.0223055 0)
(1.01702 0.0229138 0)
(1.01867 0.0233509 0)
(1.02029 0.0236795 0)
(1.02179 0.0238584 0)
(1.02327 0.0239781 0)
(1.0246 0.023954 0)
(1.02593 0.0239349 -9.88181e-30)
(1.02706 0.0237439 1.05082e-29)
(1.02829 0.023664 0)
(1.00001 0.00149558 0)
(1.0004 0.0043722 0)
(1.00111 0.00702709 0)
(1.0021 0.00943865 0)
(1.0033 0.0116125 0)
(1.00468 0.0135382 0)
(1.00618 0.0152337 0)
(1.00776 0.0166945 0)
(1.0094 0.0179478 0)
(1.01105 0.0189906 0)
(1.01271 0.0198576 0)
(1.01433 0.0205425 0)
(1.01593 0.0210886 0)
(1.01746 0.0214799 0)
(1.01894 0.0217726 0)
(1.02033 0.0219312 0)
(1.02168 0.022036 0)
(1.0229 0.0220132 0)
(1.02412 0.0219937 0)
(1.02515 0.0218229 0)
(1.02627 0.0217491 -7.3307e-30)
(1.00001 0.00139009 0)
(1.00038 0.0040589 0)
(1.00105 0.00651572 0)
(1.00198 0.00874139 0)
(1.00312 0.0107413 0)
(1.00441 0.0125077 0)
(1.00582 0.0140576 0)
(1.00729 0.0153893 0)
(1.00882 0.0165281 0)
(1.01036 0.0174732 0)
(1.01189 0.0182567 0)
(1.0134 0.0188745 0)
(1.01487 0.0193655 0)
(1.01628 0.0197171 0)
(1.01764 0.0199791 0)
(1.01891 0.0201214 0)
(1.02015 0.0202146 0)
(1.02127 0.0201949 0)
(1.02238 0.0201771 0)
(1.02332 0.020026 0)
(1.02435 0.0199596 0)
(1.00001 0.00128762 0)
(1.00035 0.00375521 0)
(1.001 0.00602127 0)
(1.00187 0.00806895 0)
(1.00294 0.00990353 0)
(1.00415 0.0115194 0)
(1.00546 0.0129331 0)
(1.00683 0.0141447 0)
(1.00825 0.0151779 0)
(1.00968 0.0160338 0)
(1.0111 0.0167416 0)
(1.01248 0.0172991 0)
(1.01384 0.0177414 0)
(1.01513 0.0180582 0)
(1.01639 0.018294 0)
(1.01755 0.018423 0)
(1.01869 0.0185076 0)
(1.01971 0.018492 0)
(1.02073 0.0184773 0)
(1.02159 0.0183452 0)
(1.02252 0.0182869 0)
(1.00001 0.00118848 0)
(1.00033 0.00346198 0)
(1.00094 0.00554497 0)
(1.00176 0.00742276 0)
(1.00276 0.00910058 0)
(1.00388 0.0105747 0)
(1.00511 0.011861 0)
(1.00638 0.012961 0)
(1.0077 0.0138971 0)
(1.00902 0.0146713 0)
(1.01033 0.0153105 0)
(1.01161 0.0158137 0)
(1.01285 0.0162126 0)
(1.01404 0.016499 0)
(1.01519 0.0167123 0)
(1.01626 0.0168304 0)
(1.0173 0.0169083 0)
(1.01823 0.0168976 0)
(1.01916 0.0168868 1.42045e-29)
(1.01995 0.0167729 -1.12832e-30)
(1.0208 0.0167228 -1.48591e-29)
(1.00001 0.0010929 0)
(1.00031 0.00317989 0)
(1.00088 0.00508776 0)
(1.00164 0.00680389 0)
(1.00258 0.00833343 0)
(1.00363 0.00967431 0)
(1.00476 0.0108416 0)
(1.00595 0.0118382 0)
(1.00716 0.0126846 0)
(1.00838 0.013384 0)
(1.00959 0.0139608 0)
(1.01076 0.0144152 0)
(1.01191 0.0147754 0)
(1.013 0.0150349 0)
(1.01405 0.0152286 0)
(1.01503 0.0153377 0)
(1.01598 0.0154105 0)
(1.01683 0.015405 0)
(1.01768 0.0153986 0)
(1.01841 0.0153016 0)
(1.01918 0.0152597 0)
(1.00001 0.00100108 0)
(1.00029 0.0029094 0)
(1.00082 0.00465028 0)
(1.00153 0.00621298 0)
(1.0024 0.00760262 0)
(1.00338 0.00881846 0)
(1.00443 0.0098748 0)
(1.00552 0.0107753 0)
(1.00665 0.0115391 0)
(1.00777 0.01217 0)
(1.00888 0.01269 0)
(1.00996 0.0131001 -1.11853e-29)
(1.01101 0.0134256 1.19054e-29)
(1.01201 0.0136612 -1.12414e-29)
(1.01297 0.0138377 1.19629e-29)
(1.01387 0.0139393 0)
(1.01473 0.014008 0)
(1.01552 0.0140077 0)
(1.01629 0.0140058 0)
(1.01696 0.0139244 0)
(1.01766 0.0138904 1.91391e-29)
(1 0.000913122 0)
(1.00027 0.00265082 0)
(1.00076 0.00423289 0)
(1.00143 0.00565034 0)
(1.00223 0.00690822 0)
(1.00313 0.00800689 0)
(1.00411 0.0089598 0)
(1.00512 0.00977127 0)
(1.00615 0.0104589 0)
(1.00718 0.0110268 0)
(1.00821 0.011495 0)
(1.0092 0.0118649 0)
(1.01016 0.0121589 0)
(1.01108 0.0123731 0)
(1.01196 0.0125344 0)
(1.01278 0.0126293 0)
(1.01357 0.0126947 0)
(1.01429 0.0126993 0)
(1.015 0.0127017 0)
(1.01561 0.0126345 0)