/*--------------------------------*- C++ -*----------------------------------*\
  =========                 |
  \\      /  F ield         | OpenFOAM: The Open Source CFD Toolbox
   \\    /   O peration     | Website:  https://openfoam.org
    \\  /    A nd           | Version:  7
     \\/     M anipulation  |
\*---------------------------------------------------------------------------*/
FoamFile
{
    version     2.0;
    format      ascii;
    class       volScalarField;
    location    "80";
    object      p;
}
// * * * * * * * * * * * * * * * * * * * * * * * * * * * * * * * * * * * * * //

dimensions      [0 2 -2 0 0 0 0];

internalField   nonuniform List<scalar> 
20050
(
-0.327615
-0.32946
-0.330377
-0.331085
-0.331648
-0.332111
-0.33253
-0.332939
-0.333354
-0.333784
-0.334237
-0.334732
-0.335303
-0.336002
-0.336927
-0.329037
-0.331032
-0.332036
-0.33283
-0.333486
-0.334049
-0.334577
-0.335099
-0.335628
-0.336169
-0.336722
-0.337294
-0.337909
-0.338609
-0.339466
-0.330605
-0.332735
-0.333819
-0.334696
-0.335441
-0.336103
-0.336737
-0.337373
-0.338018
-0.338669
-0.339321
-0.339971
-0.340628
-0.341324
-0.342102
-0.332331
-0.334577
-0.335733
-0.336686
-0.337518
-0.338276
-0.339018
-0.339766
-0.340527
-0.341289
-0.342041
-0.342767
-0.343466
-0.344157
-0.344843
-0.334222
-0.336563
-0.337782
-0.338806
-0.33972
-0.340573
-0.34142
-0.342282
-0.343158
-0.344033
-0.344883
-0.345686
-0.346427
-0.347108
-0.347694
-0.336283
-0.338697
-0.339969
-0.341057
-0.342048
-0.342993
-0.343944
-0.344919
-0.345911
-0.346898
-0.347848
-0.348725
-0.349508
-0.350176
-0.35065
-0.338518
-0.34098
-0.342294
-0.343437
-0.344502
-0.345535
-0.346588
-0.347675
-0.348783
-0.349881
-0.350929
-0.35188
-0.352702
-0.353352
-0.353703
-0.340927
-0.343411
-0.344755
-0.345946
-0.347077
-0.348194
-0.349348
-0.350545
-0.351767
-0.352976
-0.35412
-0.355139
-0.355997
-0.356623
-0.356832
-0.343507
-0.345984
-0.347346
-0.348576
-0.349767
-0.350965
-0.352215
-0.35352
-0.354854
-0.356171
-0.357407
-0.35849
-0.359377
-0.359968
-0.36001
-0.346251
-0.348695
-0.350062
-0.35132
-0.352563
-0.353836
-0.355178
-0.356588
-0.358031
-0.359452
-0.360775
-0.361912
-0.362818
-0.363364
-0.363202
-0.349151
-0.351533
-0.352891
-0.354167
-0.355455
-0.356795
-0.358225
-0.359734
-0.361282
-0.362802
-0.364204
-0.365385
-0.366295
-0.366779
-0.366362
-0.352194
-0.354486
-0.355821
-0.357105
-0.358427
-0.359828
-0.361337
-0.36294
-0.364587
-0.366199
-0.367671
-0.368881
-0.369776
-0.370182
-0.369437
-0.355364
-0.35754
-0.358839
-0.360118
-0.361465
-0.362916
-0.364498
-0.366187
-0.367924
-0.369619
-0.37115
-0.372373
-0.373228
-0.373539
-0.372369
-0.358645
-0.360679
-0.361928
-0.36319
-0.364549
-0.366041
-0.367684
-0.369449
-0.371268
-0.373035
-0.374613
-0.37583
-0.376614
-0.376816
-0.375096
-0.362016
-0.363885
-0.36507
-0.366301
-0.36766
-0.36918
-0.370873
-0.372703
-0.374592
-0.376419
-0.378029
-0.379219
-0.379894
-0.379979
-0.377546
-0.365457
-0.36714
-0.368247
-0.369433
-0.370778
-0.372311
-0.37404
-0.375922
-0.377866
-0.37974
-0.381367
-0.382507
-0.383029
-0.383
-0.379599
-0.368945
-0.370425
-0.371441
-0.372567
-0.373881
-0.375411
-0.37716
-0.379076
-0.381061
-0.382965
-0.384593
-0.385663
-0.385992
-0.385895
-0.381115
-0.372459
-0.373721
-0.374632
-0.375683
-0.376949
-0.378458
-0.380207
-0.382139
-0.384145
-0.386061
-0.387671
-0.388653
-0.388753
-0.388637
-0.382509
-0.375978
-0.37701
-0.377803
-0.378763
-0.379962
-0.381429
-0.383157
-0.385082
-0.387087
-0.388994
-0.390566
-0.391449
-0.391296
-0.390862
-0.383765
-0.379481
-0.380276
-0.380939
-0.381791
-0.382903
-0.384304
-0.385986
-0.38788
-0.389859
-0.391733
-0.393244
-0.394007
-0.393608
-0.392841
-0.384545
-0.382949
-0.383505
-0.384027
-0.384753
-0.385756
-0.387067
-0.388675
-0.390508
-0.392433
-0.394246
-0.395671
-0.396295
-0.395614
-0.394592
-0.38484
-0.38637
-0.386684
-0.387055
-0.387638
-0.388509
-0.389702
-0.391207
-0.392949
-0.394788
-0.396509
-0.39782
-0.398283
-0.397279
-0.396054
-0.3847
-0.389731
-0.389807
-0.390016
-0.390439
-0.391153
-0.392202
-0.393572
-0.395189
-0.396908
-0.398503
-0.399667
-0.399944
-0.398586
-0.397184
-0.384159
-0.393024
-0.392869
-0.392907
-0.393152
-0.393687
-0.394561
-0.395764
-0.397221
-0.398783
-0.400216
-0.401199
-0.401259
-0.399524
-0.397942
-0.383263
-0.396249
-0.39587
-0.395729
-0.395779
-0.39611
-0.396781
-0.397784
-0.399046
-0.400415
-0.401647
-0.40241
-0.402216
-0.400094
-0.398281
-0.382075
-0.399408
-0.398815
-0.398486
-0.398325
-0.39843
-0.398869
-0.399641
-0.400673
-0.401812
-0.402805
-0.40331
-0.402816
-0.40031
-0.398155
-0.380682
-0.402509
-0.401711
-0.401188
-0.4008
-0.400657
-0.400838
-0.401348
-0.402118
-0.402992
-0.403709
-0.40392
-0.403071
-0.400202
-0.397516
-0.379174
-0.405566
-0.404572
-0.403848
-0.403219
-0.402808
-0.402707
-0.402928
-0.403406
-0.403983
-0.40439
-0.40427
-0.403007
-0.399811
-0.39629
-0.377537
-0.408596
-0.407414
-0.406483
-0.4056
-0.404904
-0.404499
-0.404407
-0.404566
-0.404818
-0.404883
-0.4044
-0.402672
-0.3992
-0.39438
-0.375603
-0.411624
-0.410258
-0.409113
-0.407965
-0.406968
-0.406242
-0.405816
-0.405635
-0.405536
-0.40523
-0.404354
-0.402133
-0.398461
-0.391883
-0.373929
-0.414677
-0.413127
-0.411761
-0.410338
-0.409028
-0.407966
-0.407191
-0.406649
-0.406176
-0.405471
-0.404171
-0.401445
-0.397618
-0.389384
-0.375717
-0.417783
-0.416047
-0.414454
-0.412747
-0.411115
-0.409705
-0.408567
-0.407648
-0.406779
-0.405646
-0.403883
-0.400629
-0.396516
-0.387373
-0.384111
-0.420976
-0.419045
-0.417217
-0.415219
-0.413257
-0.411492
-0.40998
-0.40867
-0.407382
-0.405788
-0.403514
-0.399695
-0.395101
-0.385393
-0.383158
-0.424288
-0.42215
-0.420079
-0.417783
-0.415485
-0.41336
-0.411466
-0.409749
-0.408018
-0.405925
-0.403085
-0.398645
-0.393362
-0.383098
-0.379666
-0.427753
-0.425389
-0.423067
-0.420467
-0.41783
-0.415339
-0.413055
-0.410916
-0.408714
-0.40608
-0.40261
-0.397479
-0.391356
-0.380499
-0.37534
-0.431403
-0.42879
-0.426206
-0.423298
-0.420318
-0.417459
-0.414777
-0.412197
-0.409491
-0.406266
-0.402098
-0.396201
-0.38913
-0.377632
-0.370558
-0.435267
-0.432378
-0.429523
-0.4263
-0.422975
-0.419743
-0.416652
-0.413609
-0.41036
-0.406489
-0.401552
-0.394815
-0.386725
-0.374535
-0.365628
-0.439372
-0.436176
-0.433038
-0.429495
-0.425822
-0.422212
-0.418699
-0.415166
-0.411329
-0.406749
-0.400971
-0.393324
-0.384172
-0.371255
-0.360699
-0.44374
-0.440205
-0.436772
-0.432904
-0.428878
-0.424883
-0.42093
-0.416871
-0.412393
-0.407037
-0.40035
-0.39173
-0.381497
-0.367834
-0.355849
-0.448392
-0.444483
-0.440742
-0.436542
-0.432157
-0.427765
-0.423348
-0.418724
-0.413546
-0.407343
-0.399677
-0.390035
-0.378721
-0.364309
-0.351107
-0.45334
-0.449021
-0.444962
-0.440421
-0.43567
-0.430866
-0.425955
-0.420716
-0.414771
-0.407649
-0.398942
-0.388238
-0.375856
-0.360707
-0.346474
-0.458594
-0.453831
-0.44944
-0.444551
-0.439423
-0.434186
-0.428744
-0.422833
-0.416049
-0.407934
-0.39813
-0.386337
-0.372911
-0.357047
-0.341939
-0.464158
-0.458919
-0.454184
-0.448938
-0.443418
-0.437723
-0.431704
-0.425054
-0.417356
-0.408175
-0.397225
-0.384329
-0.369891
-0.353339
-0.337482
-0.470033
-0.464286
-0.459197
-0.453583
-0.447654
-0.441465
-0.434815
-0.427355
-0.418661
-0.408346
-0.396211
-0.382209
-0.366794
-0.349587
-0.333079
-0.476212
-0.46993
-0.464477
-0.458484
-0.452123
-0.4454
-0.438055
-0.429705
-0.419933
-0.40842
-0.395072
-0.379969
-0.363618
-0.345788
-0.328706
-0.482686
-0.475845
-0.470019
-0.463634
-0.456814
-0.449508
-0.441395
-0.432067
-0.421136
-0.408369
-0.393789
-0.377603
-0.360355
-0.341935
-0.324338
-0.489438
-0.482019
-0.475814
-0.469021
-0.461708
-0.45376
-0.444799
-0.434403
-0.422233
-0.408165
-0.392346
-0.375098
-0.356996
-0.338017
-0.31995
-0.496449
-0.488437
-0.481846
-0.474628
-0.466781
-0.458125
-0.448226
-0.436668
-0.423186
-0.40778
-0.390725
-0.372445
-0.353529
-0.334023
-0.315519
-0.503691
-0.495077
-0.488095
-0.480431
-0.472004
-0.462562
-0.451631
-0.438818
-0.423957
-0.407186
-0.388907
-0.369629
-0.349941
-0.329935
-0.311022
-0.511131
-0.501912
-0.494534
-0.4864
-0.477338
-0.467026
-0.454961
-0.440802
-0.424505
-0.406356
-0.386873
-0.366635
-0.346215
-0.325737
-0.306437
-0.518732
-0.508908
-0.501131
-0.492497
-0.482737
-0.471464
-0.458163
-0.442573
-0.424793
-0.405263
-0.384606
-0.363447
-0.342335
-0.321412
-0.301741
-0.526448
-0.516027
-0.507845
-0.498678
-0.48815
-0.475816
-0.461177
-0.444078
-0.424784
-0.403882
-0.382085
-0.360048
-0.338281
-0.316938
-0.296915
-0.534228
-0.523221
-0.51463
-0.50489
-0.493516
-0.480019
-0.463942
-0.44527
-0.42444
-0.402185
-0.37929
-0.356418
-0.334035
-0.312298
-0.291937
-0.542013
-0.530438
-0.52143
-0.511073
-0.49877
-0.484005
-0.466398
-0.446097
-0.423726
-0.400148
-0.376199
-0.352538
-0.329577
-0.30747
-0.286789
-0.549738
-0.537618
-0.528184
-0.51716
-0.503838
-0.487702
-0.46848
-0.446512
-0.422608
-0.397743
-0.372791
-0.348386
-0.324886
-0.302436
-0.28145
-0.557333
-0.544693
-0.534822
-0.523076
-0.508643
-0.491036
-0.470127
-0.446468
-0.42105
-0.394947
-0.369045
-0.343943
-0.319942
-0.297174
-0.275903
-0.56472
-0.551592
-0.541271
-0.528741
-0.513104
-0.493932
-0.471277
-0.445919
-0.419022
-0.391733
-0.364937
-0.339187
-0.314724
-0.291666
-0.270129
-0.571816
-0.558235
-0.547446
-0.53407
-0.517136
-0.496314
-0.471872
-0.444824
-0.41649
-0.388076
-0.360445
-0.334096
-0.309211
-0.285892
-0.264111
-0.578534
-0.564537
-0.553262
-0.538973
-0.520653
-0.49811
-0.471854
-0.443139
-0.413426
-0.383952
-0.355546
-0.328649
-0.303384
-0.279834
-0.257834
-0.584782
-0.570411
-0.558627
-0.543358
-0.523569
-0.499246
-0.47117
-0.440827
-0.409799
-0.379335
-0.350219
-0.322825
-0.297224
-0.273474
-0.251283
-0.590466
-0.575763
-0.563447
-0.547131
-0.525798
-0.499653
-0.469767
-0.43785
-0.405581
-0.374203
-0.344441
-0.316604
-0.290711
-0.266795
-0.244442
-0.59549
-0.580498
-0.567625
-0.550197
-0.527257
-0.499266
-0.467599
-0.434175
-0.400746
-0.368532
-0.338193
-0.309967
-0.283829
-0.259782
-0.237301
-0.599755
-0.584519
-0.571062
-0.552464
-0.527866
-0.498024
-0.464621
-0.429769
-0.395269
-0.362301
-0.331453
-0.302897
-0.276561
-0.252421
-0.229847
-0.603164
-0.58773
-0.573663
-0.55384
-0.527548
-0.495869
-0.460793
-0.424603
-0.389127
-0.355489
-0.324203
-0.295374
-0.268892
-0.244699
-0.22207
-0.605619
-0.590033
-0.57533
-0.554238
-0.526233
-0.492749
-0.45608
-0.418651
-0.382298
-0.348078
-0.316427
-0.287386
-0.260808
-0.236602
-0.21396
-0.607027
-0.591334
-0.575973
-0.553576
-0.523856
-0.488618
-0.450447
-0.411889
-0.374762
-0.34005
-0.308108
-0.278917
-0.252297
-0.228122
-0.205509
-0.607297
-0.591542
-0.575502
-0.551776
-0.520357
-0.483436
-0.443869
-0.404297
-0.366504
-0.331389
-0.299233
-0.269956
-0.243349
-0.219251
-0.196712
-0.606343
-0.59057
-0.573835
-0.548769
-0.515686
-0.477166
-0.436322
-0.395858
-0.357508
-0.322084
-0.28979
-0.260491
-0.233953
-0.209982
-0.187574
-0.604084
-0.588337
-0.570896
-0.544492
-0.509797
-0.469781
-0.427786
-0.386557
-0.347762
-0.312124
-0.27977
-0.250513
-0.2241
-0.200311
-0.178099
-0.600447
-0.584768
-0.566616
-0.538891
-0.502653
-0.461257
-0.418247
-0.376384
-0.337258
-0.301501
-0.269165
-0.240016
-0.213781
-0.190225
-0.168252
-0.595364
-0.579794
-0.560934
-0.531918
-0.494223
-0.451577
-0.407695
-0.365332
-0.325991
-0.290209
-0.257972
-0.228997
-0.203
-0.179714
-0.157927
-0.588778
-0.573357
-0.553797
-0.523537
-0.484488
-0.44073
-0.396124
-0.353398
-0.313957
-0.278247
-0.246189
-0.217458
-0.191772
-0.168803
-0.147052
-0.580639
-0.565405
-0.545164
-0.513719
-0.473431
-0.428711
-0.383535
-0.340582
-0.301157
-0.265616
-0.233817
-0.205402
-0.1801
-0.157532
-0.135904
-0.570905
-0.555898
-0.535001
-0.502445
-0.461046
-0.415521
-0.36993
-0.326888
-0.287595
-0.252318
-0.220858
-0.192832
-0.167969
-0.145746
-0.124609
-0.559547
-0.544803
-0.523286
-0.489705
-0.447334
-0.401167
-0.355319
-0.312326
-0.273278
-0.23836
-0.207322
-0.179758
-0.155388
-0.133569
-0.112997
-0.546543
-0.5321
-0.510005
-0.475497
-0.432304
-0.385662
-0.339715
-0.296906
-0.258216
-0.223752
-0.193219
-0.166185
-0.142363
-0.121024
-0.101037
-0.531883
-0.517777
-0.495155
-0.459829
-0.41597
-0.369023
-0.323134
-0.280644
-0.242424
-0.208512
-0.178559
-0.152125
-0.128911
-0.108116
-0.0887351
-0.515566
-0.501833
-0.478743
-0.442719
-0.398355
-0.351274
-0.3056
-0.26356
-0.225922
-0.192649
-0.163356
-0.13759
-0.115045
-0.0948489
-0.0761085
-0.497603
-0.484277
-0.460786
-0.424189
-0.379488
-0.332445
-0.287139
-0.245679
-0.208729
-0.176186
-0.14763
-0.122599
-0.100781
-0.0812336
-0.063174
-0.478013
-0.465129
-0.44131
-0.404273
-0.359406
-0.312572
-0.267779
-0.227026
-0.190869
-0.159143
-0.131399
-0.107171
-0.0861368
-0.0672847
-0.0499499
-0.456827
-0.444416
-0.420349
-0.383012
-0.338153
-0.291695
-0.247552
-0.207632
-0.172369
-0.141546
-0.114689
-0.091326
-0.0711312
-0.05302
-0.0364553
-0.434082
-0.422178
-0.397947
-0.360457
-0.315776
-0.269836
-0.226511
-0.187532
-0.15326
-0.123423
-0.0975236
-0.0750891
-0.0557859
-0.03846
-0.0227115
-0.409826
-0.39846
-0.374156
-0.336678
-0.292312
-0.247059
-0.204686
-0.166765
-0.133577
-0.104805
-0.0799317
-0.0584863
-0.0401251
-0.0236276
-0.008742
-0.384113
-0.373322
-0.349045
-0.31173
-0.267794
-0.223425
-0.182126
-0.14537
-0.113356
-0.085725
-0.0619437
-0.0415458
-0.0241745
-0.00854791
0.0054267
-0.357005
-0.346838
-0.322712
-0.285568
-0.242354
-0.198983
-0.158881
-0.123391
-0.0926362
-0.0662179
-0.0435922
-0.024298
-0.00796199
0.00675131
0.0197638
-0.32857
-0.319088
-0.295251
-0.258275
-0.216015
-0.173793
-0.135004
-0.100877
-0.0714593
-0.0463216
-0.0249114
-0.00677471
0.00848295
0.0222387
0.034229
-0.298886
-0.290144
-0.266453
-0.230204
-0.188866
-0.147918
-0.110552
-0.0778753
-0.0498692
-0.0260754
-0.00593721
0.010991
0.0251298
0.0378796
0.0487697
-0.268028
-0.260116
-0.236633
-0.201233
-0.160979
-0.121426
-0.0855835
-0.0544389
-0.0279122
-0.0055203
0.0132932
0.0289645
0.0419481
0.0536424
0.063338
-0.236067
-0.229029
-0.205981
-0.17145
-0.132431
-0.0943857
-0.0601591
-0.0306216
-0.00563598
0.0153012
0.0327409
0.0471099
0.0589106
0.0695088
0.0779065
-0.203156
-0.197041
-0.174516
-0.140952
-0.1033
-0.0668687
-0.0343422
-0.00647921
0.01691
0.0363451
0.0523656
0.065393
0.0760016
0.0854613
0.0923634
-0.169519
-0.164138
-0.142315
-0.109835
-0.0736676
-0.0389485
-0.00819792
0.0179303
0.0396745
0.0575659
0.0721278
0.0837914
0.093225
0.101425
0.106293
-0.135128
-0.130508
-0.109477
-0.0781949
-0.0436199
-0.0107006
0.0182064
0.0425473
0.0626044
0.0789161
0.0919902
0.102297
0.110588
0.117238
0.119203
-0.100088
-0.0962768
-0.0761081
-0.0461295
-0.0132443
0.0177974
0.0448018
0.0673102
0.0856442
0.100346
0.111916
0.120892
0.128028
0.13277
0.131835
-0.0645238
-0.0615574
-0.0423171
-0.0137383
0.01737
0.0464664
0.0715179
0.0921558
0.108737
0.121804
0.131864
0.139517
0.145367
0.147934
0.14743
-0.0285546
-0.0264613
-0.00821393
0.0188779
0.0481327
0.0752261
0.0982831
0.11702
0.131824
0.14324
0.151783
0.158078
0.16255
0.163587
0.163606
0.00769744
0.00889517
0.0260892
0.051617
0.0789526
0.103995
0.125025
0.141837
0.154846
0.164599
0.171619
0.176525
0.179609
0.179419
0.179258
0.0441096
0.0443946
0.0604798
0.0843764
0.109738
0.132693
0.151671
0.166543
0.177745
0.185829
0.191319
0.194817
0.196542
0.195254
0.194568
0.0805588
0.0799183
0.0948454
0.117054
0.140398
0.161237
0.178148
0.19107
0.200461
0.206874
0.210831
0.212915
0.213304
0.210946
0.209532
0.116922
0.115347
0.129073
0.149547
0.17084
0.189546
0.204382
0.215354
0.222936
0.227679
0.230105
0.230775
0.229847
0.226418
0.22415
0.153076
0.150563
0.163052
0.181754
0.200974
0.217539
0.230303
0.239329
0.245109
0.248192
0.249094
0.248357
0.246126
0.241618
0.238418
0.188899
0.185446
0.19667
0.213574
0.230711
0.245137
0.255837
0.262931
0.266923
0.26836
0.26775
0.265616
0.262096
0.256507
0.252328
0.224269
0.21988
0.229819
0.244909
0.259961
0.272259
0.280913
0.286096
0.288321
0.288131
0.286025
0.282512
0.277719
0.271053
0.265866
0.259069
0.25375
0.262389
0.275661
0.288637
0.298828
0.305464
0.308761
0.309246
0.307453
0.303876
0.299004
0.292958
0.285227
0.279016
0.293179
0.286941
0.294277
0.305734
0.316655
0.324769
0.329419
0.330867
0.329643
0.326279
0.321258
0.315052
0.307778
0.298998
0.29176
0.326486
0.319344
0.325378
0.335036
0.343931
0.350006
0.352712
0.352351
0.349458
0.344559
0.338128
0.330618
0.322146
0.31234
0.304078
0.358877
0.350849
0.355592
0.363476
0.370384
0.374467
0.37528
0.373157
0.36864
0.362248
0.354444
0.345666
0.336029
0.325225
0.31595
0.390245
0.381352
0.384823
0.390967
0.395936
0.398083
0.397058
0.393228
0.387138
0.379299
0.370165
0.360159
0.349395
0.337625
0.327355
0.420483
0.410752
0.412976
0.417423
0.420512
0.420786
0.417986
0.41251
0.404902
0.395668
0.385253
0.374063
0.362215
0.349513
0.338271
0.449492
0.438952
0.439961
0.442764
0.444038
0.442511
0.438006
0.43095
0.421886
0.411315
0.39967
0.387344
0.374457
0.360863
0.348677
0.477175
0.465858
0.465693
0.466912
0.466446
0.463196
0.457063
0.448498
0.438046
0.426198
0.41338
0.39997
0.386094
0.37165
0.358554
0.50344
0.491381
0.490089
0.489794
0.487669
0.482781
0.475103
0.465107
0.453337
0.440279
0.426349
0.411911
0.397099
0.381849
0.36788
0.528199
0.515439
0.513073
0.51134
0.507646
0.501212
0.492076
0.480731
0.46772
0.453522
0.438544
0.423138
0.407445
0.391437
0.376638
0.551372
0.537953
0.534572
0.531485
0.526319
0.518435
0.507936
0.495329
0.481157
0.465892
0.449935
0.433624
0.417107
0.400392
0.384809
0.572882
0.558848
0.554518
0.550168
0.543631
0.534402
0.522637
0.50886
0.493611
0.477358
0.460493
0.443342
0.426064
0.408692
0.392376
0.592657
0.578058
0.572849
0.567333
0.559534
0.549068
0.53614
0.521288
0.505051
0.48789
0.47019
0.452269
0.434292
0.416319
0.399325
0.610635
0.59552
0.589507
0.582928
0.573981
0.56239
0.548407
0.53258
0.515445
0.497461
0.479004
0.460384
0.441773
0.423254
0.405639
0.626755
0.611177
0.604441
0.596906
0.58693
0.574332
0.559405
0.542704
0.524767
0.506046
0.486912
0.467666
0.448489
0.429481
0.411308
0.640966
0.62498
0.617604
0.609227
0.598344
0.584861
0.569102
0.551634
0.532992
0.513623
0.493893
0.474097
0.454422
0.434986
0.416318
0.653221
0.636884
0.628956
0.619853
0.60819
0.593946
0.577473
0.559346
0.540098
0.520172
0.499931
0.479662
0.45956
0.439755
0.420659
0.663482
0.646852
0.638462
0.628753
0.61644
0.601562
0.584496
0.56582
0.546067
0.525678
0.505011
0.484348
0.46389
0.443778
0.424324
0.671716
0.654853
0.646094
0.635902
0.623071
0.607689
0.59015
0.571038
0.550884
0.530126
0.50912
0.488143
0.467403
0.447046
0.427304
0.677896
0.66086
0.651828
0.641278
0.628065
0.61231
0.594422
0.574987
0.554536
0.533506
0.512248
0.491039
0.470089
0.449551
0.429594
0.682005
0.664858
0.655649
0.644868
0.631408
0.615413
0.5973
0.577658
0.557015
0.535809
0.514389
0.49303
0.471943
0.451288
0.431192
0.68403
0.666833
0.657544
0.64666
0.633091
0.61699
0.598778
0.579043
0.558315
0.53703
0.515537
0.49411
0.472961
0.452254
0.432091
0.683965
0.666781
0.657511
0.646652
0.633112
0.617038
0.598852
0.579141
0.558434
0.537168
0.515691
0.494278
0.473142
0.452446
0.432291
0.681813
0.664703
0.65555
0.644845
0.63147
0.615559
0.597524
0.577952
0.557373
0.536222
0.514851
0.493535
0.472486
0.451865
0.431792
0.677582
0.660609
0.651669
0.641246
0.628173
0.612557
0.594798
0.575481
0.555135
0.534198
0.513022
0.491884
0.470995
0.450514
0.430598
0.671289
0.654513
0.645882
0.635866
0.623232
0.608043
0.590684
0.571736
0.551728
0.5311
0.510208
0.489331
0.468676
0.448397
0.428711
0.662956
0.646438
0.63821
0.628726
0.616663
0.602032
0.585196
0.566729
0.547163
0.52694
0.506418
0.485882
0.465535
0.445521
0.426138
0.652612
0.636411
0.628678
0.619847
0.608487
0.594542
0.578349
0.560475
0.541453
0.521729
0.501664
0.481549
0.46158
0.441894
0.422884
0.640294
0.624467
0.617318
0.609259
0.59873
0.585597
0.570165
0.552994
0.534617
0.515483
0.49596
0.476343
0.456824
0.437526
0.418958
0.626045
0.610648
0.604169
0.596995
0.587423
0.575225
0.56067
0.544307
0.526673
0.50822
0.489321
0.470279
0.451278
0.432429
0.414368
0.609913
0.595
0.589274
0.583096
0.5746
0.563456
0.54989
0.534441
0.517645
0.499961
0.481767
0.463374
0.44496
0.426617
0.409126
0.591956
0.577579
0.572682
0.567606
0.560303
0.550328
0.53786
0.523424
0.507559
0.490729
0.473318
0.455647
0.437885
0.420105
0.403245
0.572234
0.558443
0.554449
0.550574
0.544574
0.535879
0.524613
0.511289
0.496445
0.48055
0.463998
0.447118
0.430073
0.412911
0.396739
0.550817
0.537658
0.534634
0.532054
0.527463
0.520153
0.510191
0.49807
0.484333
0.469454
0.453833
0.437811
0.421545
0.405053
0.389621
0.527778
0.515295
0.513303
0.512106
0.509023
0.503199
0.494634
0.483808
0.471259
0.45747
0.44285
0.427751
0.412322
0.396552
0.38191
0.503196
0.49143
0.490528
0.490793
0.489311
0.485066
0.477991
0.468541
0.45726
0.444633
0.43108
0.416965
0.402429
0.387428
0.373622
0.477157
0.466146
0.466383
0.468183
0.468386
0.465809
0.460308
0.452316
0.442375
0.430978
0.418553
0.40548
0.391892
0.377706
0.364776
0.449751
0.439529
0.440948
0.444348
0.446315
0.445486
0.441638
0.435178
0.426646
0.416542
0.405305
0.393326
0.380737
0.36741
0.355392
0.421071
0.41167
0.414308
0.419364
0.423164
0.424159
0.422037
0.417176
0.410117
0.401366
0.39137
0.380536
0.368993
0.356564
0.345489
0.391219
0.382666
0.386551
0.393311
0.399006
0.401891
0.401561
0.398363
0.392835
0.38549
0.376785
0.367142
0.356688
0.345195
0.33509
0.360297
0.352616
0.357771
0.366273
0.373915
0.378748
0.38027
0.378792
0.374848
0.368958
0.361589
0.353179
0.343854
0.33333
0.324216
0.328413
0.321624
0.328063
0.338336
0.347968
0.354801
0.358226
0.358518
0.356205
0.351814
0.345821
0.338681
0.330521
0.320996
0.312889
0.295678
0.289798
0.297526
0.30959
0.321246
0.33012
0.335494
0.337599
0.336959
0.334106
0.329524
0.323686
0.316723
0.308221
0.301129
0.262206
0.257248
0.266265
0.280127
0.293831
0.30478
0.312139
0.316095
0.317163
0.31588
0.31274
0.308232
0.302491
0.295034
0.28896
0.228114
0.224087
0.234382
0.250043
0.265808
0.278857
0.28823
0.294067
0.296871
0.297186
0.295512
0.292356
0.28786
0.281463
0.2764
0.193522
0.19043
0.201987
0.219434
0.237265
0.252427
0.263836
0.271576
0.27614
0.278073
0.277885
0.276099
0.272866
0.267538
0.26347
0.158549
0.156395
0.169188
0.188401
0.208289
0.225571
0.239028
0.248687
0.255027
0.258594
0.259906
0.259503
0.257546
0.253288
0.250185
0.12332
0.122101
0.136098
0.157043
0.178971
0.198369
0.213878
0.225464
0.233589
0.238801
0.241621
0.24261
0.241939
0.238748
0.23656
0.0879567
0.0876666
0.102828
0.125463
0.149401
0.1709
0.188458
0.201973
0.211886
0.218746
0.223078
0.225461
0.226089
0.223956
0.222605
0.0525843
0.0532125
0.0694911
0.0937632
0.119672
0.143249
0.162842
0.178278
0.189976
0.198484
0.204326
0.208102
0.210043
0.208964
0.208326
0.0173267
0.0188586
0.0362016
0.0620471
0.0898765
0.115496
0.137103
0.154446
0.16792
0.17807
0.185415
0.190573
0.193847
0.193847
0.193723
-0.0176922
-0.0152761
0.00307279
0.0304183
0.060106
0.0877238
0.111314
0.130544
0.145778
0.157557
0.166396
0.172915
0.177547
0.178752
0.17881
-0.0523494
-0.0490736
-0.0297822
-0.00102024
0.0304531
0.0600151
0.0855497
0.106636
0.123608
0.137002
0.147323
0.155169
0.161147
0.163844
0.163425
-0.0865217
-0.0824178
-0.0622508
-0.0321658
0.00100946
0.0324509
0.0598818
0.082789
0.101469
0.116455
0.128249
0.137387
0.144616
0.149425
0.148675
-0.120087
-0.115196
-0.0942229
-0.0629176
-0.0281342
0.00511198
0.0343823
0.0590666
0.0794195
0.0959699
0.109225
0.119656
0.128007
0.134656
0.136707
-0.15293
-0.147288
-0.125591
-0.0931763
-0.0568885
-0.0219225
0.00912155
0.0355319
0.0575167
0.075596
0.0902909
0.102035
0.11149
0.119626
0.12447
-0.185011
-0.178534
-0.156251
-0.122845
-0.0851655
-0.0485749
-0.0158316
0.0122463
0.0358157
0.055383
0.0714843
0.0845435
0.095129
0.104472
0.111278
-0.216248
-0.208831
-0.186117
-0.151829
-0.11288
-0.0747697
-0.0404101
-0.0107307
0.0143694
0.0353782
0.0528422
0.0671901
0.0789185
0.0893491
0.0975964
-0.246412
-0.238148
-0.215124
-0.180035
-0.139947
-0.100434
-0.0645494
-0.0333417
-0.0067715
0.015627
0.0344041
0.0499975
0.0628558
0.0743297
0.083822
-0.275413
-0.266385
-0.243147
-0.207379
-0.166286
-0.125496
-0.0881867
-0.0555312
-0.0275579
-0.00382715
0.0162097
0.0329994
0.0469566
0.059431
0.0700631
-0.303179
-0.293448
-0.269974
-0.233867
-0.191809
-0.14989
-0.111262
-0.0772457
-0.0479425
-0.0229424
-0.00170237
0.0162315
0.0312477
0.044671
0.0563471
-0.329634
-0.319253
-0.295616
-0.259345
-0.216429
-0.173555
-0.133717
-0.098434
-0.0678802
-0.0416782
-0.0192956
-0.00027231
0.0157591
0.0300808
0.0427207
-0.354704
-0.343721
-0.320016
-0.283493
-0.240277
-0.19643
-0.155496
-0.119048
-0.0873275
-0.059996
-0.0365348
-0.0164795
0.000520814
0.015694
0.0292348
-0.378321
-0.366776
-0.343117
-0.306532
-0.263034
-0.218432
-0.176545
-0.139042
-0.106244
-0.077859
-0.0533864
-0.0323589
-0.0144385
0.00154132
0.0159289
-0.40043
-0.388355
-0.364842
-0.328375
-0.284661
-0.239523
-0.196817
-0.158371
-0.12459
-0.0952326
-0.0698186
-0.047881
-0.0290916
-0.0123505
0.00283304
-0.420981
-0.408408
-0.385123
-0.348926
-0.305165
-0.259641
-0.216271
-0.176997
-0.142331
-0.112085
-0.0858019
-0.0630183
-0.0434136
-0.025957
-0.010027
-0.439932
-0.426891
-0.403913
-0.368127
-0.324503
-0.27875
-0.23486
-0.194882
-0.159433
-0.128386
-0.101309
-0.0777455
-0.0573812
-0.0392562
-0.0226281
-0.457247
-0.443773
-0.421176
-0.385935
-0.342623
-0.296813
-0.252549
-0.211994
-0.175868
-0.144109
-0.116315
-0.0920397
-0.0709736
-0.0522284
-0.0349497
-0.472905
-0.459032
-0.436882
-0.402316
-0.359484
-0.31379
-0.269307
-0.228307
-0.191608
-0.159231
-0.130798
-0.10588
-0.0841723
-0.0648566
-0.0469725
-0.486893
-0.472655
-0.451013
-0.417241
-0.375054
-0.32965
-0.285103
-0.243792
-0.206639
-0.173724
-0.144738
-0.11925
-0.0969609
-0.0771272
-0.0586783
-0.499206
-0.484639
-0.463558
-0.430693
-0.389308
-0.344366
-0.299915
-0.258426
-0.220933
-0.187585
-0.158114
-0.132132
-0.109325
-0.0890309
-0.0700487
-0.509855
-0.494995
-0.474517
-0.442659
-0.402229
-0.357917
-0.313722
-0.272193
-0.234472
-0.200791
-0.17093
-0.144506
-0.12125
-0.100561
-0.0810675
-0.518856
-0.50374
-0.483902
-0.45314
-0.413806
-0.37029
-0.326509
-0.285079
-0.247245
-0.213327
-0.183159
-0.15638
-0.132723
-0.111709
-0.0917379
-0.526239
-0.510905
-0.491733
-0.462142
-0.424036
-0.381474
-0.338266
-0.297074
-0.259245
-0.225186
-0.194794
-0.167736
-0.143745
-0.122427
-0.102141
-0.532043
-0.51653
-0.498042
-0.469684
-0.432923
-0.391468
-0.348986
-0.308171
-0.270466
-0.236365
-0.205829
-0.178565
-0.154307
-0.132753
-0.112509
-0.536317
-0.520665
-0.50287
-0.475792
-0.440481
-0.400274
-0.358669
-0.318369
-0.280904
-0.246859
-0.216263
-0.188865
-0.164407
-0.142642
-0.122339
-0.539118
-0.52337
-0.506269
-0.480503
-0.446729
-0.407902
-0.367319
-0.327669
-0.29056
-0.256669
-0.226095
-0.198634
-0.174038
-0.152087
-0.131644
-0.540515
-0.524711
-0.5083
-0.483863
-0.451698
-0.414368
-0.374944
-0.336077
-0.29944
-0.265799
-0.235327
-0.207871
-0.183197
-0.161111
-0.140541
-0.540581
-0.524766
-0.509032
-0.485926
-0.455423
-0.419693
-0.381558
-0.343601
-0.307549
-0.274255
-0.243965
-0.21658
-0.191889
-0.169728
-0.149087
-0.539399
-0.523618
-0.508544
-0.486756
-0.457949
-0.423908
-0.387179
-0.350255
-0.314899
-0.282045
-0.252015
-0.224769
-0.20012
-0.17794
-0.157286
-0.537056
-0.521355
-0.506919
-0.486424
-0.45933
-0.427046
-0.391829
-0.356054
-0.321502
-0.28918
-0.259489
-0.232447
-0.207898
-0.18575
-0.165133
-0.533646
-0.518071
-0.504249
-0.485009
-0.459624
-0.429148
-0.395536
-0.361019
-0.327374
-0.295675
-0.266397
-0.239624
-0.215232
-0.193163