/*--------------------------------*- C++ -*----------------------------------*\
  =========                 |
  \\      /  F ield         | OpenFOAM: The Open Source CFD Toolbox
   \\    /   O peration     | Website:  https://openfoam.org
    \\  /    A nd           | Version:  7
     \\/     M anipulation  |
\*---------------------------------------------------------------------------*/
FoamFile
{
    version     2.0;
    format      ascii;
    class       surfaceScalarField;
    location    "80";
    object      phi;
}
// * * * * * * * * * * * * * * * * * * * * * * * * * * * * * * * * * * * * * //

dimensions      [0 3 -1 0 0 0 0];

internalField   nonuniform List<scalar> 
39691
(
-2.84728e-06
-7.33421e-06
1.01815e-05
-1.03376e-05
-3.41279e-05
4.16182e-05
-2.18918e-05
-7.11333e-05
8.26875e-05
-3.70245e-05
-0.000115133
0.000130265
-5.53151e-05
-0.00016335
0.00018164
-7.6382e-05
-0.000213826
0.000234893
-9.98641e-05
-0.000265652
0.000289134
-0.000125419
-0.000319024
0.000344579
-0.000152742
-0.000375085
0.000402408
-0.000181599
-0.000435611
0.000464468
-0.000211868
-0.000502665
0.000532934
-0.000243576
-0.000578321
0.000610029
-0.000276915
-0.000664523
0.000697862
-0.000312205
-0.000763053
0.000798344
-0.000875783
0.000913463
-0.000349885
-3.08116e-06
-4.25305e-06
-1.11683e-05
-2.60408e-05
-2.36216e-05
-5.868e-05
-3.99027e-05
-9.88516e-05
-5.95484e-05
-0.000143704
-8.21474e-05
-0.000191227
-0.000107325
-0.000240475
-0.000134743
-0.000291606
-0.000164124
-0.000345704
-0.00019528
-0.000404455
-0.000228161
-0.000469784
-0.00026289
-0.000543592
-0.00029978
-0.000627633
-0.000339292
-0.000723541
-0.000833038
-0.000382038
-3.28952e-06
-9.63534e-07
-1.1909e-05
-1.74213e-05
-2.5163e-05
-4.5426e-05
-4.24626e-05
-8.1552e-05
-6.33024e-05
-0.000122864
-8.72402e-05
-0.00016729
-0.000113884
-0.000213831
-0.000142896
-0.000262594
-0.000174014
-0.000314587
-0.000207085
-0.000371384
-0.000242113
-0.000434755
-0.000279298
-0.000506408
-0.000319052
-0.000587879
-0.000361962
-0.000680631
-0.000786206
-0.000408793
-3.4674e-06
2.50387e-06
-1.25434e-05
-8.3453e-06
-2.64841e-05
-3.14853e-05
-4.46544e-05
-6.33817e-05
-6.65082e-05
-0.000101011
-9.15714e-05
-0.000142227
-0.000119432
-0.00018597
-0.000149745
-0.000232281
-0.000182254
-0.000282078
-0.000216827
-0.000336811
-0.000253501
-0.000398082
-0.000292527
-0.000467382
-0.000334397
-0.000546009
-0.000379801
-0.000635227
-0.00073636
-0.000429647
-3.61027e-06
6.11413e-06
-1.30566e-05
1.10104e-06
-2.75562e-05
-1.69857e-05
-4.64334e-05
-4.45045e-05
-6.91038e-05
-7.83403e-05
-9.50612e-05
-0.000116269
-0.00012387
-0.000157161
-0.000155172
-0.000200979
-0.000188704
-0.000248546
-0.000224337
-0.000301177
-0.000262121
-0.000360298
-0.000302331
-0.000427172
-0.000345512
-0.000502828
-0.000392438
-0.000588301
-0.00068466
-0.000444138
-3.7142e-06
9.82833e-06
-1.34358e-05
1.08226e-05
-2.83542e-05
-2.06725e-06
-4.77601e-05
-2.50985e-05
-7.10343e-05
-5.50661e-05
-9.76387e-05
-8.96647e-05
-0.000127111
-0.000127689
-0.000159071
-0.000169019
-0.000193238
-0.000214378
-0.000229468
-0.000264948
-0.000267795
-0.000321971
-0.000308493
-0.000386473
-0.000352128
-0.000459193
-0.000399534
-0.000540895
-0.000632349
-0.000451845
-3.7759e-06
1.36042e-05
-1.367e-05
2.07167e-05
-2.88567e-05
1.31194e-05
-4.86012e-05
-5.35402e-06
-7.22533e-05
-3.1414e-05
-9.92433e-05
-6.26746e-05
-0.000129079
-9.78538e-05
-0.00016135
-0.000136748
-0.000195747
-0.000179982
-0.000232088
-0.000228606
-0.000270368
-0.000283691
-0.000310825
-0.000346017
-0.000354009
-0.000416009
-0.000400791
-0.000494113
-0.000580751
-0.000452389
-3.79288e-06
1.73971e-05
-1.3751e-05
3.06748e-05
-2.90471e-05
2.84156e-05
-4.89297e-05
1.45286e-05
-7.27225e-05
-7.62122e-06
-9.98246e-05
-3.55725e-05
-0.00012971
-6.79685e-05
-0.000161932
-0.000104526
-0.000196137
-0.000145777
-0.000232088
-0.000192656
-0.00026971
-0.000246068
-0.000309166
-0.000306561
-0.000350955
-0.00037422
-0.000395951
-0.000449116
-0.000531272
-0.00044543
-3.76348e-06
2.11606e-05
-1.36728e-05
4.05842e-05
-2.89134e-05
4.36561e-05
-4.87261e-05
3.43414e-05
-7.24131e-05
1.60658e-05
-9.93433e-05
-8.64233e-06
-0.000128954
-3.8358e-05
-0.000160754
-7.2726e-05
-0.000194333
-0.000112198
-0.000229376
-0.000157612
-0.000265712
-0.000209733
-0.000303387
-0.000268886
-0.000342802
-0.000334806
-0.000384798
-0.000407121
-0.000485395
-0.000430675
-3.68696e-06
2.48476e-05
-1.34326e-05
5.03298e-05
-2.84488e-05
5.86723e-05
-4.79782e-05
5.38707e-05
-7.13061e-05
3.93938e-05
-9.77719e-05
1.78235e-05
-0.000126773
-9.35709e-06
-0.000157766
-4.17324e-05
-0.000190272
-7.96925e-05
-0.000223881
-0.000124003
-0.00025829
-0.000175324
-0.000293388
-0.000233788
-0.000329423
-0.000298771
-0.000367161
-0.000369382
-0.000444678
-0.000407878
-3.56359e-06
2.84111e-05
-1.30305e-05
5.97967e-05
-2.76522e-05
7.32941e-05
-4.6682e-05
7.29004e-05
-6.93929e-05
6.21047e-05
-9.50952e-05
4.35258e-05
-0.000123143
1.86908e-05
-0.000152936
-1.19401e-05
-0.000183911
-4.87172e-05
-0.000215546
-9.23681e-05
-0.00024738
-0.00014349
-0.000279097
-0.000202071
-0.000310733
-0.000267135
-0.000342928
-0.000337186
-0.00041075
-0.000376857
-3.39465e-06
3.18058e-05
-1.24696e-05
6.88717e-05
-2.65284e-05
8.73529e-05
-4.48422e-05
9.12142e-05
-6.6676e-05
8.39385e-05
-9.13112e-05
6.8161e-05
-0.000118056
4.54352e-05
-0.000146243
1.62474e-05
-0.000175221
-1.97395e-05
-0.000204335
-6.32538e-05
-0.000232941
-0.000114884
-0.000260474
-0.000174537
-0.000286689
-0.00024092
-0.000312043
-0.000311833
-0.000385294
-0.000337499
-3.18252e-06
3.49883e-05
-1.17568e-05
7.74459e-05
-2.50881e-05
0.000100684
-4.24725e-05
0.000108599
-6.31697e-05
0.000104636
-8.64317e-05
9.1423e-05
-0.000111517
7.05202e-05
-0.000137687
4.24179e-05
-0.00016419
6.7634e-06
-0.000190229
-3.72151e-05
-0.000214951
-9.01616e-05
-0.000237505
-0.000151984
-0.000257291
-0.000221134
-0.000274517
-0.000294606
-0.000370034
-0.000289777
-2.93061e-06
3.79189e-05
-1.09018e-05
8.54171e-05
-2.33484e-05
0.000113131
-3.95959e-05
0.000124846
-5.89006e-05
0.00012394
-8.04838e-05
0.000113006
-0.00010355
9.35864e-05
-0.000127284
6.61521e-05
-0.000150826
3.03053e-05
-0.000173225
-1.48161e-05
-0.000193408
-6.99791e-05
-0.000210199
-0.000135193
-0.000222575
-0.000208758
-0.000230423
-0.000286758
-0.000366689
-0.000233768
-2.64339e-06
4.05623e-05
-9.918e-06
9.26917e-05
-2.13326e-05
0.000124545
-3.62449e-05
0.000139759
-5.39079e-05
0.000141603
-7.351e-05
0.000132608
-9.41971e-05
0.000114273
-0.00011507
8.70253e-05
-0.000135155
5.03897e-05
-0.00015334
3.36941e-06
-0.000168323
-5.49968e-05
-0.000178584
-0.000124931
-0.000182616
-0.000204726
-0.00017989
-0.000289484
-0.000376893
-0.000169685
-2.32633e-06
4.28886e-05
-8.82173e-06
9.91871e-05
-1.90701e-05
0.000134794
-3.24614e-05
0.00015315
-4.82439e-05
0.000157386
-6.55692e-05
0.000149934
-8.35187e-05
0.000132223
-0.000101103
0.000104609
-0.000117224
6.65114e-05
-0.000130611
1.6756e-05
-0.000139724
-4.58837e-05
-0.000142699
-0.000121955
-0.000137498
-0.000209927
-0.000123113
-0.000303869
-0.000402035
-9.79717e-05
-1.98575e-06
4.48744e-05
-7.63226e-06
0.000104834
-1.65958e-05
0.000143757
-2.82962e-05
0.00016485
-4.19733e-05
0.000171063
-5.67368e-05
0.000164697
-7.15961e-05
0.000147082
-8.54618e-05
0.000118475
-9.71086e-05
7.81583e-05
-0.000105097
2.47445e-05
-0.000107659
-4.33216e-05
-0.000102592
-0.000127023
-8.72484e-05
-0.000225271
-6.00981e-05
-0.000331019
-0.000441612
-2.05201e-05
-1.62872e-06
4.65031e-05
-6.37129e-06
0.000109576
-1.39498e-05
0.000151336
-2.38083e-05
0.000174709
-3.51727e-05
0.000182427
-4.71039e-05
0.000176628
-5.85304e-05
0.000158509
-6.8253e-05
0.000128197
-7.49085e-05
8.48138e-05
-7.68876e-05
2.67235e-05
-7.22033e-05
-4.80059e-05
-5.83573e-05
-0.000140869
-3.20632e-05
-0.000251565
1.11187e-05
-0.000374201
-0.000496895
6.64008e-05
-1.26281e-06
4.77659e-05
-5.06239e-06
0.000113376
-1.11759e-05
0.000157449
-1.90632e-05
0.000182596
-2.79288e-05
0.000191293
-3.67759e-05
0.000185475
-4.44419e-05
0.000166175
-4.96054e-05
0.000133361
-5.07534e-05
8.59619e-05
-4.61027e-05
2.20728e-05
-3.34564e-05
-6.06522e-05
-1.00454e-05
-0.00016428
2.76112e-05
-0.000289222
8.34884e-05
-0.000430079
-0.000573354
0.000159948
-8.95893e-07
4.86618e-05
-3.73016e-06
0.00011621
-8.32051e-06
0.00016204
-1.41312e-05
0.000188407
-2.03357e-05
0.000197497
-2.58694e-05
0.000191009
-2.94666e-05
0.000169772
-2.96697e-05
0.000133564
-2.47997e-05
8.10919e-05
-1.28928e-05
1.01659e-05
8.43962e-06
-8.19845e-05
4.22383e-05
-0.000198078
9.24693e-05
-0.000339453
0.000163241
-0.000500851
-0.000669425
0.000259312
-5.35817e-07
4.91976e-05
-2.39938e-06
0.000118074
-5.43068e-06
0.000165071
-9.08449e-06
0.000192061
-1.24915e-05
0.000200904
-1.4508e-05
0.000193026
-1.37513e-05
0.000169015
-8.61287e-06
0.000128426
2.76296e-06
6.9716e-05
2.25626e-05
-9.63372e-06
5.33624e-05
-0.000112784
9.83659e-05
-0.000243082
0.000161828
-0.000402914
0.000248578
-0.000587601
-0.000785381
0.000364534
-1.90176e-07
4.93878e-05
-1.09384e-06
0.000118977
-2.55228e-06
0.000166529
-3.99391e-06
0.000193502
-4.49371e-06
0.000201404
-2.8156e-06
0.000191347
2.5527e-06
0.000163647
1.33935e-05
0.000117585
3.17667e-05
5.13428e-05
6.00563e-05
-3.79233e-05
0.000101064
-0.000153793
0.000158149
-0.000300167
0.000235656
-0.000480421
0.000339123
-0.000691068
-0.000921299
0.000475041
1.35489e-07
4.92523e-05
1.66232e-07
0.000118947
2.75161e-07
0.000166421
1.07487e-06
0.000192702
3.56666e-06
0.000198912
9.09125e-06
0.000185823
1.93075e-05
0.000153431
3.61806e-05
0.000100712
6.19939e-05
2.55296e-05
9.93712e-05
-7.53006e-05
0.000151328
-0.00020575
0.000221357
-0.000370196
0.000313706
-0.00057277
0.00043456
-0.000811922
-0.00107686
0.00059012
4.3298e-07
4.88193e-05
1.35785e-06
0.000118022
3.00852e-06
0.00016477
6.06466e-06
0.000189646
1.16109e-05
0.000193366
2.11109e-05
0.000176323
3.63849e-05
0.000138157
5.9602e-05
7.74946e-05
9.32844e-05
-8.15275e-06
0.000140312
-0.000122328
0.000203923
-0.000269361
0.000287726
-0.000453999
0.00039567
-0.000680714
0.000534491
-0.000950742
-0.00125121
0.000708845
7.00119e-07
4.81192e-05
2.47206e-06
0.00011625
5.62775e-06
0.000161614
1.09329e-05
0.000184341
1.95791e-05
0.00018472
3.31672e-05
0.000162735
5.36948e-05
0.000117629
8.35509e-05
4.76385e-05
0.000125512
-5.01143e-05
0.000182725
-0.00017954
0.000258647
-0.000345283
0.000356982
-0.000552333
0.000481183
-0.000804915
0.000638383
-0.00110794
-0.00144282
0.000829984
9.34026e-07
4.71852e-05
3.49894e-06
0.000113685
8.11383e-06
0.000156999
1.56538e-05
0.000176801
2.74361e-05
0.000172938
4.52171e-05
0.000144954
7.11885e-05
9.16578e-05
0.000107974
1.08529e-05
0.000158616
-0.000100756
0.000226524
-0.000247449
0.000315358
-0.000434116
0.00042886
-0.000665836
0.000569836
-0.000945892
0.000745511
-0.00128362
-0.00164925
0.000951941
1.13425e-06
4.6051e-05
4.43685e-06
0.000110382
1.04632e-05
0.000150973
2.02216e-05
0.000167043
3.51764e-05
0.000157983
5.72581e-05
0.000122872
8.88695e-05
6.00463e-05
0.000132883
-3.31602e-05
0.000192608
-0.000160481
0.000271704
-0.000326545
0.000373979
-0.000536391
0.00050311
-0.000794966
0.000661173
-0.00110396
0.000854881
-0.00147732
-0.00186716
0.0010728
1.30257e-06
4.47484e-05
5.29116e-06
0.000106394
1.26861e-05
0.000143578
2.46536e-05
0.000155075
4.2827e-05
0.000139809
6.93315e-05
9.63676e-05
0.000106798
2.25795e-05
0.000158356
-8.47183e-05
0.000227578
-0.000229703
0.000318335
-0.000417302
0.000434496
-0.000652552
0.000579485
-0.000939955
0.000754666
-0.00127914
0.000965108
-0.00168777
-0.00209258
0.00119053
1.44298e-06
4.33054e-05
6.07448e-06
0.000101762
1.48072e-05
0.000134845
2.89902e-05
0.000140892
5.04487e-05
0.000118351
8.15237e-05
6.52926e-05
0.00012509
-2.09871e-05
0.000184538
-0.000144166
0.00026368
-0.000308845
0.000366536
-0.000520159
0.000496914
-0.00078293
0.000657737
-0.00110078
0.000849733
-0.00147113
0.00107434
-0.00191237
-0.00232167
0.00130343
1.56163e-06
4.17438e-05
6.80633e-06
9.65174e-05
1.6865e-05
0.000124787
3.32938e-05
0.000124463
5.81339e-05
9.35108e-05
9.39622e-05
2.94643e-05
0.00014391
-7.09344e-05
0.00021162
-0.000211876
0.000301102
-0.000398327
0.000416427
-0.000635483
0.000561175
-0.000927677
0.000737527
-0.00127713
0.000945735
-0.00167934
0.0011808
-0.00214744
-0.002552
0.00141113
1.66652e-06
4.00772e-05
7.51242e-06
9.06715e-05
1.89102e-05
0.000113389
3.76468e-05
0.000105727
6.60022e-05
6.51554e-05
0.000106807
-1.13407e-05
0.000163454
-0.000127581
0.000239816
-0.000288238
0.00034003
-0.000498541
0.000468066
-0.000763519
0.000627048
-0.00108666
0.000818171
-0.00146825
0.00104129
-0.00190246
0.00128465
-0.0023908
-0.00278357
0.00151623
1.76702e-06
3.83102e-05
8.22312e-06
8.42154e-05
2.10029e-05
0.000100609
4.21464e-05
8.45833e-05
7.41928e-05
3.3109e-05
0.000120241
-5.73886e-05
0.000183936
-0.000191276
0.00026934
-0.000373642
0.000380605
-0.000609806
0.0005214
-0.000904314
0.00069409
-0.00125935
0.000898504
-0.00167267
0.00113298
-0.00213694
0.0013844
-0.00264221
-0.00310276
0.00170358
1.8741e-06
3.64361e-05
8.97309e-06
7.71164e-05
2.32108e-05
8.63713e-05
4.68996e-05
6.08945e-05
8.28553e-05
-2.84669e-06
0.000134449
-0.000108982
0.000205561
-0.000262388
0.000300364
-0.000468446
0.000422879
-0.00073232
0.000576221
-0.00105766
0.000761644
-0.00144477
0.000977286
-0.00188831
0.00121913
-0.00237879
0.00147407
-0.00289716
-0.00339095
0.00176227
1.99858e-06
3.44375e-05
9.79753e-06
6.93175e-05
2.5603e-05
7.05658e-05
5.20152e-05
3.44823e-05
9.21378e-05
-4.29693e-05
0.000149609
-0.000166454
0.0002285
-0.000341278
0.000332994
-0.00057294
0.000466784
-0.000866111
0.000632148
-0.00122302
0.000828875
-0.0016415
0.00105315
-0.00211259
0.00129816
-0.0026238
0.00155111
-0.0031501
-0.00365616
0.00181632
2.15136e-06
3.22862e-05
1.07314e-05
6.07374e-05
2.82471e-05
5.30502e-05
5.75971e-05
5.1323e-06
0.000102176
-8.75478e-05
0.000165868
-0.000230146
0.000252868
-0.000428278
0.000367232
-0.000687304
0.000512097
-0.00101098
0.000688601
-0.00139952
0.000894766
-0.00184767
0.0011247
-0.00234252
0.00136915
-0.00286824
0.00161544
-0.00339639
-0.00390163
0.00186091
2.34259e-06
2.99436e-05
1.18072e-05
5.12729e-05
3.12049e-05
3.36525e-05
6.3737e-05
-2.73998e-05
0.00011308
-0.000136891
0.000183327
-0.000300393
0.000278703
-0.000523654
0.000402961
-0.000811562
0.000558429
-0.00116644
0.000744808
-0.0015859
0.000958154
-0.00206101
0.00119055
-0.00257492
0.00143092
-0.0031086
0.00166691
-0.00363238
-0.00412793
0.00189321
2.58113e-06
2.73625e-05
1.30529e-05
4.08011e-05
3.45285e-05
1.21769e-05
7.05078e-05
-6.33791e-05
0.000124929
-0.000191312
0.000202033
-0.000377497
0.000305951
-0.000627572
0.000439931
-0.000945543
0.000605221
-0.00133173
0.000799841
-0.00178052
0.0010178
-0.00227897
0.0012494
-0.00280652
0.00148247
-0.00334168
0.00170546
-0.00385537
-0.00433517
0.00191269
2.87415e-06
2.44883e-05
1.44908e-05
2.91844e-05
3.82573e-05
-1.15896e-05
7.79586e-05
-0.00010308
0.000137758
-0.000251111
0.000221961
-0.0004617
0.000334456
-0.000740067
0.000477758
-0.00108885
0.000651775
-0.00150575
0.00085267
-0.00198142
0.00107248
-0.00249878
0.00130013
-0.00303417
0.00152316
-0.00356471
0.00173128
-0.00406349
-0.00452356
0.00191968
3.22684e-06
2.12615e-05
1.61367e-05
1.62746e-05
4.24161e-05
-3.7869e-05
8.61116e-05
-0.000146776
0.000151558
-0.000316558
0.000243021
-0.000553163
0.000363966
-0.000861012
0.000515939
-0.00124082
0.000697284
-0.00168709
0.000902234
-0.00218637
0.00112109
-0.00271764
0.00134193
-0.003255
0.00155273
-0.00377551
0.00174489
-0.00425565
-0.00469367
0.001915
3.64236e-06
1.76191e-05
1.79987e-05
1.91822e-06
4.70138e-05
-6.68841e-05
9.49601e-05
-0.000194722
0.000166273
-0.000387871
0.000265048
-0.000651938
0.000394134
-0.000990098
0.000553875
-0.00140056
0.000740883
-0.0018741
0.000947516
-0.002393
0.00116271
-0.00293284
0.00137428
-0.00346657
0.00157127
-0.00397249
0.00174704
-0.00443142
-0.00484642
0.00189979
4.12184e-06
1.34973e-05
2.00784e-05
-1.40384e-05
5.20441e-05
-9.88497e-05
0.00010447
-0.000247148
0.000181802
-0.000465203
0.000287818
-0.000757954
0.00042454
-0.00112682
0.000590904
-0.00156692
0.000781706
-0.0020649
0.000987609
-0.0025989
0.00119666
-0.00314189
0.001397
-0.00366691
0.00157921
-0.0041547
0.00173872
-0.00459092
-0.00498301
0.00187531
4.66461e-06
8.83267e-06
2.23704e-05
-3.17441e-05
5.74854e-05
-0.000133965
0.000114578
-0.000304241
0.000198001
-0.000548626
0.000311046
-0.000870999
0.000454703
-0.00127048
0.000626333
-0.00173855
0.000818934
-0.0022575
0.00102177
-0.00280174
0.00122253
-0.00334265
0.00141022
-0.00385461
0.00157724
-0.00432172
0.00172105
-0.00473474
-0.00510483
0.00184287
5.26843e-06
3.56423e-06
2.48633e-05
-5.1339e-05
6.33033e-05
-0.000172405
0.000125202
-0.000366139
0.000214693
-0.000638117
0.000334406
-0.000990712
0.00048411
-0.00142018
0.000659483
-0.00191393
0.000851845
-0.00244987
0.00104946
-0.00299936
0.00124018
-0.00353337
0.00141431
-0.00402873
0.00156619
-0.00447361
0.00169519
-0.00486373
-0.00521333
0.00180369
5.92981e-06
-2.36558e-06
2.75409e-05
-7.295e-05
6.94514e-05
-0.000214315
0.000136234
-0.000432922
0.000231668
-0.000733551
0.000357543
-0.00111659
0.000512234
-0.00157487
0.000689716
-0.00209141
0.00087985
-0.00264
0.00107035
-0.00318986
0.00124972
-0.00371273
0.00140984
-0.00418886
0.00154704
-0.00461081
0.0016623
-0.00497899
-0.00530996
0.00175893
6.64428e-06
-9.00986e-06
3.03827e-05
-9.66885e-05
7.5874e-05
-0.000259807
0.000147552
-0.0005046
0.000248698
-0.000834697
0.00038008
-0.00124797
0.000538564
-0.00173336
0.00071647
-0.00226932
0.000902511
-0.00282604
0.00108432
-0.00337167
0.00125144
-0.00387985
0.00139753
-0.00433495
0.00152076
-0.00473403
0.00162346
-0.00508169
-0.00539609
0.00170959
7.40664e-06
-1.64165e-05
3.33649e-05
-0.000122647
8.2507e-05
-0.000308949
0.000159022
-0.000581115
0.000265536
-0.000941211
0.000401642
-0.00138407
0.000562621
-0.00189434
0.00073928
-0.00244597
0.000919552
-0.00300631
0.00109143
-0.00354354
0.00124581
-0.00403424
0.00137817
-0.0044673
0.00148833
-0.00484419
0.00157967
-0.00517304
-0.00547297
0.00165655
8.2111e-06
-2.46276e-05
3.64608e-05
-0.000150897
8.92803e-05
-0.000361768
0.000170496
-0.000662331
0.00028193
-0.00105264
0.00042186
-0.001524
0.000583979
-0.00205645
0.000757795
-0.00261979
0.000930858
-0.00317938
0.00109191
-0.00370459
0.00123342
-0.00417575
0.00135258
-0.00458647
0.00145067
-0.00494227
0.00153183
-0.0052542
-0.0055417
0.00160056
9.0514e-06
-3.3679e-05
3.96415e-05
-0.000181487
9.61184e-05
-0.000418245
0.000181824
-0.000748036
0.000297627
-0.00116845
0.000440393
-0.00166677
0.000602281
-0.00221834
0.000771781
-0.00278929
0.000936457
-0.00334405
0.00108612
-0.00385425
0.00121488
-0.00430452
0.00132158
-0.00469317
0.00140863
-0.00502933
0.00148069
-0.00532626
-0.00560324
0.00154224
9.92084e-06
-4.35998e-05
4.28761e-05
-0.000214442
0.000102942
-0.000478311
0.00019285
-0.000837944
0.000312382
-0.00128798
0.00045693
-0.00181132
0.000617247
-0.00237866
0.000781121
-0.00295317
0.000936504
-0.00349943
0.0010745
-0.00399224
0.00119089
-0.00442091
0.00128594
-0.00478822
0.00136299
-0.00510637
0.00142693
-0.0053902
-0.00565839
0.00148208
1.08123e-05
-5.44121e-05
4.61319e-05
-0.000249761
0.000109669
-0.000541849
0.00020342
-0.000931695
0.000325961
-0.00141052
0.000471206
-0.00195656
0.00062868
-0.00253613
0.000785811
-0.0031103
0.000931256
-0.00364488
0.00105756
-0.00411855
0.00116211
-0.00452545
0.00124639
-0.0048725
0.00131439
-0.00517437
0.00137109
-0.0054469
-0.00570782
0.00142052
1.17181e-05
-6.61302e-05
4.93749e-05
-0.000287418
0.000116217
-0.000608691
0.000213381
-0.00102886
0.000338154
-0.00153529
0.000483006
-0.00210142
0.000636468
-0.0026896
0.000785939
-0.00325977
0.000921045
-0.00377999
0.00103585
-0.00423336
0.00112919
-0.00461879
0.00120358
-0.00494689
0.00126343
-0.00523423
0.00131363
-0.0054971
-0.00575205
0.00135786
1.26302e-05
-7.87603e-05
5.257e-05
-0.000327358
0.000122502
-0.000678623
0.000222591
-0.00112895
0.000348774
-0.00166148
0.000492171
-0.00224481
0.000640577
-0.002838
0.000781678
-0.00340087
0.000906261
-0.00390457
0.0010099
-0.00433699
0.00109274
-0.00470163
0.00115809
-0.00501224
0.00121059
-0.00528673
0.00125492
-0.00554142
-0.00579151
0.00129438
1.35401e-05
-9.23004e-05
5.56812e-05
-0.000369499
0.000128441
-0.000751383
0.000230916
-0.00123142
0.000357665
-0.00178823
0.000498595
-0.00238574
0.000641046
-0.00298045
0.000773263
-0.00353308
0.000887323
-0.00401863
0.00098025
-0.00442992
0.00105332
-0.0047747
0.00111043
-0.00506935
0.00115629
-0.00533259
0.00119526
-0.0055804
-0.00582653
0.00123028
1.44389e-05
-0.000106739
5.86725e-05
-0.000413733
0.000133957
-0.000826667
0.000238234
-0.0013357
0.000364703
-0.0019147
0.000502229
-0.00252327
0.000637976
-0.0031162
0.000760977
-0.00365608
0.000864664
-0.00412232
0.000947413
-0.00451267
0.00101145
-0.00483873
0.00106105
-0.00511895
0.00110086
-0.0053724
0.00113491
-0.00561445
-0.00585734
0.00116573
1.53173e-05
-0.000122057
6.1508e-05
-0.000459924
0.000138974
-0.000904133
0.000244442
-0.00144117
0.000369801
-0.00204005
0.000503077
-0.00265654
0.000631522
-0.00324465
0.000745137
-0.0037697
0.000838718
-0.0042159
0.000911866
-0.00458582
0.000967559
-0.00489443
0.00101031
-0.00516171
0.0010446
-0.00540669
0.00107406
-0.00564391
-0.00588415
0.00110087
1.61661e-05
-0.000138223
6.41529e-05
-0.00050791
0.000143424
-0.000983404
0.000249454
-0.0015472
0.000372907
-0.00216351
0.000501186
-0.00278482
0.000621878
-0.00336534
0.000726075
-0.0038739
0.000809905
-0.00429973
0.000874046
-0.00464996
0.000922057
-0.00494244
0.00095854
-0.00519819
0.000987728
-0.00543587
0.00101288
-0.00566906
-0.00590706
0.00103579
1.69758e-05
-0.000155199
6.65739e-05
-0.000557508
0.000147247
-0.00106408
0.000253204
-0.00165315
0.000374001
-0.0022843
0.000496647
-0.00290747
0.000609268
-0.00347796
0.00070413
-0.00396876
0.000778624
-0.00437422
0.000834349
-0.00470568
0.000875284
-0.00498337
0.000906002
-0.00522891
0.000930442
-0.00546031
0.000951479
-0.0056901
-0.00592619
0.000970607
1.77371e-05
-0.000172936
6.87399e-05
-0.000608511
0.000150391
-0.00114573
0.000255647
-0.00175841
0.000373097
-0.00240175
0.000489581
-0.00302395
0.000593937
-0.00358232
0.000679641
-0.00405446
0.000745248
-0.00443983
0.000793129
-0.00475356
0.000827535
-0.00501778
0.000852918
-0.00525429
0.000872898
-0.00548029
0.000889979
-0.00570718
-0.00594159
0.00090538
1.84411e-05
-0.000191377
7.0623e-05
-0.000660693
0.000152813
-0.00122792
0.000256758
-0.00186236
0.000370239
-0.00251523
0.000480136
-0.00313385
0.000576141
-0.00367832
0.000652931
-0.00413125
0.000710121
-0.00449702
0.000750697
-0.00479414
0.000779061
-0.00504615
0.000799475
-0.0052747
0.000815222
-0.00549604
0.000828464
-0.00572042
-0.00595331
0.000840179
1.90794e-05
-0.000210456
7.21984e-05
-0.000713812
0.000154483
-0.0013102
0.000256531
-0.0019644
0.000365492
-0.0026242
0.000468481
-0.00323684
0.000556138
-0.00376598
0.000624312
-0.00419943
0.000673553
-0.00454626
0.000707327
-0.00482791
0.000730078
-0.0050689
0.000745826
-0.00529045
0.00075752
-0.00550773
0.00076701
-0.00572991
-0.00596136
0.000775062
1.96439e-05
-0.0002301
7.34451e-05
-0.000767613
0.000155378
-0.00139214
0.00025498
-0.00206401
0.000358945
-0.00272816
0.000454795
-0.00333269
0.000534183
-0.00384537
0.000594073
-0.00425932
0.000635824
-0.00458801
0.000663256
-0.00485535
0.000680765
-0.0050864
0.0006921
-0.00530179
0.000699881
-0.00551552
0.000705678
-0.00573571
-0.00596576
0.000710081
2.01277e-05
-0.000250228
7.43465e-05
-0.000821832
0.000155488
-0.00147328
0.000252134
-0.00216065
0.000350703
-0.00282673
0.000439267
-0.00342125
0.000510525
-0.00391662
0.000562482
-0.00431127
0.000597185
-0.00462271
0.000618689
-0.00487685
0.000631276
-0.00509899
0.000638402
-0.00530891
0.000642379
-0.00551949
0.000644524
-0.00573785
-0.00596653
0.000645285
2.05265e-05
-0.000270754
7.48939e-05
-0.000876199
0.000154818
-0.0015532
0.000248046
-0.00225388
0.000340892
-0.00291958
0.000422096
-0.00350246
0.00048541
-0.00397994
0.000529795
-0.00435566
0.000557864
-0.00465078
0.000573812
-0.0048928
0.000581749
-0.00510693
0.000584832
-0.005312
0.000585084
-0.00551975
0.000583606
-0.00573638
-0.00596365
0.000580728
2.08314e-05
-0.000291586
7.50719e-05
-0.00093044
0.000153366
-0.00163149
0.000242759
-0.00234327
0.000329619
-0.00300644
0.000403451
-0.00357629
0.000459042
-0.00403553
0.000496214
-0.00439283
0.000518036
-0.00467261
0.000528754
-0.00490351
0.000532271
-0.00511045
0.000531445
-0.00531117
0.000528034
-0.00551633
0.00052295
-0.00573129
-0.00595713
0.000516432
2.10401e-05
-0.000312626
7.48805e-05
-0.00098428
0.000151156
-0.00170777
0.000236346
-0.00242846
0.000317023
-0.00308711
0.000383524
-0.00364279
0.000431637
-0.00408364
0.000461948
-0.00442314
0.000477878
-0.00468854
0.000483656
-0.00490929
0.000482946
-0.00510974
0.000478315
-0.00530654
0.000471284
-0.0055093
0.000462605
-0.00572261
-0.00594697
0.000452447
2.11493e-05
-0.000333775
7.43199e-05
-0.00103745
0.000148213
-0.00178166
0.000228882
-0.00250913
0.000303238
-0.00316147
0.000362492
-0.00370204
0.000403386
-0.00412454
0.000427174
-0.00444693
0.000437538
-0.0046989
0.000438625
-0.00491038
0.000433849
-0.00510496
0.000425498
-0.00529819
0.000414877
-0.00549868
0.000402607
-0.00571034
-0.00593317
0.00038881
2.11569e-05
-0.000354932
7.33946e-05
-0.00108969
0.000144567
-0.00185284
0.000220447
-0.00258501
0.000288394
-0.00322942
0.000340521
-0.00375417
0.000374465
-0.00415848
0.000392052
-0.00446452
0.000397142
-0.00470399
0.000393757
-0.00490699
0.000385047
-0.00509625
0.000373041
-0.00528618
0.000358852
-0.00548449
0.000342991
-0.00569448
-0.00591574
0.000325556
2.1062e-05
-0.000375994
7.21125e-05
-0.00114074
0.000140258
-0.00192098
0.000211124
-0.00265588
0.00027262
-0.00329091
0.000317767
-0.00379932
0.00034503
-0.00418574
0.00035672
-0.00447621
0.000356799
-0.00470407
0.000349129
-0.00489932
0.000336597
-0.00508372
0.000320986
-0.00527057
0.000303243
-0.00546675
0.000283793
-0.00567503
-0.00589466
0.000262712
2.08645e-05
-0.000396858
7.04847e-05
-0.00119036
0.000135325
-0.00198582
0.000200998
-0.00272155
0.000256042
-0.00334596
0.000294376
-0.00383765
0.000315224
-0.00420659
0.000321299
-0.00448228
0.000316604
-0.00469937
0.000304812
-0.00488753
0.000288548
-0.00506745
0.00026937
-0.00525139
0.000248079
-0.00544546
0.000225043
-0.00565199
-0.00586992
0.000200309
2.05654e-05
-0.000417424
6.85251e-05
-0.00123832
0.000129815
-0.00204711
0.000190156
-0.00278189
0.000238777
-0.00339458
0.00027048
-0.00386935
0.000285176
-0.00422129
0.000285898
-0.004483
0.000276638
-0.00469011
0.000260864
-0.00487176
0.000240945
-0.00504754
0.000218228
-0.00522868
0.000193386
-0.00542062
0.00016676
-0.00562537
-0.00584154
0.000138373
2.01666e-05
-0.00043759
6.62502e-05
-0.0012844
0.000123773
-0.00210463
0.00017868
-0.0028368
0.00022094
-0.00343684
0.000246203
-0.00389462
0.000254997
-0.00423008
0.000250608
-0.00447861
0.000236971
-0.00467648
0.000217336
-0.00485212
0.000193829
-0.00502403
0.000167604
-0.00520245
0.000139217
-0.00539223
0.000108943
-0.00559509
-0.00580942
7.68291e-05
1.96706e-05
-0.000457261
6.3678e-05
-0.00132841
0.000117248
-0.0021582
0.000166653
-0.0028862
0.000202634
-0.00347282
0.000221655
-0.00391364
0.000224789
-0.00423322
0.000215511
-0.00446934
0.000197663
-0.00465863
0.000174271
-0.00482873
0.000147232
-0.00499699
0.000117537
-0.00517275
8.56634e-05
-0.00536036
5.16577e-05
-0.00556109
-0.00577273
1.49666e-05
1.90808e-05
-0.000476342
6.08285e-05
-0.00137016
0.000110289
-0.00220767
0.000154154
-0.00293007
0.000183958
-0.00350262
0.000196936
-0.00392662
0.00019464
-0.00423092
0.000180675
-0.00445537
0.000158765
-0.00463672
0.000131708
-0.00480167
0.000101184
-0.00496647
6.80373e-05
-0.00513961
3.27339e-05
-0.00532505
-4.25103e-06
-0.0055241
-0.00573238
-4.46054e-05
1.84013e-05
-0.000494743
5.77223e-05
-0.00140948
0.000102943
-0.00225289
0.000141257
-0.00296838
0.000165002
-0.00352637
0.000172136
-0.00393375
0.000164628
-0.00422341
0.000146163
-0.00443691
0.000120321
-0.00461088
8.96793e-05
-0.00477103
5.57132e-05
-0.0049325
1.91302e-05