/*--------------------------------*- C++ -*----------------------------------*\
  =========                 |
  \\      /  F ield         | OpenFOAM: The Open Source CFD Toolbox
   \\    /   O peration     | Website:  https://openfoam.org
    \\  /    A nd           | Version:  7
     \\/     M anipulation  |
\*---------------------------------------------------------------------------*/
FoamFile
{
    version     2.0;
    format      ascii;
    class       volVectorField;
    location    "80";
    object      U;
}
// * * * * * * * * * * * * * * * * * * * * * * * * * * * * * * * * * * * * * //

dimensions      [0 1 -1 0 0 0 0];

internalField   nonuniform List<vector> 
20050
(
(-0.000618072 -0.00383424 4.42622e-21)
(-0.00390996 -0.0157571 -8.14599e-22)
(-0.0105146 -0.0304585 -1.01487e-20)
(-0.0189597 -0.0462542 -1.52517e-20)
(-0.0287493 -0.0619027 -1.38469e-21)
(-0.0394316 -0.0766532 9.37733e-21)
(-0.0506001 -0.0902294 -1.04497e-20)
(-0.0619176 -0.102754 2.66953e-21)
(-0.0731055 -0.114614 -7.39287e-21)
(-0.0839533 -0.126311 1.3586e-20)
(-0.0943295 -0.138336 1.15394e-20)
(-0.104189 -0.151088 -1.39912e-20)
(-0.113571 -0.16485 -7.1434e-21)
(-0.12257 -0.179795 7.54145e-21)
(-0.131325 -0.196059 -7.89409e-21)
(-0.000625694 -0.00256281 7.35183e-21)
(-0.00396637 -0.012643 -4.982e-21)
(-0.0107891 -0.0260242 -2.27797e-21)
(-0.0195389 -0.0408953 1.52888e-20)
(-0.0297075 -0.0559367 1.90026e-20)
(-0.0408277 -0.0703375 -4.6694e-20)
(-0.052477 -0.0837743 2.83793e-20)
(-0.0643057 -0.0963282 2.99685e-20)
(-0.0760281 -0.108346 3.89683e-20)
(-0.087434 -0.120285 -3.68303e-20)
(-0.0984016 -0.132588 2.49872e-20)
(-0.108904 -0.145608 2.32205e-20)
(-0.119004 -0.15959 1.33453e-20)
(-0.12884 -0.174686 -4.2574e-20)
(-0.138601 -0.191019 3.50982e-20)
(-0.000697933 -0.0011983 -3.02113e-20)
(-0.00416128 -0.00930762 -3.83208e-20)
(-0.0112215 -0.0212854 2.89359e-20)
(-0.0202589 -0.0351823 3.67216e-20)
(-0.0307599 -0.0495927 -2.33127e-20)
(-0.0422467 -0.0636373 -4.42532e-20)
(-0.0542842 -0.0769377 2.77612e-20)
(-0.0665123 -0.0895273 -7.97018e-20)
(-0.0786387 -0.101705 -3.81842e-20)
(-0.0904529 -0.11388 -3.1646e-20)
(-0.10184 -0.126445 -4.38549e-20)
(-0.11279 -0.139703 7.92165e-21)
(-0.123388 -0.153857 3.24169e-20)
(-0.13381 -0.169038 1.46321e-19)
(-0.14428 -0.185357 -5.62314e-20)
(-0.00083954 0.0002446 3.92981e-21)
(-0.00450239 -0.00578422 7.68161e-20)
(-0.0118157 -0.0162861 3.04796e-20)
(-0.0211168 -0.0291654 -5.32984e-20)
(-0.0318948 -0.0429236 1.28729e-20)
(-0.0436675 -0.0566065 4.95553e-20)
(-0.0559913 -0.0697738 4.6698e-20)
(-0.0684976 -0.0824046 3.04761e-20)
(-0.0808882 -0.094746 -5.82352e-20)
(-0.092951 -0.107154 1.6194e-19)
(-0.104576 -0.119966 -6.99071e-20)
(-0.115764 -0.133435 9.75887e-20)
(-0.126625 -0.147717 -3.20091e-20)
(-0.137363 -0.162924 -1.23492e-19)
(-0.148223 -0.179147 4.67826e-20)
(-0.00105383 0.00174922 1.09974e-19)
(-0.00499449 -0.00211009 -4.23788e-20)
(-0.0125724 -0.0110753 -2.85713e-21)
(-0.0221065 -0.0228993 3.08628e-20)
(-0.033098 -0.0359864 1.96775e-20)
(-0.0450672 -0.049302 2.575e-20)
(-0.0575665 -0.0623382 -1.01355e-19)
(-0.0702213 -0.0750149 -9.21462e-21)
(-0.0827275 -0.0875228 5.62498e-21)
(-0.0948697 -0.100161 -1.602e-19)
(-0.106539 -0.113212 1.43843e-19)
(-0.117745 -0.126869 -9.94099e-20)
(-0.128616 -0.141244 -4.58941e-20)
(-0.139384 -0.15642 -2.55116e-20)
(-0.150291 -0.172466 -6.22538e-20)
(-0.00134253 0.00329691 -6.52031e-20)
(-0.0056392 0.00167343 -2.73169e-20)
(-0.0134889 -0.00570605 -8.60649e-20)
(-0.0232189 -0.0164428 -1.46786e-20)
(-0.0343529 -0.0288416 -5.99199e-20)
(-0.0464213 -0.0417835 -4.91839e-20)
(-0.0589772 -0.0546889 -6.14984e-20)
(-0.0716424 -0.0674145 3.59283e-20)
(-0.0841069 -0.0800914 4.32687e-20)
(-0.0961503 -0.0929602 1.5554e-20)
(-0.107661 -0.106242 3.0873e-20)
(-0.11865 -0.120074 4.91065e-20)
(-0.129264 -0.134511 -8.49775e-20)
(-0.139754 -0.149606 -5.59096e-20)
(-0.150343 -0.165395 1.82064e-19)
(-0.00170555 0.00486758 -4.09014e-20)
(-0.00643466 0.00552211 -4.24476e-20)
(-0.0145586 -0.000235318 1.88531e-19)
(-0.0244416 -0.00985823 1.00416e-19)
(-0.0356404 -0.0215524 3.02984e-21)
(-0.0477032 -0.0341126 3.36791e-20)
(-0.0601892 -0.0468851 9.04278e-20)
(-0.0727188 -0.0596602 -6.08743e-20)
(-0.0849764 -0.0725074 4.36725e-20)
(-0.0967335 -0.0856073 5.58784e-20)
(-0.107871 -0.09912 -1.77269e-19)
(-0.118397 -0.113118 -3.37944e-20)
(-0.128471 -0.127597 -1.52745e-19)
(-0.138355 -0.142567 9.36996e-20)
(-0.148234 -0.158019 -1.14234e-19)
(-0.00214097 0.00644005 5.39943e-20)
(-0.00737541 0.00938941 -4.2161e-20)
(-0.0157714 0.00527741 -1.47281e-19)
(-0.0257588 -0.00321059 -1.62949e-19)
(-0.0369386 -0.0141844 -1.97454e-19)
(-0.0488846 -0.026353 5.1067e-20)
(-0.0611671 -0.038987 6.63575e-20)
(-0.0734078 -0.0518093 1.32526e-19)
(-0.0852848 -0.064827 -6.48719e-20)
(-0.0965593 -0.0781598 -5.63738e-20)
(-0.1071 -0.0919056 1.0794e-19)
(-0.116902 -0.10607 -1.11966e-19)
(-0.126135 -0.120579 1.04727e-19)
(-0.135069 -0.135388 -1.68085e-19)
(-0.143814 -0.150423 1.09451e-19)
(-0.00264493 0.00799255 -8.76099e-21)
(-0.00845231 0.0132274 4.41332e-20)
(-0.0171132 0.0107708 2.19983e-19)
(-0.0271516 0.00343334 2.11267e-19)
(-0.0382232 -0.00680486 8.55665e-20)
(-0.0499351 -0.0185695 -2.66658e-20)
(-0.0618741 -0.031056 -1.08013e-19)
(-0.073665 -0.0439198 4.90599e-20)
(-0.0849799 -0.0571057 2.40299e-20)
(-0.0955663 -0.0706737 -7.28467e-20)
(-0.105274 -0.0846593 -2.31013e-19)
(-0.11408 -0.0989972 -7.27752e-20)
(-0.122157 -0.113536 1.92529e-19)
(-0.129773 -0.128158 2.76892e-20)
(-0.136929 -0.1427 -2.27984e-19)
(-0.00321171 0.00950315 -8.4616e-20)
(-0.00965262 0.0169877 -2.31858e-19)
(-0.0185661 0.0161828 -2.5673e-19)
(-0.0285978 0.0100056 -1.56451e-19)
(-0.0394675 0.000517632 1.11049e-19)
(-0.0508228 -0.0108283 1.90364e-20)
(-0.0622721 -0.0231544 4.38663e-20)
(-0.0734455 -0.0360498 -4.20079e-20)
(-0.0840084 -0.0493989 3.82929e-19)
(-0.0936918 -0.063204 1.27996e-19)
(-0.102321 -0.0774395 2.10389e-19)
(-0.109845 -0.0919674 2.92572e-19)
(-0.116432 -0.106549 -2.1213e-19)
(-0.122345 -0.12097 3.31918e-19)
(-0.127419 -0.134943 4.42365e-20)
(-0.00383374 0.0109503 8.49808e-20)
(-0.0109601 0.0206224 1.32588e-19)
(-0.020109 0.0214513 1.14135e-19)
(-0.0300722 0.0164381 -1.34678e-19)
(-0.0406425 0.00771399 1.10152e-19)
(-0.0515144 -0.00319595 1.86585e-20)
(-0.0623219 -0.0153448 -3.13843e-19)
(-0.0727029 -0.0282578 2.80685e-19)
(-0.0823155 -0.0417615 -2.27666e-19)
(-0.0908714 -0.055804 -6.51989e-20)
(-0.0981658 -0.0703018 -1.79664e-21)
(-0.104109 -0.0850438 1.78342e-19)
(-0.108856 -0.0996935 2.28252e-19)
(-0.112667 -0.113914 -1.97093e-19)
(-0.115121 -0.127253 4.1358e-20)
(-0.00450182 0.0123134 -1.55735e-19)
(-0.0123555 0.0240849 4.61308e-20)
(-0.0217174 0.0265154 -1.0554e-19)
(-0.0315475 0.022663 -9.65496e-21)
(-0.0417177 0.014715 1.3272e-19)
(-0.0519752 0.00425995 -1.63516e-19)
(-0.0619836 -0.00769103 2.18676e-19)
(-0.07139 -0.0206029 -2.68026e-19)
(-0.0798452 -0.0342481 -3.45983e-19)
(-0.0870389 -0.0485253 1.01686e-19)
(-0.0927308 -0.0632984 2.11393e-19)
(-0.0967821 -0.0782853 -2.51783e-19)
(-0.0993232 -0.0930432 2.18997e-19)
(-0.100621 -0.107084 -3.76253e-19)
(-0.0998719 -0.11973 2.62365e-19)
(-0.0052053 0.0135732 4.14469e-19)
(-0.0138168 0.027331 -2.70448e-19)
(-0.0233643 0.0313161 1.24772e-19)
(-0.0329938 0.0286139 1.83573e-19)
(-0.0426609 0.0214518 -2.14478e-19)
(-0.0521697 0.0114717 3.18746e-19)
(-0.0612165 -0.000257489 -4.5487e-20)
(-0.069459 -0.0131448 -4.03526e-19)
(-0.0765406 -0.0269132 1.14337e-19)
(-0.0821264 -0.0414179 5.91685e-20)
(-0.0859363 -0.0564776 -2.95098e-19)
(-0.0877728 -0.0717442 2.48655e-19)
(-0.0877266 -0.0866641 -7.99003e-19)
(-0.0860949 -0.100569 6.53702e-19)
(-0.08151 -0.112481 -2.32925e-19)
(-0.00593239 0.0147123 -2.96275e-19)
(-0.0153195 0.03032 4.47205e-20)
(-0.0250205 0.035798 -2.41649e-19)
(-0.0343798 0.0342267 -2.09772e-19)
(-0.0434393 0.0278566 -2.2401e-19)
(-0.0520623 0.0183715 -3.58021e-19)
(-0.05998 0.00689051 4.49158e-19)
(-0.066862 -0.00594456 5.46413e-19)
(-0.0723438 -0.0198121 3.70471e-20)
(-0.0760644 -0.0345306 -2.71987e-19)
(-0.0777005 -0.0498829 1.81515e-20)
(-0.0769869 -0.0654648 2.36763e-19)
(-0.0739564 -0.0806114 -1.04122e-19)
(-0.0689863 -0.0944514 -2.52973e-20)
(-0.0598767 -0.105615 3.5195e-19)
(-0.00667047 0.0157158 1.86326e-19)
(-0.0168378 0.0330151 2.37789e-19)
(-0.0266554 0.0399091 7.30558e-20)
(-0.0356733 0.0394401 2.84029e-19)
(-0.0440194 0.0338633 1.19513e-19)
(-0.0516172 0.0248916 2.398e-19)
(-0.0582338 0.0136867 -2.62803e-20)
(-0.0635512 0.000935474 -2.43287e-19)
(-0.0671967 -0.0130011 1.16578e-19)
(-0.0687821 -0.0279115 4.21482e-19)
(-0.0679387 -0.0435541 1.49552e-19)
(-0.0643274 -0.0594819 -1.85257e-19)
(-0.0579005 -0.0749238 3.54456e-19)
(-0.0492027 -0.0887996 -2.36684e-19)
(-0.0348187 -0.0992392 2.87879e-20)
(-0.00740649 0.0165714 -3.18283e-20)
(-0.0183448 0.0353847 -9.27269e-20)
(-0.0282375 0.0436029 2.29817e-19)
(-0.0368414 0.0441969 1.41179e-19)
(-0.0443677 0.0394079 2.8379e-19)
(-0.0507991 0.0309651 -1.54152e-19)
(-0.0559385 0.020064 -3.47815e-19)
(-0.0594798 0.00743093 -1.59768e-19)
(-0.0610417 -0.00653851 -2.2709e-19)
(-0.0602078 -0.0216099 -5.11815e-19)
(-0.0565641 -0.0375284 -2.8517e-19)
(-0.0496935 -0.0538208 -7.80218e-20)
(-0.03944 -0.0696196 -3.4559e-19)
(-0.0266633 -0.0836603 -5.58281e-21)
(-0.00622361 -0.0933945 1.85374e-19)
(-0.00812741 0.0172701 -1.36343e-19)
(-0.0198134 0.037403 -8.45646e-20)
(-0.029735 0.0468387 1.36264e-20)
(-0.0378515 0.0484446 -6.01906e-19)
(-0.0444514 0.0444297 -5.6977e-19)
(-0.0495737 0.0365263 -2.2354e-19)
(-0.0530557 0.0259547 4.29069e-19)
(-0.0546022 0.0134753 -2.08761e-19)
(-0.0538221 -0.000485967 1.98642e-19)
(-0.0502703 -0.0156775 2.72779e-19)
(-0.0434881 -0.0318422 9.86609e-20)
(-0.0329799 -0.0484995 -1.84039e-19)
(-0.0184412 -0.0647083 2.04166e-19)
(-0.00123043 -0.0791152 1.70307e-19)
(0.0258671 -0.0879064 -2.40286e-19)
(-0.00882061 0.0178061 -3.60631e-20)
(-0.0212171 0.0390504 1.11254e-19)
(-0.031117 0.0495824 -3.26032e-19)
(-0.0386714 0.0521365 7.55074e-19)
(-0.0442381 0.048872 5.3879e-19)
(-0.0479075 0.0415114 8.83123e-20)
(-0.0495483 0.0312911 -2.72943e-19)
(-0.048874 0.0190004 1.09814e-19)
(-0.0454826 0.00509175 1.40866e-19)
(-0.0388995 -0.0101693 -3.51067e-19)
(-0.0286224 -0.0265334 4.22041e-19)
(-0.0140854 -0.0435318 1.64244e-19)
(0.00520539 -0.0601971 -2.73288e-19)
(0.0274208 -0.0753003 1.91859e-19)
(0.0614174 -0.0827315 7.19596e-20)
(-0.00947434 0.0181771 5.62009e-20)
(-0.0225306 0.0403142 2.88414e-19)
(-0.0323536 0.0518076 -1.34797e-20)
(-0.0392701 0.0552326 -4.39533e-19)
(-0.0436964 0.0526832 -3.17647e-19)
(-0.0457678 0.0458599 3.32962e-19)
(-0.0453801 0.0360067 4.63706e-19)
(-0.0422525 0.0239365 -6.95744e-20)
(-0.0359693 0.0101265 -2.0608e-19)
(-0.0260266 -0.00514527 5.20347e-19)
(-0.0118792 -0.0216424 -4.22127e-19)
(0.00708912 -0.0389281 2.23268e-19)
(0.0315183 -0.0560551 2.90983e-19)
(0.0594103 -0.0719718 -8.99035e-19)
(0.100928 -0.0781804 1.14382e-19)
(-0.0100781 0.0183846 1.60395e-19)
(-0.0237305 0.0411888 -1.28889e-19)
(-0.0334163 0.0534956 1.29161e-22)
(-0.0396173 0.0577004 9.74958e-20)
(-0.0427953 0.0558181 1.25036e-19)
(-0.043122 0.0495159 -3.68019e-19)
(-0.0405149 0.0400373 -1.76553e-19)
(-0.0346946 0.0282146 -3.63992e-19)
(-0.0252289 0.0145484 -3.58357e-19)
(-0.0115831 -0.000669621 3.09196e-19)
(0.00682896 -0.0172156 -3.47229e-19)
(0.0306672 -0.0346981 -3.97637e-20)
(0.06068 -0.0522071 1.0331e-19)
(0.0945969 -0.0688609 -4.5588e-20)
(0.144647 -0.0743141 3.65285e-19)
(-0.0106232 0.0184333 -5.08899e-20)
(-0.0247958 0.0416755 -3.45692e-19)
(-0.034279 0.0546366 -2.91488e-19)
(-0.0396837 0.0595159 -6.11423e-20)
(-0.0415034 0.0582391 5.48991e-20)
(-0.0399366 0.0524298 -1.10253e-20)
(-0.0349149 0.0433238 -6.75942e-20)
(-0.0261558 0.0317687 -5.33838e-20)
(-0.0132064 0.0182883 1.84832e-19)
(0.00450132 0.00318889 -1.41503e-19)
(0.0275888 -0.01331 4.09552e-19)
(0.0567519 -0.0308697 -4.44116e-19)
(0.0928686 -0.0486355 -3.28569e-19)
(0.133134 -0.0660346 2.29032e-19)
(0.19255 -0.070804 -2.77999e-19)
(-0.0111025 0.0183313 -1.32783e-19)
(-0.0257084 0.0417826 4.18179e-20)
(-0.034917 0.0552291 2.48661e-19)
(-0.0394405 0.0606646 -1.29594e-19)
(-0.0397884 0.0599176 2.06718e-19)
(-0.0361749 0.0545605 -6.83216e-20)
(-0.0285381 0.0458147 -3.53248e-19)
(-0.0165858 0.0345386 4.63712e-19)
(0.00015826 0.0212796 2.05875e-19)
(0.0222993 0.00636376 -5.86624e-19)
(0.050491 -0.00998519 5.75865e-20)
(0.0854437 -0.0274752 -1.30514e-20)
(0.128188 -0.0453009 6.70376e-19)
(0.175177 -0.0634792 1.36768e-19)
(0.244616 -0.0673902 3.82952e-19)
(-0.0115112 0.0180893 5.34641e-21)
(-0.026453 0.0415249 2.98113e-19)
(-0.0353077 0.0552803 -1.42958e-19)
(-0.0388588 0.0611419 1.96845e-19)
(-0.0376152 0.0608358 3.73177e-19)
(-0.0317955 0.0558776 4.76969e-19)
(-0.0213354 0.0474685 1.44393e-19)
(-0.005926 0.0364746 -2.9981e-20)
(0.0149367 0.0234665 5.8852e-19)
(0.0418947 0.00879803 6.6019e-19)
(0.0756316 -0.00729472 6.05609e-20)
(0.116849 -0.024551 6.40671e-19)
(0.166722 -0.0421754 7.21001e-22)
(0.220835 -0.0611028 -5.5524e-19)
(0.300764 -0.063841 -3.76172e-19)
(-0.0118464 0.0177207 1.61785e-19)
(-0.0270173 0.0409231 3.28036e-19)
(-0.0354294 0.0548063 5.43228e-20)
(-0.0379077 0.0609531 3.80209e-19)
(-0.034944 0.060987 -4.54706e-19)
(-0.0267485 0.0563632 -5.86869e-20)
(-0.0132455 0.0482582 -9.77527e-20)
(0.00589717 0.0375427 7.03371e-19)
(0.0312164 0.0248109 -9.63074e-19)
(0.0633896 0.01045 -6.58327e-19)
(0.103122 -0.00527818 2.51282e-19)
(0.151084 -0.0221255 -3.17228e-19)
(0.208536 -0.0392424 -8.5141e-20)
(0.270199 -0.0587925 2.61258e-19)
(0.360775 -0.0599063 9.28337e-19)
(-0.0121075 0.0172407 1.54068e-19)
(-0.0273915 0.0400027 -5.9895e-19)
(-0.0352615 0.0538305 1.30281e-19)
(-0.0365538 0.060114 -5.86554e-19)
(-0.031728 0.0603778 2.94726e-19)
(-0.0209731 0.056015 -1.96163e-19)
(-0.00419193 0.0481742 -2.14178e-19)
(0.018978 0.037729 -5.1882e-19)
(0.0491092 0.0252974 1.86652e-19)
(0.0869115 0.0113052 2.68726e-19)
(0.133096 -0.00394769 -1.44976e-20)
(0.18828 -0.0202017 2.61876e-19)
(0.253681 -0.0364854 -1.36991e-19)
(0.32335 -0.056414 -4.86131e-20)
(0.424223 -0.0553345 -6.33617e-20)
(-0.0122954 0.0166653 -6.77904e-19)
(-0.0275676 0.0387927 2.73507e-20)
(-0.0347823 0.0523834 -5.52632e-20)
(-0.0347594 0.058651 9.69055e-20)
(-0.0279114 0.0590283 -4.42126e-19)
(-0.0143938 0.054847 5.3753e-19)
(0.00592249 0.0472274 -1.5989e-20)
(0.0334365 0.0370442 -6.66171e-19)
(0.0687575 0.0249403 -6.17875e-19)
(0.11262 0.0113844 -5.30976e-19)
(0.165715 -0.00327526 -2.41517e-19)
(0.228582 -0.0187398 -1.53946e-19)
(0.302183 -0.0338775 -5.17079e-19)
(0.38034 -0.0537913 -3.50961e-19)
(0.490426 -0.0499093 4.20113e-19)
(-0.0124122 0.0160109 3.87687e-19)
(-0.0275385 0.0373248 3.07759e-19)
(-0.0339682 0.0505015 3.61985e-19)
(-0.0324805 0.0566005 -1.079e-19)
(-0.0234269 0.0569724 1.94836e-19)
(-0.00691749 0.0528919 -2.70522e-19)
(0.0172187 0.0454514 1.37322e-19)
(0.0494225 0.0355273 8.61849e-19)
(0.0903378 0.0237883 3.2936e-19)
(0.140708 0.0107508 7.05445e-19)
(0.201167 -0.00318373 2.67893e-19)
(0.272141 -0.017642 -4.90149e-20)
(0.354033 -0.0313711 4.62924e-19)
(0.441157 -0.050682 -4.88909e-19)
(0.558397 -0.0434858 -5.58639e-19)
(-0.012461 0.0152935 -3.4143e-19)
(-0.027297 0.0356318 -5.48716e-19)
(-0.0327925 0.0482262 1.148e-19)
(-0.029665 0.0540077 -2.17447e-19)
(-0.0181936 0.0542578 2.5822e-19)
(0.00156872 0.0502009 -5.4105e-19)
(0.0298436 0.0429044 1.57064e-19)
(0.0671171 0.0332476 -2.43673e-19)
(0.11406 0.0219278 -2.3275e-19)
(0.171401 0.00951209 -3.17041e-19)
(0.239656 -0.00354305 -5.4461e-19)
(0.319093 -0.0167473 5.51864e-20)
(0.409176 -0.0288896 4.77019e-19)
(0.505631 -0.0467318 3.8377e-19)
(0.62675 -0.0359502 2.68061e-19)
(-0.0124448 0.0145279 2.503e-19)
(-0.0268347 0.0337464 -3.96734e-20)
(-0.0312235 0.0456021 1.82915e-19)
(-0.0262516 0.0509258 5.84629e-19)
(-0.0121157 0.0509456 -6.33569e-19)
(0.0111985 0.0468442 5.66957e-19)
(0.0439704 0.0396691 -5.34062e-19)
(0.0867307 0.0303059 8.70095e-20)
(0.140161 0.0194826 2.32475e-19)
(0.204937 0.00781972 2.04553e-20)
(0.281384 -0.0041746 3.61642e-19)
(0.369524 -0.0158455 3.80311e-19)
(0.467513 -0.0263224 -2.62835e-19)
(0.573342 -0.0414109 -6.2473e-19)
(0.693651 -0.0271713 8.99806e-19)
(-0.012366 0.0137272 -1.54806e-19)
(-0.0261404 0.0316999 3.95414e-19)
(-0.0292234 0.0426757 -2.42041e-19)
(-0.0221685 0.0474146 -1.64309e-19)
(-0.00508197 0.0471086 3.35417e-19)
(0.0221257 0.0429097 -6.82541e-20)
(0.0597959 0.0358522 2.08142e-19)
(0.108497 0.0268325 1.24012e-18)
(0.168894 0.0166115 1.62369e-19)
(0.241554 0.00586286 8.38847e-20)
(0.326513 -0.00486319 -1.55669e-19)
(0.42343 -0.0147157 -2.27483e-19)
(0.528931 -0.0235205 -1.86025e-19)
(0.64366 -0.0340898 2.57303e-19)
(0.757334 -0.017677 -1.36526e-18)
(-0.0122256 0.0129022 4.8687e-19)
(-0.0251989 0.029521 4.17265e-19)
(-0.0267472 0.0394943 1.37161e-19)
(-0.0173327 0.0435392 -3.18923e-20)
(0.00303382 0.0428304 2.05176e-19)
(0.0345223 0.0385018 -1.5739e-19)
(0.0775348 0.0315828 -9.72298e-20)
(0.13266 0.0229852 -1.51651e-19)
(0.200507 0.0135041 -6.93614e-19)
(0.28145 0.00386081 1.65872e-19)
(0.37512 -0.00537158 6.53248e-20)
(0.480638 -0.0131618 7.22137e-20)
(0.593201 -0.0202638 5.46343e-19)
(0.715745 -0.0245999 -3.53364e-20)
(0.818143 -0.0106689 2.47335e-19)
(-0.0120224 0.012061 -7.69804e-19)
(-0.0239898 0.0272354 -2.97118e-19)
(-0.0237418 0.0361041 -7.69072e-20)
(-0.0116503 0.0393679 -6.52338e-21)
(0.0123712 0.0382031 -3.56112e-19)
(0.048574 0.0337389 1.6201e-19)
(0.0974119 0.0270087 1.52439e-20)
(0.159465 0.0189445 4.78878e-19)
(0.23522 0.0103739 -1.79601e-19)
(0.324754 0.00205395 -1.66507e-19)
(0.427147 -0.00545037 -2.30816e-20)
(0.540752 -0.0110061 -1.47447e-20)
(0.659654 -0.0162469 -5.0342e-19)
(0.787714 -0.0142346 1.26501e-19)
(0.880606 -0.0109464 -3.25094e-19)
(-0.0117523 0.0112089 5.61351e-19)
(-0.0224867 0.0248647 1.70385e-19)
(-0.0201456 0.0325497 -3.46662e-19)
(-0.00501727 0.034971 1.61436e-19)
(0.0230802 0.0333252 -6.32207e-19)
(0.0644739 0.0287501 1.24279e-19)
(0.11965 0.0222925 2.17998e-19)
(0.189134 0.014908 -4.9989e-19)
(0.273202 0.00745043 6.73019e-19)
(0.371498 0.000692549 3.9027e-19)
(0.482379 -0.00484724 2.60833e-19)
(0.603196 -0.00805321 7.50845e-20)
(0.727153 -0.0112105 -6.92542e-21)
(0.856096 -0.00575992 -1.32193e-19)
(0.951147 -0.0115278 5.83291e-19)
(-0.0114081 0.0103484 -6.31734e-19)
(-0.0206566 0.0224265 -5.61526e-19)
(-0.0158888 0.0288734 5.18448e-20)
(0.00267869 0.0304195 1.63044e-19)
(0.0353167 0.0282994 5.89917e-19)
(0.0824149 0.0236728 -1.94456e-19)
(0.144459 0.0176074 -7.60582e-19)
(0.221851 0.0110829 -5.93149e-19)
(0.314546 0.00496821 -3.72382e-19)
(0.421587 2.18724e-05 -6.98609e-19)
(0.540432 -0.00332967 2.72544e-19)
(0.66724 -0.00411914 1.53649e-19)
(0.794448 -0.00501982 1.42297e-19)
(0.921448 0.00227293 3.23278e-19)
(1.01625 -0.00497453 1.65586e-19)
(-0.0109788 0.00947973 4.2099e-19)
(-0.0184596 0.019935 3.77965e-19)
(-0.0108941 0.0251146 1.54519e-19)
(0.011556 0.0257838 -4.51667e-19)
(0.0492381 0.0232306 -2.94585e-19)
(0.102581 0.0186483 2.15298e-19)
(0.172019 0.0131311 2.92569e-19)
(0.257743 0.00767849 5.77363e-19)
(0.359243 0.00315543 1.75058e-19)
(0.474781 0.000265993 1.01914e-19)
(0.600752 -0.000707575 -6.05543e-19)
(0.732021 0.000938106 -4.46784e-19)
(0.860367 0.00234394 7.16748e-20)
(0.983209 0.0108142 -1.46402e-19)
(1.07433 0.00424359 3.50315e-19)
(-0.0104499 0.00860108 1.24584e-19)
(-0.0158493 0.0174008 -2.75537e-19)
(-0.0050779 0.0213099 -2.70685e-19)
(0.0217362 0.0211329 5.36528e-20)
(0.0649971 0.018224 2.4206e-19)
(0.125136 0.0138194 4.34709e-19)
(0.20247 0.00904108 -2.56787e-19)
(0.296858 0.00489804 2.59375e-19)
(0.407166 0.00222264 1.08186e-19)
(0.530692 0.00161331 -5.61828e-19)
(0.66263 0.00314996 1.13285e-19)
(0.796579 0.00718376 6.0537e-20)
(0.923846 0.0107889 -1.73599e-19)
(1.04057 0.0200219 -3.01828e-19)
(1.12602 0.0147606 -6.52179e-19)
(-0.00980321 0.00770923 7.71975e-20)
(-0.0127731 0.0148326 -1.05255e-19)
(0.00164804 0.0174939 2.68331e-19)
(0.03334 0.0165344 -2.38547e-19)
(0.0827358 0.013384 4.29688e-20)
(0.150218 0.00932697 -1.13306e-19)
(0.235894 0.00550962 -1.45483e-19)
(0.339156 0.00293146 8.54683e-20)
(0.458064 0.00235279 3.3128e-20)
(0.588782 0.0042055 5.21811e-19)
(0.72524 0.00830694 2.20483e-19)
(0.859914 0.0146017 2.48231e-19)
(0.983937 0.0201627 6.65111e-19)
(1.09292 0.0298347 -1.9585e-19)
(1.1711 0.0259342 3.58435e-19)
(-0.00901731 0.00680035 -2.34086e-19)
(-0.00917368 0.0122379 5.03331e-19)
(0.00937437 0.0137 1.42865e-19)
(0.0464841 0.0120547 6.35013e-19)
(0.102579 0.00881325 1.48916e-19)
(0.177926 0.00530828 -5.39741e-19)
(0.27231 0.00269971 2.34754e-19)
(0.384496 0.00194895 5.25691e-19)
(0.511557 0.0036934 -4.80821e-19)
(0.648389 0.00813077 -1.21701e-19)
(0.787683 0.0147611 -1.14922e-20)
(0.921061 0.0231055 -2.76083e-19)
(1.03986 0.0302819 -3.78197e-19)
(1.13986 0.0400998 3.61845e-19)
(1.20974 0.03733 1.31534e-19)
(-0.00806814 0.00587074 -7.94101e-20)
(-0.00498976 0.0096245 -2.80631e-19)
(0.0181919 0.00996142 3.97454e-19)
(0.061277 0.00775974 -2.80301e-19)
(0.124631 0.00461232 6.94272e-20)
(0.208316 0.00189495 -5.97632e-21)
(0.311663 0.000761611 3.29091e-19)
(0.432634 0.00209584 -4.18922e-19)
(0.567146 0.00635099 1.12421e-18)
(0.708757 0.0134219 2.35908e-19)
(0.849046 0.0224509 -2.21086e-19)
(0.979154 0.0325575 1.98352e-20)
(1.09103 0.0409511 -6.03209e-20)
(1.18121 0.0506359 7.64567e-20)
(1.24225 0.0486629 -5.00768e-19)
(-0.00692954 0.00491762 5.06173e-20)
(-0.00015806 0.00700195 -3.28309e-19)
(0.0281892 0.00631311 -3.08427e-19)
(0.0778157 0.00371592 -1.89107e-19)
(0.148966 0.000880216 -3.30244e-19)
(0.241394 -0.000787952 -1.64931e-19)
(0.353822 -0.00016988 -4.77512e-19)
(0.483229 0.00348871 1.66982e-19)
(0.624238 0.0103884 -7.90851e-19)
(0.76908 0.0200585 -1.55686e-19)
(0.908462 0.0312671 -5.79626e-19)
(1.03348 0.0427887 4.18013e-19)
(1.1371 0.0519805 3.31485e-19)
(1.217 0.0612715 6.50433e-22)
(1.26908 0.0597478 7.94615e-19)
(-0.00557402 0.00393982 4.01718e-20)
(0.00538529 0.00438294 3.29774e-19)
(0.0394501 0.0027929 4.85897e-19)
(0.0961817 -8.48047e-06 6.38481e-20)
(0.175627 -0.00228537 -2.39509e-19)
(0.27711 -0.00262271 2.12262e-19)
(0.398575 2.245e-05 2.22848e-20)
(0.535848 0.00621286 -2.28981e-19)
(0.682167 0.0158245 -1.91755e-19)
(0.828546 0.0279738 -1.91537e-19)
(0.965152 0.0410669 4.85769e-19)
(1.0835 0.053619 3.17558e-19)
(1.1779 0.0631986 -3.80729e-19)
(1.24745 0.0718631 2.81773e-19)
(1.29079 0.0704754 2.71673e-20)
(-0.00397347 0.00293838 1.03469e-19)
(0.011703 0.00178458 -7.1937e-19)
(0.0520509 -0.000556792 -5.05725e-19)
(0.116438 -0.00334217 -2.90541e-20)
(0.204624 -0.00478755 1.11255e-19)
(0.31536 -0.00349971 2.82004e-19)
(0.445639 0.00143644 -9.88004e-20)
(0.589983 0.010321 1.88167e-19)
(0.74023 0.0226371 4.63869e-19)
(0.886381 0.0370633 1.66324e-19)
(1.01847 0.0516885 1.75225e-19)
(1.12887 0.0648728 -7.73534e-20)
(1.21349 0.0744608 -2.00382e-19)
(1.27291 0.0823028 -6.5124e-19)
(1.308 0.0807935 -3.52912e-20)
(-0.00209989 0.00191704 -3.83654e-19)
(0.018855 -0.000770537 7.85314e-19)
(0.0660585 -0.00368781 -1.46722e-19)
(0.138627 -0.00620988 -4.66528e-20)
(0.235926 -0.00653006 -1.60649e-19)
(0.355981 -0.00331832 -3.07208e-19)
(0.494662 0.00414904 2.14083e-19)
(0.645073 0.015833 -3.90458e-19)
(0.79772 0.0307673 -1.56504e-19)
(0.941891 0.0471965 -1.12581e-19)
(1.06793 0.062965 -3.57608e-19)
(1.16943 0.0763907 7.66882e-20)
(1.24405 0.0856533 2.4908e-19)
(1.29381 0.0925183 3.70427e-20)
(1.32131 0.090691 -5.16008e-19)
(7.39401e-05 0.000882545 1.00731e-19)
(0.0268966 -0.00325363 5.13237e-20)
(0.0815278 -0.00654536 9.65106e-19)
(0.162766 -0.00853183 4.26549e-19)
(0.269464 -0.00741751 1.86301e-19)
(0.398757 -0.00198815 3.18742e-20)
(0.545232 0.00821502 -5.63333e-19)
(0.700524 0.0227377 6.37337e-19)
(0.853959 0.0401264 3.53668e-20)
(0.994488 0.0582272 1.45811e-19)
(1.11319 0.0747352 -1.32947e-19)
(1.20518 0.0880364 -4.08665e-19)
(1.26989 0.0966932 -6.04973e-19)
(1.31063 0.102469 7.9469e-19)
(1.33131 0.100186 1.09584e-19)
(0.00257384 -0.000155187 -6.36996e-21)
(0.0358773 -0.00562929 -3.75385e-19)
(0.0984997 -0.00906761 -3.61846e-19)
(0.188848 -0.0102237 -3.02241e-19)
(0.305127 -0.0073563 2.06135e-19)
(0.44342 0.000569389 -1.27421e-19)
(0.596895 0.0136661 4.0994e-19)
(0.755732 0.0309949 -3.21277e-19)
(0.908326 0.0506032 1.1437e-19)
(1.04371 0.0700043 -2.39732e-19)
(1.15408 0.0868516 5.20613e-20)
(1.23626 0.0997001 -1.71542e-19)
(1.29138 0.107526 1.6406e-19)
(1.32388 0.112141 -4.55129e-19)
(1.33854 0.109314 -1.63488e-19)
(0.00542373 -0.00118303 -5.35097e-19)
(0.045839 -0.00785537 4.76893e-19)
(0.116999 -0.0111858 -5.91387e-20)
(0.216835 -0.0111975 2.14454e-19)
(0.342765 -0.00625614 -3.39604e-19)
(0.489655 0.00441913 3.021e-19)
(0.649165 0.0205105 -3.46979e-19)
(0.810113 0.0405396 -2.05891e-19)
(0.960283 0.0620723 6.27135e-20)
(1.08921 0.0823803 -1.8583e-19)
(1.19055 0.0991862 -2.69653e-19)
(1.2629 0.111299 7.50911e-19)
(1.30895 0.118124 -9.18253e-20)
(1.33403 0.121541 4.85515e-19)
(1.34348 0.118123 -1.11375e-19)
(0.00864509 -0.00218474 1.00448e-19)
(0.056815 -0.00988332 -7.79859e-20)
(0.137032 -0.0128249 -4.73571e-19)
(0.246662 -0.0113626 -6.84005e-20)
(0.382187 -0.00403208 5.86866e-19)
(0.537109 0.00961031 -4.11652e-19)
(0.701541 0.0287338 6.07879e-19)
(0.863115 0.0512865 -3.09955e-19)
(1.00938 0.0744016 3.83013e-19)
(1.1308 0.0952174 2.92973e-19)
(1.22268 0.111632 -1.90156e-19)
(1.2854 0.122774 -2.89861e-19)
(1.32303 0.128476 3.25191e-19)
(1.34154 0.130688 -3.56305e-19)
(1.34654 0.126662 -1.88211e-19)
(0.0122565 -0.00314113 3.66492e-19)
(0.0688282 -0.0116587 -5.9584e-20)
(0.158587 -0.0139046 2.56563e-19)
(0.278233 -0.0106279 -3.12892e-19)
(0.423165 -0.000606961 -7.18148e-19)
(0.585399 0.0161749 1.06089e-19)
(0.753527 0.0382999 -1.6664e-19)
(0.914246 0.0631352 5.58815e-19)
(1.05529 0.0874586 -1.82828e-19)
(1.16836 0.108392 6.52128e-21)
(1.25062 0.124106 2.5341e-19)
(1.30412 0.134089 2.07147e-19)
(1.33404 0.13859 -4.93753e-19)
(1.34682 0.13961 2.91508e-19)
(1.34808 0.134982 3.39452e-19)
(0.0162734 -0.00403035 -1.58627e-19)
(0.0818906 -0.0131219 -7.85412e-20)
(0.18163 -0.0143411 -2.41909e-19)
(0.311423 -0.008904 1.61174e-19)
(0.465438 0.00408605 3.29418e-19)
(0.634123 0.0241265 -3.34292e-20)
(0.804642 0.0491535 3.07203e-19)
(0.963079 0.0759761 -3.17254e-19)
(1.09775 0.101116 3.38018e-19)
(1.20192 0.121799 -3.59425e-19)
(1.27461 0.136542 3.96064e-19)
(1.31941 0.145227 -3.73562e-19)
(1.34241 0.148483 -1.26724e-19)
(1.35022 0.148342 1.35514e-19)
(1.34838 0.143129 4.47649e-20)
(0.0207074 -0.00482815 1.20166e-19)
(0.096002 -0.0142095 -1.39499e-20)
(0.206106 -0.0140486 -3.14663e-19)
(0.346075 -0.00610555 2.39602e-19)
(0.508716 0.0101011 9.738e-20)
(0.68287 0.0334601 9.51898e-20)
(0.854441 0.0612235 -9.93242e-20)
(1.00926 0.0896947 -6.95771e-20)
(1.13662 0.115256 -5.85887e-19)
(1.23156 0.135349 3.5985e-19)
(1.29493 0.148898 -2.31478e-19)
(1.33165 0.156184 -4.8317e-20)
(1.34848 0.158179 7.7255e-19)
(1.35207 0.156919 -6.00157e-19)
(1.34768 0.151146 -4.16228e-19)
(0.025566 -0.0055083 -2.12294e-20)
(0.111149 -0.0148549 1.80369e-19)
(0.231938 -0.0129414 2.99518e-19)
(0.382006 -0.00215413 -3.92556e-20)
(0.552687 0.0174777 -2.2114e-19)
(0.731231 0.0441522 2.27899e-19)
(0.902518 0.0744257 -2.33302e-19)
(1.05252 0.104177 -1.31097e-19)
(1.17185 0.129772 3.86578e-19)
(1.25744 0.148969 2.70201e-19)
(1.31186 0.161144 4.6938e-20)
(1.34118 0.166966 1.95098e-19)
(1.3526 0.167707 -4.02453e-19)
(1.35262 0.165372 2.60407e-19)
(1.34615 0.159068 4.69268e-19)
(0.0308525 -0.00604297 -7.29747e-20)
(0.127305 -0.0149902 -4.95394e-19)
(0.259027 -0.0109364 -3.13715e-19)
(0.419007 0.00301947 -3.15098e-19)
(0.597024 0.0262393 -2.12197e-19)
(0.778813 0.0561627 1.09855e-19)
(0.948523 0.0886673 4.06349e-19)
(1.09267 0.11931 -1.35743e-19)
(1.20344 0.144571 2.33785e-19)
(1.27973 0.162606 -4.00172e-20)
(1.32571 0.173265 6.16602e-20)
(1.34834 0.177587 -1.08304e-19)
(1.35506 0.177094 4.19515e-20)
(1.35208 0.173734 -6.16141e-20)
(1.34394 0.166924 -1.69632e-19)
(0.036565 -0.00640313 1.17231e-19)
(0.144428 -0.0145471 5.22809e-19)
(0.287252 -0.00795451 -1.07737e-19)
(0.456849 0.00947311 2.53724e-19)
(0.641392 0.0363925 5.03228e-20)
(0.825244 0.069436 3.75551e-20)
(0.99216 0.10385 -1.9527e-19)
(1.12957 0.134991 2.26602e-19)
(1.23148 0.159571 -3.36746e-19)
(1.29868 0.176216 -1.79788e-19)
(1.33678 0.185256 -6.10158e-20)
(1.35343 0.188066 -4.36541e-20)
(1.35609 0.18637 -1.62445e-19)
(1.35064 0.182029 -2.28669e-20)
(1.34116 0.174736 8.07742e-20)
(0.0426968 -0.00655905 -3.69541e-20)
(0.162463 -0.0134586 2.30284e-20)
(0.316474 -0.00392344 2.97522e-19)
(0.495282 0.0172515 2.88041e-19)
(0.685458 0.0479272 1.20049e-19)
(0.870183 0.0839041 -2.09906e-19)
(1.03319 0.119873 6.82966e-20)
(1.16316 0.151121 1.79248e-19)
(1.25606 0.174706 -2.68831e-20)
(1.31453 0.18977 3.37432e-20)
(1.34537 0.197117 7.01786e-20)
(1.35671 0.198423 1.97613e-20)
(1.35591 0.195558 -1.58799e-19)
(1.34843 0.190279 -5.99208e-21)
(1.33788 0.182522 1.80007e-19)
(0.0492359 -0.00648079 2.40874e-20)
(0.181341 -0.0116602 -9.96636e-20)
(0.346532 0.00122102 -1.69472e-19)
(0.534045 0.0263847 -3.40436e-19)
(0.728892 0.0608169 -3.65006e-20)
(0.913327 0.0994884 1.64327e-19)
(1.07143 0.136634 -8.50686e-20)
(1.19345 0.167612 -2.20937e-19)
(1.27735 0.189918 -2.04715e-19)
(1.32751 0.203249 9.59257e-20)
(1.35174 0.208857 -5.29685e-20)
(1.35842 0.208676 -2.52309e-19)
(1.35469 0.204681 2.46181e-19)