/*--------------------------------*- C++ -*----------------------------------*\
  =========                 |
  \\      /  F ield         | OpenFOAM: The Open Source CFD Toolbox
   \\    /   O peration     | Website:  https://openfoam.org
    \\  /    A nd           | Version:  7
     \\/     M anipulation  |
\*---------------------------------------------------------------------------*/
FoamFile
{
    version     2.0;
    format      ascii;
    class       volScalarField;
    location    "20";
    object      p;
}
// * * * * * * * * * * * * * * * * * * * * * * * * * * * * * * * * * * * * * //

dimensions      [0 2 -2 0 0 0 0];

internalField   nonuniform List<scalar> 
10230
(
-0.292971
-0.298202
-0.300189
-0.300852
-0.300383
-0.298834
-0.296347
-0.293035
-0.289028
-0.284405
-0.279146
-0.293605
-0.298741
-0.300665
-0.301269
-0.300746
-0.299147
-0.296613
-0.293258
-0.289214
-0.284557
-0.279206
-0.294871
-0.299815
-0.301614
-0.302102
-0.30147
-0.299771
-0.297142
-0.293699
-0.289583
-0.284857
-0.279321
-0.29676
-0.30142
-0.30303
-0.303344
-0.302549
-0.300699
-0.297929
-0.294353
-0.290126
-0.285296
-0.279477
-0.299262
-0.303545
-0.304906
-0.304989
-0.303976
-0.301924
-0.298966
-0.29521
-0.29083
-0.285865
-0.279647
-0.302363
-0.306182
-0.307232
-0.307027
-0.305742
-0.303438
-0.300242
-0.296259
-0.291688
-0.286584
-0.279758
-0.306047
-0.309315
-0.309996
-0.309447
-0.307836
-0.305228
-0.301745
-0.297487
-0.292692
-0.287497
-0.279783
-0.310297
-0.312932
-0.313186
-0.312237
-0.310246
-0.307283
-0.303464
-0.298882
-0.2938
-0.288206
-0.280086
-0.315095
-0.317017
-0.316786
-0.315383
-0.31296
-0.309592
-0.305386
-0.30043
-0.295024
-0.289055
-0.280223
-0.32042
-0.321554
-0.320784
-0.318873
-0.315966
-0.312143
-0.307501
-0.30212
-0.296342
-0.28998
-0.280208
-0.326256
-0.326527
-0.325164
-0.322693
-0.319253
-0.314926
-0.309801
-0.303942
-0.297735
-0.29093
-0.280043
-0.332583
-0.331919
-0.32991
-0.326831
-0.32281
-0.317935
-0.312279
-0.305891
-0.299198
-0.291891
-0.279696
-0.339383
-0.337712
-0.33501
-0.331275
-0.326627
-0.321161
-0.314933
-0.307968
-0.300732
-0.292855
-0.279131
-0.346637
-0.343891
-0.340448
-0.336012
-0.330697
-0.324602
-0.317764
-0.310178
-0.302342
-0.293822
-0.278316
-0.354327
-0.350439
-0.346208
-0.341032
-0.335014
-0.328258
-0.320779
-0.312534
-0.304046
-0.294799
-0.277223
-0.362433
-0.357337
-0.352277
-0.346324
-0.339571
-0.332129
-0.323986
-0.315057
-0.30587
-0.295805
-0.275838
-0.370933
-0.364566
-0.358639
-0.351877
-0.344364
-0.336219
-0.327402
-0.317777
-0.307861
-0.296884
-0.274187
-0.379801
-0.372104
-0.365276
-0.357679
-0.349389
-0.340532
-0.331043
-0.320731
-0.310085
-0.298125
-0.272388
-0.389008
-0.379928
-0.372169
-0.363717
-0.354639
-0.345072
-0.334928
-0.323967
-0.312625
-0.299605
-0.270531
-0.398521
-0.388011
-0.379299
-0.369977
-0.360107
-0.349842
-0.339079
-0.327546
-0.315583
-0.301232
-0.268218
-0.408302
-0.396323
-0.38664
-0.37644
-0.365781
-0.35484
-0.343521
-0.331576
-0.319198
-0.303235
-0.265786
-0.418306
-0.40483
-0.394167
-0.383086
-0.371643
-0.360054
-0.348259
-0.336145
-0.323882
-0.308111
-0.273546
-0.428486
-0.413497
-0.401848
-0.389887
-0.377668
-0.365447
-0.35323
-0.341104
-0.329431
-0.318291
-0.316819
-0.438792
-0.422282
-0.409651
-0.396813
-0.383821
-0.370966
-0.358303
-0.346069
-0.334648
-0.325023
-0.33116
-0.449168
-0.431143
-0.417538
-0.403832
-0.390069
-0.376566
-0.363398
-0.350865
-0.339222
-0.329172
-0.335805
-0.459559
-0.440034
-0.425469
-0.410909
-0.396378
-0.382212
-0.36848
-0.355488
-0.343362
-0.332464
-0.338076
-0.469905
-0.448903
-0.433402
-0.418004
-0.402712
-0.387868
-0.373519
-0.359941
-0.347142
-0.335215
-0.338788
-0.480143
-0.457695
-0.441286
-0.425074
-0.40903
-0.393492
-0.378475
-0.364197
-0.350552
-0.337413
-0.338351
-0.490205
-0.466352
-0.449068
-0.432067
-0.415282
-0.399035
-0.383297
-0.368215
-0.353575
-0.339085
-0.337119
-0.500018
-0.474805
-0.456686
-0.438926
-0.42141
-0.404439
-0.387928
-0.371947
-0.356189
-0.340257
-0.335283
-0.509501
-0.482982
-0.46407
-0.445584
-0.427349
-0.409636
-0.3923
-0.375334
-0.358358
-0.340924
-0.332936
-0.518565
-0.490802
-0.471146
-0.451967
-0.433024
-0.41455
-0.396339
-0.378311
-0.360037
-0.341066
-0.330118
-0.527113
-0.498177
-0.477828
-0.457992
-0.438351
-0.419097
-0.399963
-0.380805
-0.36117
-0.340644
-0.326836
-0.535039
-0.50501
-0.484024
-0.463568
-0.443241
-0.423186
-0.403082
-0.382735
-0.361692
-0.339611
-0.32307
-0.54223
-0.511198
-0.489636
-0.468598
-0.447594
-0.426718
-0.405602
-0.384016
-0.361534
-0.33791
-0.318782
-0.548564
-0.516631
-0.494556
-0.472975
-0.451304
-0.42959
-0.407423
-0.384559
-0.36062
-0.335478
-0.313924
-0.553913
-0.521192
-0.498672
-0.47659
-0.454262
-0.431692
-0.408441
-0.38427
-0.358871
-0.332249
-0.308438
-0.558143
-0.52476
-0.501866
-0.479324
-0.456352
-0.432911
-0.40855
-0.383054
-0.356208
-0.328155
-0.302262
-0.561119
-0.527208
-0.504018
-0.481059
-0.457454
-0.433132
-0.407644
-0.380818
-0.352551
-0.32313
-0.295332
-0.562699
-0.52841
-0.505001
-0.481671
-0.457449
-0.432239
-0.405616
-0.377469
-0.347822
-0.317109
-0.287587
-0.562746
-0.528237
-0.504691
-0.481035
-0.456214
-0.430119
-0.402362
-0.372918
-0.34195
-0.310033
-0.27897
-0.561122
-0.526559
-0.502961
-0.479029
-0.453631
-0.42666
-0.397785
-0.367082
-0.334867
-0.301848
-0.269426
-0.557692
-0.523253
-0.499689
-0.475532
-0.449585
-0.421755
-0.39179
-0.359884
-0.326514
-0.292508
-0.258913
-0.55233
-0.518196
-0.494755
-0.470427
-0.443964
-0.415305
-0.384294
-0.351257
-0.316838
-0.281976
-0.247393
-0.544917
-0.511275
-0.488047
-0.463604
-0.436665
-0.407217
-0.375219
-0.341143
-0.305799
-0.27022
-0.234838
-0.535338
-0.50238
-0.479458
-0.45496
-0.427594
-0.39741
-0.364502
-0.329494
-0.293363
-0.257223
-0.221227
-0.523497
-0.491415
-0.468891
-0.444404
-0.416668
-0.385815
-0.352089
-0.316273
-0.279511
-0.242973
-0.206551
-0.509309
-0.478298
-0.456263
-0.431855
-0.403816
-0.372376
-0.33794
-0.301459
-0.26423
-0.227468
-0.190805
-0.492706
-0.462955
-0.441503
-0.417248
-0.388982
-0.357049
-0.32203
-0.285039
-0.247523
-0.210718
-0.173997
-0.473635
-0.445332
-0.424555
-0.40053
-0.372125
-0.33981
-0.304347
-0.267016
-0.2294
-0.192743
-0.156144
-0.452064
-0.42539
-0.405379
-0.381669
-0.35322
-0.320646
-0.284895
-0.247404
-0.209884
-0.17358
-0.137283
-0.427978
-0.403108
-0.383955
-0.360646
-0.332262
-0.299564
-0.263692
-0.226231
-0.189009
-0.153264
-0.117412
-0.401385
-0.378485
-0.360279
-0.337465
-0.309262
-0.276588
-0.240772
-0.203536
-0.166815
-0.131791
-0.0963462
-0.372313
-0.351539
-0.334368
-0.312146
-0.28425
-0.251758
-0.216185
-0.179379
-0.143361
-0.109178
-0.0739062
-0.340811
-0.322309
-0.30626
-0.284731
-0.257275
-0.225133
-0.189996
-0.153827
-0.118709
-0.0856247
-0.0517696
-0.306953
-0.290855
-0.276011
-0.255281
-0.228405
-0.196787
-0.162284
-0.126959
-0.092933
-0.0610178
-0.0286868
-0.27083
-0.257257
-0.243701
-0.223876
-0.197727
-0.166813
-0.133143
-0.0988642
-0.0661262
-0.0355713
-0.00473314
-0.232557
-0.221616
-0.209425
-0.190617
-0.165345
-0.13532
-0.102674
-0.0696489
-0.0383804
-0.00936215
0.0199123
-0.19227
-0.184053
-0.173303
-0.155622
-0.131379
-0.102418
-0.0710124
-0.0394256
-0.0097981
0.0175329
0.0451325
-0.150122
-0.144704
-0.135469
-0.119026
-0.0959637
-0.0682557
-0.0382789
-0.00831957
0.0195067
0.0450171
0.070811
-0.106271
-0.103736
-0.0960791
-0.0809821
-0.0592544
-0.0329787
-0.00461794
0.0235331
0.0494097
0.0729784
0.0968145
-0.0608798
-0.0613569
-0.0552993
-0.0416576
-0.0214136
0.00325485
0.0298174
0.0559871
0.0797788
0.101298
0.122983
-0.0142691
-0.0176629
-0.0133166
-0.0012339
0.0173834
0.0402764
0.0648668
0.0888904
0.110485
0.129876
0.149076
0.0334313
0.0270782
0.0296682
0.040097
0.0569513
0.0779102
0.100363
0.122085
0.141409
0.158614
0.174711
0.0819884
0.0726512
0.0734468
0.0821329
0.0970976
0.115976
0.136136
0.15541
0.1724
0.187197
0.199318
0.131153
0.118833
0.1178
0.124663
0.137624
0.15429
0.172021
0.18872
0.203242
0.214797
0.22137
0.18067
0.165387
0.1625
0.16747
0.178328
0.192671
0.20787
0.221923
0.233812
0.240758
0.239747
0.23029
0.212073
0.207314
0.210332
0.219005
0.230937
0.243536
0.254921
0.264243
0.26858
0.266587
0.279747
0.258641
0.252001
0.253023
0.259443
0.268895
0.278845
0.287533
0.294239
0.296312
0.293592
0.328777
0.304839
0.29632
0.295313
0.299431
0.306351
0.313614
0.319583
0.323619
0.323339
0.319383
0.377113
0.350414
0.340028
0.336975
0.338758
0.343114
0.347669
0.350908
0.352263
0.349611
0.344107
0.424492
0.395114
0.382885
0.377781
0.377216
0.378996
0.380841
0.381356
0.380042
0.375036
0.367802
0.470652
0.43869
0.424651
0.41751
0.414602
0.413815
0.412967
0.410784
0.406831
0.399499
0.390434
0.515338
0.480898
0.465093
0.455942
0.450717
0.447393
0.443894
0.439057
0.432516
0.422902
0.411954
0.558301
0.521498
0.503984
0.492868
0.485369
0.479561
0.473472
0.466051
0.456994
0.445162
0.432316
0.5993
0.56026
0.541104
0.528083
0.518377
0.510158
0.501563
0.491646
0.480166
0.466199
0.451477
0.638107
0.596965
0.576245
0.561394
0.549565
0.539031
0.528034
0.515731
0.50194
0.485941
0.46939
0.674502
0.631403
0.609207
0.592618
0.578769
0.566034
0.55276
0.5382
0.52223
0.504315
0.48601
0.708281
0.663375
0.639803
0.621582
0.605835
0.591033
0.575626
0.558956
0.540955
0.521256
0.501292
0.739254
0.6927
0.667859
0.648127
0.630618
0.613904
0.596525
0.577908
0.558037
0.5367
0.515192
0.767245
0.719209
0.693216
0.672105
0.65299
0.634532
0.615359
0.594974
0.573409
0.550588
0.527668
0.792095
0.742749
0.71573
0.693384
0.672831
0.652813
0.632039
0.610077
0.587005
0.562867
0.53868
0.813664
0.763185
0.735271
0.711848
0.690037
0.668657
0.646485
0.623151
0.598768
0.573487
0.548191
0.831829
0.780398
0.751729
0.727392
0.704517
0.681983
0.658631
0.634138
0.60865
0.582405
0.556169
0.846487
0.79429
0.76501
0.739933
0.716194
0.692726
0.668418
0.642987
0.616607
0.589584
0.562586
0.857554
0.804779
0.775037
0.749399
0.725006
0.70083
0.675799
0.649659
0.622605
0.594995
0.567419
0.864967
0.811806
0.781754
0.75574
0.730907
0.706256
0.680739
0.654125
0.626618
0.598616
0.570651
0.868684
0.81533
0.785122
0.758919
0.733865
0.708976
0.683215
0.656362
0.628629
0.60043
0.57227
0.868684
0.81533
0.785122
0.758919
0.733865
0.708976
0.683215
0.656362
0.628629
0.60043
0.57227
0.864967
0.811806
0.781754
0.75574
0.730907
0.706256
0.680739
0.654125
0.626618
0.598616
0.570651
0.857554
0.804779
0.775037
0.749399
0.725006
0.70083
0.675799
0.649659
0.622605
0.594995
0.567419
0.846487
0.79429
0.76501
0.739933
0.716194
0.692726
0.668418
0.642987
0.616607
0.589584
0.562586
0.831829
0.780398
0.751729
0.727392
0.704517
0.681983
0.658631
0.634138
0.60865
0.582405
0.556169
0.813664
0.763185
0.735271
0.711848
0.690037
0.668657
0.646485
0.623151
0.598768
0.573487
0.548191
0.792095
0.742749
0.71573
0.693384
0.672831
0.652813
0.632039
0.610077
0.587005
0.562867
0.53868
0.767245
0.719209
0.693216
0.672105
0.65299
0.634532
0.615359
0.594974
0.573409
0.550588
0.527668
0.739254
0.6927
0.667859
0.648127
0.630618
0.613904
0.596525
0.577908
0.558037
0.5367
0.515192
0.708281
0.663375
0.639803
0.621582
0.605834
0.591033
0.575626
0.558956
0.540955
0.521256
0.501292
0.674502
0.631403
0.609207
0.592618
0.578769
0.566034
0.55276
0.5382
0.52223
0.504315
0.48601
0.638107
0.596965
0.576245
0.561394
0.549565
0.539031
0.528034
0.515731
0.50194
0.485941
0.46939
0.5993
0.56026
0.541104
0.528083
0.518377
0.510158
0.501563
0.491646
0.480166
0.466199
0.451477
0.558301
0.521498
0.503984
0.492868
0.485369
0.479561
0.473472
0.466051
0.456994
0.445162
0.432316
0.515338
0.480898
0.465093
0.455942
0.450717
0.447393
0.443894
0.439057
0.432516
0.422902
0.411954
0.470652
0.43869
0.424651
0.41751
0.414602
0.413814
0.412967
0.410784
0.406831
0.399499
0.390434
0.424492
0.395114
0.382885
0.377781
0.377216
0.378996
0.380841
0.381356
0.380042
0.375036
0.367802
0.377113
0.350414
0.340028
0.336975
0.338758
0.343114
0.347669
0.350908
0.352263
0.349611
0.344107
0.328777
0.304839
0.29632
0.295313
0.299431
0.306351
0.313614
0.319583
0.323619
0.323339
0.319383
0.279747
0.258641
0.252001
0.253023
0.259443
0.268895
0.278845
0.287533
0.294238
0.296312
0.293592
0.23029
0.212073
0.207313
0.210332
0.219005
0.230937
0.243536
0.254921
0.264243
0.268579
0.266587
0.18067
0.165387
0.1625
0.16747
0.178328
0.192671
0.20787
0.221923
0.233812
0.240758
0.239747
0.131153
0.118833
0.1178
0.124663
0.137624
0.15429
0.172021
0.18872
0.203242
0.214797
0.22137
0.0819884
0.0726512
0.0734468
0.0821328
0.0970975
0.115975
0.136136
0.15541
0.1724
0.187197
0.199318
0.0334313
0.0270782
0.0296681
0.0400969
0.0569513
0.0779102
0.100363
0.122085
0.141409
0.158614
0.174711
-0.0142691
-0.0176629
-0.0133166
-0.00123392
0.0173834
0.0402764
0.0648668
0.0888904
0.110485
0.129876
0.149076
-0.0608798
-0.061357
-0.0552993
-0.0416576
-0.0214136
0.00325483
0.0298174
0.0559871
0.0797788
0.101298
0.122983
-0.106271
-0.103736
-0.0960791
-0.0809821
-0.0592544
-0.0329787
-0.00461795
0.023533
0.0494097
0.0729784
0.0968145
-0.150122
-0.144704
-0.135469
-0.119026
-0.0959637
-0.0682557
-0.0382789
-0.00831959
0.0195067
0.0450171
0.070811
-0.19227
-0.184053
-0.173303
-0.155622
-0.131379
-0.102418
-0.0710125
-0.0394256
-0.00979812
0.0175329
0.0451325
-0.232557
-0.221616
-0.209425
-0.190617
-0.165345
-0.13532
-0.102674
-0.0696489
-0.0383804
-0.00936217
0.0199123
-0.27083
-0.257257
-0.243701
-0.223876
-0.197727
-0.166813
-0.133143
-0.0988643
-0.0661262
-0.0355713
-0.00473316
-0.306953
-0.290855
-0.276011
-0.255281
-0.228405
-0.196787
-0.162284
-0.126959
-0.092933
-0.0610178
-0.0286868
-0.340811
-0.322309
-0.30626
-0.284731
-0.257275
-0.225133
-0.189996
-0.153827
-0.118709
-0.0856247
-0.0517696
-0.372313
-0.351539
-0.334368
-0.312146
-0.28425
-0.251758
-0.216185
-0.179379
-0.143361
-0.109178
-0.0739062
-0.401385
-0.378485
-0.360279
-0.337465
-0.309262
-0.276588
-0.240772
-0.203536
-0.166815
-0.131791
-0.0963462
-0.427978
-0.403108
-0.383955
-0.360646
-0.332262
-0.299564
-0.263692
-0.226231
-0.189009
-0.153264
-0.117412
-0.452064
-0.42539
-0.405379
-0.381669
-0.35322
-0.320646
-0.284895
-0.247404
-0.209884
-0.17358
-0.137283
-0.473635
-0.445332
-0.424555
-0.40053
-0.372125
-0.33981
-0.304347
-0.267016
-0.2294
-0.192743
-0.156144
-0.492706
-0.462955
-0.441503
-0.417248
-0.388982
-0.357049
-0.32203
-0.285039
-0.247523
-0.210718
-0.173997
-0.509309
-0.478298
-0.456263
-0.431855
-0.403816
-0.372376
-0.33794
-0.301459
-0.26423
-0.227468
-0.190805
-0.523497
-0.491416
-0.468891
-0.444404
-0.416668
-0.385815
-0.352089
-0.316273
-0.279511
-0.242973
-0.206551
-0.535338
-0.50238
-0.479458
-0.45496
-0.427594
-0.39741
-0.364502
-0.329494
-0.293363
-0.257223
-0.221227
-0.544917
-0.511275
-0.488047
-0.463604
-0.436665
-0.407217
-0.37522
-0.341143
-0.305799
-0.270221
-0.234838
-0.55233
-0.518196
-0.494755
-0.470427
-0.443964
-0.415305
-0.384294
-0.351257
-0.316838
-0.281976
-0.247393
-0.557692
-0.523253
-0.499689
-0.475532
-0.449585
-0.421755
-0.39179
-0.359884
-0.326514
-0.292508
-0.258913
-0.561122
-0.526559
-0.502961
-0.479029
-0.453631
-0.42666
-0.397785
-0.367082
-0.334867
-0.301848
-0.269427
-0.562746
-0.528237
-0.504691
-0.481035
-0.456214
-0.430119
-0.402362
-0.372918
-0.34195
-0.310033
-0.27897
-0.562699
-0.52841
-0.505001
-0.481671
-0.457449
-0.432239
-0.405616
-0.377469
-0.347822
-0.317109
-0.287587
-0.561119
-0.527208
-0.504018
-0.481059
-0.457454
-0.433132
-0.407644
-0.380818
-0.352551
-0.32313
-0.295332
-0.558143
-0.52476
-0.501866
-0.479324
-0.456352
-0.432911
-0.40855
-0.383054
-0.356208
-0.328155
-0.302262
-0.553913
-0.521192
-0.498672
-0.47659
-0.454262
-0.431692
-0.408441
-0.38427
-0.358871
-0.332249
-0.308438
-0.548564
-0.516631
-0.494556
-0.472975
-0.451304
-0.42959
-0.407423
-0.384559
-0.36062
-0.335478
-0.313925
-0.54223
-0.511198
-0.489636
-0.468598
-0.447594
-0.426718
-0.405602
-0.384016
-0.361534
-0.33791
-0.318782
-0.535039
-0.50501
-0.484024
-0.463568
-0.443241
-0.423186
-0.403082
-0.382735
-0.361692
-0.339611
-0.32307
-0.527113
-0.498177
-0.477828
-0.457992
-0.438351
-0.419097
-0.399963
-0.380805
-0.36117
-0.340644
-0.326836
-0.518565
-0.490802
-0.471146
-0.451967
-0.433024
-0.41455
-0.396339
-0.378311
-0.360037
-0.341066
-0.330118
-0.509501
-0.482982
-0.46407
-0.445584
-0.427349
-0.409636
-0.3923
-0.375334
-0.358358
-0.340924
-0.332936
-0.500018
-0.474805
-0.456686
-0.438926
-0.42141
-0.404439
-0.387928
-0.371947
-0.356189
-0.340257
-0.335283
-0.490205
-0.466352
-0.449068
-0.432067
-0.415282
-0.399035
-0.383297
-0.368215
-0.353575
-0.339085
-0.337119
-0.480143
-0.457695
-0.441286
-0.425074
-0.40903
-0.393492
-0.378475
-0.364197
-0.350552
-0.337413
-0.338351
-0.469905
-0.448903
-0.433402
-0.418004
-0.402712
-0.387868
-0.373519
-0.359941
-0.347142
-0.335215
-0.338788
-0.459559
-0.440034
-0.425469
-0.410909
-0.396378
-0.382212
-0.36848
-0.355488
-0.343362
-0.332464
-0.338076
-0.449168
-0.431143
-0.417538
-0.403832
-0.390069
-0.376566
-0.363398
-0.350865
-0.339222
-0.329172
-0.335805
-0.438792
-0.422282
-0.409651
-0.396813
-0.383821
-0.370966
-0.358303
-0.346069
-0.334648
-0.325023
-0.331161
-0.428486
-0.413497
-0.401848
-0.389887
-0.377668
-0.365447
-0.35323
-0.341104
-0.329431
-0.318291
-0.316819
-0.418306
-0.40483
-0.394167
-0.383086
-0.371643
-0.360054
-0.348259
-0.336145
-0.323882
-0.308111
-0.273546
-0.408302
-0.396323
-0.38664
-0.37644
-0.365781
-0.35484
-0.343521
-0.331576
-0.319198
-0.303236
-0.265786
-0.398521
-0.388011
-0.379299
-0.369977
-0.360107
-0.349842
-0.339079
-0.327546
-0.315583
-0.301232
-0.268218
-0.389008
-0.379928
-0.372169
-0.363717
-0.354639
-0.345072
-0.334928
-0.323967
-0.312625
-0.299605
-0.270531
-0.379801
-0.372104
-0.365276
-0.357679
-0.349389
-0.340532
-0.331043
-0.320731
-0.310085
-0.298125
-0.272388
-0.370933
-0.364566
-0.358639
-0.351877
-0.344364
-0.336219
-0.327402
-0.317777
-0.307861
-0.296884
-0.274187
-0.362433
-0.357337
-0.352277
-0.346324
-0.339571
-0.332129
-0.323986
-0.315057
-0.30587
-0.295805
-0.275838
-0.354327
-0.350439
-0.346208
-0.341032
-0.335014
-0.328258
-0.320779
-0.312534
-0.304046
-0.294799
-0.277223
-0.346637
-0.343891
-0.340448
-0.336012
-0.330697
-0.324602
-0.317764
-0.310178
-0.302342
-0.293822
-0.278316
-0.339383
-0.337712
-0.33501
-0.331275
-0.326627
-0.321161
-0.314933
-0.307968
-0.300732
-0.292855
-0.279131
-0.332583
-0.331919
-0.32991
-0.326831
-0.32281
-0.317935
-0.312279
-0.305891
-0.299198
-0.291891
-0.279696
-0.326256
-0.326527
-0.325164
-0.322693
-0.319253
-0.314926
-0.309801
-0.303942
-0.297735
-0.29093
-0.280043
-0.32042
-0.321554
-0.320784
-0.318873
-0.315966
-0.312143
-0.307501
-0.30212
-0.296342
-0.28998
-0.280208
-0.315095
-0.317017
-0.316786
-0.315383
-0.31296
-0.309592
-0.305386
-0.30043
-0.295024
-0.289055
-0.280223
-0.310297
-0.312932
-0.313186
-0.312237
-0.310246
-0.307283
-0.303464
-0.298882
-0.2938
-0.288206
-0.280086
-0.306047
-0.309315
-0.309996
-0.309447
-0.307836
-0.305228
-0.301745
-0.297487
-0.292692
-0.287497
-0.279783
-0.302363
-0.306182
-0.307232
-0.307027
-0.305742
-0.303438
-0.300242
-0.296259
-0.291688
-0.286584
-0.279758
-0.299262
-0.303545
-0.304906
-0.304989
-0.303976
-0.301924
-0.298966
-0.29521
-0.29083
-0.285865
-0.279647
-0.29676
-0.30142
-0.30303
-0.303344
-0.302549
-0.300699
-0.297929
-0.294353
-0.290126
-0.285296
-0.279477
-0.294871
-0.299815
-0.301614
-0.302102
-0.30147
-0.299771
-0.297142
-0.293699
-0.289583
-0.284857
-0.279321
-0.293605
-0.298741
-0.300665
-0.301269
-0.300746
-0.299147
-0.296613
-0.293258
-0.289214
-0.284557
-0.279206
-0.292971
-0.298202
-0.300189
-0.300852
-0.300383
-0.298834
-0.296347
-0.293035
-0.289028
-0.284405
-0.279146
-0.274137
-0.266758
-0.258959
-0.250118
-0.240455
-0.230063
-0.219043
-0.207524
-0.195635
-0.183507
-0.171265
-0.159027
-0.1469
-0.134977
-0.123344
-0.112071
-0.101217
-0.0908346
-0.0809511
-0.071617
-0.0628053
-0.054617
-0.0468805
-0.0399176
-0.0331223
-0.0275484
-0.021296
-0.0176012
-0.0108799
-0.0104789
-0.000757312
-0.0074453
0.011603
-0.274526
-0.267002
-0.259177
-0.250313
-0.240629
-0.230221
-0.219187
-0.207657
-0.195758
-0.183621
-0.171371
-0.159126
-0.146991
-0.135061
-0.123421
-0.112142
-0.101281
-0.0908923
-0.0810028
-0.0716631
-0.0628461
-0.0546528
-0.0469119
-0.0399447
-0.0331459
-0.0275679
-0.0213137
-0.0176139
-0.0108941
-0.0104841
-0.00077255
-0.00743974
0.011576
-0.2753
-0.267478
-0.259609
-0.2507
-0.240974
-0.230534
-0.219473
-0.20792
-0.196002
-0.183848
-0.171582
-0.159321
-0.147172
-0.135229
-0.123575
-0.112282
-0.101409
-0.0910074
-0.081106
-0.0717551
-0.0629276
-0.0547244
-0.0469745
-0.0399987
-0.033193
-0.0276069
-0.021349
-0.0176393
-0.0109226
-0.0104947
-0.000802971
-0.00742867
0.0115223
-0.276453
-0.268174
-0.26025
-0.251272
-0.241484
-0.230997
-0.219896
-0.20831
-0.196364
-0.184184
-0.171895
-0.159613
-0.147442
-0.135478
-0.123804
-0.112492
-0.101599
-0.0911795
-0.0812604
-0.0718928
-0.0630495
-0.0548315
-0.0470683
-0.0400796
-0.0332636
-0.0276653
-0.0214018
-0.0176773
-0.0109652
-0.0105105
-0.000848474
-0.00741221
0.0114421
-0.277991
-0.269077
-0.261088
-0.252019
-0.242148
-0.231601
-0.220449
-0.208821
-0.196838
-0.184626
-0.172308
-0.159997
-0.147799
-0.135809
-0.124108
-0.11277
-0.101852
-0.0914078
-0.0814654
-0.0720756
-0.0632115
-0.0549739
-0.0471929
-0.0401871
-0.0333573
-0.0277429
-0.0214721
-0.0177279
-0.011022
-0.0105316
-0.000908903
-0.00739049
0.0113357
-0.279928
-0.270158
-0.262108
-0.252929
-0.242956
-0.232336
-0.221123
-0.209444
-0.197418
-0.185169
-0.172815
-0.160471
-0.14824
-0.136217
-0.124484
-0.113115
-0.102166
-0.0916915
-0.0817202
-0.0723029
-0.063413
-0.0551511
-0.0473481
-0.040321
-0.0334742
-0.0278397
-0.0215597
-0.0177909
-0.0110926
-0.0105581
-0.000984054
-0.00736373
0.0112038
-0.282153
-0.271448
-0.263291
-0.253986
-0.243894
-0.233188
-0.221906
-0.210171
-0.198097
-0.185805
-0.173412
-0.161029
-0.148761
-0.136701
-0.124931
-0.113524
-0.102539
-0.0920294
-0.082024
-0.0725741
-0.0636535
-0.0553627
-0.0475335
-0.0404809
-0.0336138
-0.0279553
-0.0216644
-0.0178664
-0.011177
-0.0105899
-0.00107368
-0.00733217
0.011047
-0.284572
-0.272964
-0.264624
-0.255172
-0.244945
-0.234144
-0.222786
-0.21099
-0.198866
-0.186528
-0.174093
-0.161669
-0.149359
-0.137257
-0.125445
-0.113997
-0.10297
-0.0924201
-0.0823755
-0.0728881
-0.0639322
-0.055608
-0.0477485
-0.0406665
-0.0337758
-0.0280895
-0.021786
-0.017954
-0.011275
-0.0106271
-0.00117747
-0.0072961
0.0108661
-0.287291
-0.274621
-0.26608
-0.256467
-0.246091
-0.235188
-0.223749
-0.211891
-0.199714
-0.18733
-0.174851
-0.162383
-0.150029
-0.137882
-0.126025
-0.11453
-0.103457
-0.0928621
-0.0827736
-0.0732441
-0.0642483
-0.0558863
-0.0479926
-0.0408773
-0.0339599
-0.0282421
-0.0219241
-0.0180538
-0.0113863
-0.0106697
-0.0012951
-0.00725582
0.010662
-0.29028
-0.276408
-0.267639
-0.257852
-0.247313
-0.236302
-0.224782
-0.212861
-0.200633
-0.188203
-0.175679
-0.163167
-0.150767
-0.138572
-0.126666
-0.115121
-0.103998
-0.0933537
-0.0832168
-0.0736408
-0.0646008
-0.0561969
-0.0482652
-0.0411127
-0.0341656
-0.0284126
-0.0220786
-0.0181655
-0.0115107
-0.0107177
-0.00142618
-0.0072117
0.0104357
-0.293499
-0.278312
-0.269278
-0.259303
-0.248592
-0.23747
-0.225869
-0.213888
-0.201611
-0.189137
-0.17657
-0.164014
-0.151567
-0.139323
-0.127365
-0.115768
-0.104591
-0.0938929
-0.0837037
-0.0740769
-0.0649887
-0.0565389
-0.0485655
-0.0413721
-0.0343925
-0.0286007
-0.0222491
-0.0182889
-0.0116479
-0.0107713
-0.0015703
-0.0071641
0.0101882
-0.296895
-0.280314
-0.27097
-0.260795
-0.249907
-0.238674
-0.226996
-0.21496
-0.202638
-0.190124
-0.177518
-0.164918
-0.152425
-0.140131
-0.12812
-0.116466
-0.105233
-0.0944779
-0.0842324
-0.074551
-0.0654108
-0.0569113
-0.0488927
-0.041655
-0.0346399
-0.0288059
-0.0224352
-0.0184238
-0.0117977
-0.0108304
-0.001727
-0.0071134
0.0099208
-0.30043
-0.282396
-0.272688
-0.262304
-0.251239
-0.239897
-0.228148
-0.216063
-0.203704
-0.191156
-0.178513
-0.165874
-0.153335
-0.140991
-0.128925
-0.117214
-0.105921
-0.0951063
-0.0848013
-0.0750617
-0.0658659
-0.0573131
-0.0492459
-0.0419605
-0.0349074
-0.0290279
-0.0226364
-0.0185699
-0.0119595
-0.010895
-0.00189579
-0.00706001
0.00963465
-0.304038
-0.28454
-0.274406
-0.263805
-0.252568
-0.241123
-0.229311
-0.217188
-0.204799
-0.192224
-0.17955
-0.166874
-0.154293
-0.141899
-0.129778
-0.118008
-0.106654
-0.095776
-0.0854084
-0.0756074
-0.0663525
-0.0577431
-0.0496243
-0.0422878
-0.0351941
-0.0292659
-0.0228524
-0.018727
-0.0121332
-0.0109651
-0.00207618
-0.00700434
0.00933106
-0.307632
-0.286724
-0.276097
-0.26527
-0.253875
-0.242337
-0.230474
-0.218322
-0.205914
-0.193319
-0.18062
-0.167913
-0.155291
-0.14285
-0.130674
-0.118845
-0.107428
-0.0964847
-0.0860518
-0.0761864
-0.0668695
-0.0582002
-0.0500268
-0.0426363
-0.0354996
-0.0295196
-0.0230827
-0.0188947
-0.0123182
-0.0110409
-0.00226762
-0.00694681
0.00901136
-0.311086
-0.288924
-0.277737
-0.266672
-0.255141
-0.243525
-0.231625
-0.219458
-0.207041
-0.194434
-0.181719
-0.168985
-0.156327
-0.14384
-0.131611
-0.119722
-0.10824
-0.0972304
-0.0867298
-0.0767972
-0.0674155
-0.0586834
-0.0504526
-0.043005
-0.035823
-0.0297884
-0.0233267
-0.0190729
-0.0125142
-0.0111222
-0.00246958
-0.00688783
0.00867688
-0.314219
-0.291096
-0.279296
-0.267982
-0.256346
-0.244674
-0.232753
-0.220583
-0.208169
-0.195562
-0.182837
-0.170083
-0.157393
-0.144864
-0.132583
-0.120634
-0.109087
-0.0980095
-0.0874394
-0.0774373
-0.0679883
-0.0591906
-0.0508999
-0.0433926
-0.0361633
-0.0300712
-0.0235837
-0.0192608
-0.0127206
-0.0112089
-0.00268144
-0.00682769
0.00832899
-0.31673
-0.293141
-0.280742
-0.269166
-0.25747
-0.245768
-0.233844
-0.221687
-0.209288
-0.19669
-0.183964
-0.171196
-0.15848
-0.145911
-0.133581
-0.121574
-0.109962
-0.0988156
-0.0881748
-0.0781017
-0.0685834
-0.0597182
-0.0513657
-0.0437964
-0.0365183
-0.0303665
-0.0238523
-0.0194576
-0.0129366
-0.0113007
-0.00290251
-0.00676666
0.00796906
-0.318172
-0.294983
-0.282088
-0.270225
-0.258512
-0.246811
-0.234902
-0.222771
-0.210399
-0.19782
-0.185101
-0.172325
-0.159588
-0.146983
-0.134605
-0.122541
-0.110866
-0.0996494
-0.0889368
-0.078791
-0.0692018
-0.0602669
-0.0518508
-0.0442174
-0.0368886
-0.030675
-0.024133
-0.019664
-0.0131622
-0.0113985
-0.00313219
-0.00670593
0.0075985
-0.318275
-0.2967
-0.283415
-0.271201
-0.259504
-0.247838
-0.235965
-0.223876
-0.211544
-0.198995
-0.186292
-0.173518
-0.160763
-0.148127
-0.135702
-0.12358
-0.111837
-0.100548
-0.089759
-0.0795354
-0.0698697
-0.0608596
-0.0523742
-0.0446716
-0.0372874
-0.0310076
-0.0244336
-0.0198871
-0.0134011
-0.0115069
-0.00337075
-0.00664854
0.00721872
-0.316206
-0.297593
-0.284454
-0.271948
-0.260336
-0.248771
-0.236976
-0.22496
-0.212694
-0.200199
-0.187534
-0.174776
-0.162018
-0.149358
-0.136891
-0.124712
-0.112901
-0.101534
-0.0906625
-0.0803538
-0.0706039
-0.0615105
-0.052948
-0.0451684
-0.0377217
-0.0313691
-0.0247579
-0.0201282
-0.0136549
-0.0116249
-0.00361933
-0.00659208
0.00683019
-0.305021
-0.294762
-0.28433
-0.271896
-0.260538
-0.249177
-0.237508
-0.225591
-0.213409
-0.200984
-0.188372
-0.17565
-0.16291
-0.15025
-0.137769
-0.12556
-0.113708
-0.102291
-0.0913637
-0.0809947
-0.0711844
-0.0620281
-0.0534098
-0.0455681
-0.0380791
-0.0316614
-0.0250352
-0.0203202
-0.0138889
-0.0117066
-0.00387277
-0.00650624
0.00643142
-0.270147
-0.287382
-0.283947
-0.271978
-0.260893
-0.249703
-0.238074
-0.226137
-0.213912
-0.201433
-0.188765
-0.17599
-0.163204
-0.150506
-0.137992
-0.125758
-0.113886
-0.102454
-0.0915159
-0.0811368
-0.0713227
-0.0621573
-0.0535432
-0.0456863
-0.0382167
-0.0317634
-0.025191
-0.0203884
-0.0140897
-0.0117011
-0.00417309
-0.0063384
0.00593078
-0.258782
-0.278667
-0.278527
-0.267393
-0.257039
-0.246513
-0.235369
-0.223826
-0.211952
-0.199791
-0.187412
-0.174901
-0.162352
-0.149864
-0.137535
-0.125459
-0.113721
-0.1024
-0.0915518
-0.0812425
-0.0714842
-0.0623546
-0.0537731
-0.045922
-0.0384768
-0.0319948
-0.0254632
-0.0205743
-0.0143823
-0.0117853
-0.00454021
-0.00620768
0.00532836
-0.254028
-0.270816
-0.271762
-0.261465
-0.251802
-0.241976
-0.231407
-0.220358
-0.208936
-0.197192
-0.185201
-0.173048
-0.160829
-0.148639
-0.136576
-0.124735
-0.1132
-0.102052
-0.0913501
-0.0811595
-0.0714989
-0.0624417
-0.0539222
-0.0461032
-0.0387002
-0.0322087
-0.0257245
-0.0207661
-0.0146752
-0.0118886
-0.00490819
-0.00610024
0.00471069
-0.250364
-0.263114
-0.264685
-0.255331
-0.246261
-0.23708
-0.227099
-0.216566
-0.205619
-0.194317
-0.182737
-0.170966
-0.159098
-0.147228
-0.135454
-0.123869
-0.112558
-0.101602
-0.0910643
-0.0810089
-0.0714608
-0.0624893
-0.0540429
-0.046266
-0.038913
-0.032419
-0.0259872
-0.020963
-0.0149767
-0.0120001
-0.00529023
-0.00599539
0.00406827
-0.24648
-0.255325
-0.257078
-0.248711
-0.240221
-0.231672
-0.222315
-0.212344
-0.201918
-0.191103
-0.179977
-0.168628
-0.157147
-0.145632
-0.134176
-0.122874
-0.111813
-0.101072
-0.090717
-0.0808138
-0.0713925
-0.0625188
-0.0541551
-0.0464286
-0.039131
-0.0326397
-0.0262625
-0.0211752
-0.0152936
-0.0121263
-0.0056892
-0.00589594
0.00340282
-0.241742
-0.247248
-0.248753
-0.241368
-0.233505
-0.225599
-0.21691
-0.207559
-0.197712
-0.187442
-0.176824
-0.165948
-0.154903
-0.143785
-0.132689
-0.121707
-0.110927
-0.100431
-0.090285
-0.0805564
-0.0712806
-0.0625207
-0.0542523
-0.046587
-0.0393519
-0.0328705
-0.0265499
-0.0214045
-0.0156254
-0.0122703
-0.00610271
-0.00580714
0.00272123
-0.235731
-0.238638
-0.239639
-0.233224
-0.226062
-0.218826
-0.210845
-0.202171
-0.192961
-0.183292
-0.173239
-0.162888
-0.152329
-0.141656
-0.130962
-0.12034
-0.109878
-0.0996583
-0.0897502
-0.0802212
-0.0711123
-0.0624848
-0.0543262
-0.0467349
-0.0395708
-0.0331079
-0.0268467
-0.0216495
-0.0159703
-0.0124328
-0.00652803
-0.00573235
0.00203145
-0.22818
-0.229293
-0.229711
-0.224245
-0.217871
-0.211343
-0.20411
-0.196164
-0.187646
-0.178634
-0.1692
-0.159427
-0.149404
-0.139223
-0.128976
-0.118755
-0.108649
-0.0987392
-0.089099
-0.0797966
-0.0708777
-0.0624026
-0.05437
-0.046867
-0.0397834
-0.033349
-0.0271504
-0.0219091
-0.0163266
-0.0126137
-0.00696249
-0.00567429
0.0013422
-0.219003
-0.219089
-0.218978
-0.214439
-0.20893
-0.203157
-0.196706
-0.189535
-0.181759
-0.173456
-0.164692
-0.155548
-0.14611
-0.136467
-0.126711
-0.116934
-0.107221
-0.0976581
-0.0883179
-0.0792706
-0.0705665
-0.0622655
-0.0543766
-0.0469773
-0.0399851
-0.0335901
-0.0274581
-0.0221813
-0.0166921
-0.0128131
-0.00740304