/*--------------------------------*- C++ -*----------------------------------*\
  =========                 |
  \\      /  F ield         | OpenFOAM: The Open Source CFD Toolbox
   \\    /   O peration     | Website:  https://openfoam.org
    \\  /    A nd           | Version:  7
     \\/     M anipulation  |
\*---------------------------------------------------------------------------*/
FoamFile
{
    version     2.0;
    format      ascii;
    class       surfaceScalarField;
    location    "20";
    object      phi;
}
// * * * * * * * * * * * * * * * * * * * * * * * * * * * * * * * * * * * * * //

dimensions      [0 3 -1 0 0 0 0];

internalField   nonuniform List<scalar> 
20169
(
-3.19141e-06
3.19141e-06
-6.40815e-15
-1.10809e-05
7.88944e-06
-1.11644e-14
-2.25604e-05
1.14795e-05
-6.5236e-14
-3.65526e-05
1.39922e-05
-2.20282e-13
-5.2033e-05
1.54804e-05
-2.26725e-13
-6.80683e-05
1.60353e-05
-1.43928e-13
-8.3864e-05
1.57957e-05
1.07204e-13
-9.88312e-05
1.49671e-05
5.49292e-13
-0.000112671
1.38395e-05
1.25259e-12
-0.000125407
1.27366e-05
2.10603e-12
1.20459e-05
2.66816e-12
-0.000137453
-3.14361e-06
6.33502e-06
-1.08945e-05
1.56403e-05
-2.21382e-05
2.27233e-05
-3.57874e-05
2.76413e-05
-5.08035e-05
3.04965e-05
-6.6235e-05
3.14668e-05
-8.12642e-05
3.08249e-05
-9.52753e-05
2.89782e-05
-0.000107942
2.65064e-05
-0.000119269
2.40634e-05
2.24208e-05
-0.000129644
-3.0486e-06
9.38362e-06
-1.05239e-05
2.31156e-05
-2.12981e-05
3.34975e-05
-3.4264e-05
4.06073e-05
-4.83556e-05
4.45881e-05
-6.25845e-05
4.56958e-05
-7.60871e-05
4.43275e-05
-8.81936e-05
4.10847e-05
-9.85231e-05
3.68359e-05
-0.000107039
3.25795e-05
2.94621e-05
-0.000114081
-2.90756e-06
1.22912e-05
-9.97278e-06
3.01808e-05
-2.00481e-05
4.35729e-05
-3.19965e-05
5.25557e-05
-4.47109e-05
5.73025e-05
-5.71485e-05
5.81334e-05
-6.83768e-05
5.55558e-05
-7.76447e-05
5.03526e-05
-8.4489e-05
4.36802e-05
-8.88106e-05
3.69011e-05
3.15251e-05
-9.08736e-05
-2.72215e-06
1.50133e-05
-9.2468e-06
3.67055e-05
-1.83997e-05
5.27258e-05
-2.90045e-05
6.31605e-05
-3.99002e-05
6.81982e-05
-4.99723e-05
6.82055e-05
-5.81966e-05
6.37801e-05
-6.37132e-05
5.58692e-05
-6.59479e-05
4.59148e-05
-6.4724e-05
3.56772e-05
2.69879e-05
-6.01868e-05
-2.49439e-06
1.75077e-05
-8.35266e-06
4.25637e-05
-1.63669e-05
6.074e-05
-2.53123e-05
7.21059e-05
-3.39618e-05
7.68476e-05
-4.11127e-05
7.53563e-05
-4.56269e-05
6.82943e-05
-4.65064e-05
5.67487e-05
-4.30263e-05
4.24347e-05
-3.4974e-05
2.76249e-05
1.43356e-05
-2.23217e-05
-2.2265e-06
1.97342e-05
-7.29785e-06
4.76351e-05
-1.39654e-05
6.74075e-05
-2.09473e-05
7.90878e-05
-2.69392e-05
8.28395e-05
-3.0635e-05
7.90521e-05
-3.07625e-05
6.84219e-05
-2.61586e-05
5.21447e-05
-1.58724e-05
3.21486e-05
9.04426e-07
1.08481e-05
-7.36784e-06
2.26079e-05
-1.92074e-06
2.16549e-05
-6.09002e-06
5.18044e-05
-1.12114e-05
7.25289e-05
-1.5938e-05
8.38144e-05
-1.88781e-05
8.57796e-05
-1.86093e-05
7.87833e-05
-1.37068e-05
6.35194e-05
-2.81517e-06
4.12531e-05
1.51909e-05
1.41426e-05
4.09001e-05
-1.48611e-05
-4.09095e-05
7.44417e-05
-1.57923e-06
2.32342e-05
-4.73649e-06
5.49616e-05
-8.12054e-06
7.59129e-05
-1.03122e-05
8.60061e-05
-9.82381e-06
8.52912e-05
-5.10519e-06
7.40647e-05
5.43723e-06
5.2977e-05
2.33759e-05
2.33145e-05
5.00905e-05
-1.25721e-05
8.64739e-05
-5.12446e-05
-8.70594e-05
0.000132624
-1.2038e-06
2.4438e-05
-3.2437e-06
5.70015e-05
-4.70688e-06
7.73761e-05
-4.09516e-06
8.53944e-05
1.82333e-07
8.10138e-05
9.81119e-06
6.44358e-05
2.65686e-05
3.62196e-05
5.22685e-05
-2.38543e-06
8.85912e-05
-4.88948e-05
0.000136742
-9.93951e-05
-0.000147244
0.000196926
-7.95821e-07
2.52338e-05
-1.61677e-06
5.78225e-05
-9.81842e-07
7.67412e-05
2.69167e-06
8.17209e-05
1.1103e-05
7.26025e-05
2.60812e-05
4.94576e-05
4.95937e-05
1.2707e-05
8.37148e-05
-3.65065e-05
0.000130464
-9.56438e-05
0.00019142
-0.000160351
-0.000222809
0.000266985
-3.56222e-07
2.559e-05
1.41374e-07
5.73249e-05
3.04594e-06
7.38366e-05
1.00322e-05
7.47346e-05
2.29114e-05
5.97233e-05
4.36574e-05
2.87116e-05
7.44322e-05
-1.80679e-05
0.00011758
-7.96543e-05
0.000175493
-0.000153557
0.000250202
-0.00023506
-0.000315017
0.00034241
1.15255e-07
2.54748e-05
2.02666e-06
5.54135e-05
7.37104e-06
6.84922e-05
1.79157e-05
6.419e-05
3.55878e-05
4.20512e-05
6.2506e-05
1.79344e-06
0.000101023
-5.65848e-05
0.000153752
-0.000132383
0.000223482
-0.000223287
0.000312777
-0.000324355
-0.000425038
0.000422798
6.17495e-07
2.48573e-05
4.0406e-06
5.19904e-05
1.19909e-05
6.0542e-05
2.63361e-05
4.98448e-05
4.91214e-05
1.92659e-05
8.26074e-05
-3.16926e-05
0.000129327
-0.000103304
0.000192147
-0.000195204
0.000274258
-0.000305398
0.000378837
-0.000428935
-0.000553908
0.000507708
1.15206e-06
2.37052e-05
6.18237e-06
4.69601e-05
1.69039e-05
4.98204e-05
3.529e-05
3.14587e-05
6.35071e-05
-8.95114e-06
0.000103954
-7.21397e-05
0.000159328
-0.000158679
0.000232718
-0.000268593
0.000327688
-0.000400368
0.000448091
-0.000549338
-0.000702484
0.000596666
1.71908e-06
2.19861e-05
8.45189e-06
4.02273e-05
2.21084e-05
3.61639e-05
4.47738e-05
8.79327e-06
7.87409e-05
-4.29182e-05
0.000126546
-0.000119945
0.00019103
-0.000223163
0.000275456
-0.00035302
0.000383697
-0.000508608
0.000520285
-0.000685926
-0.000871365
0.000689166
2.31875e-06
1.96674e-05
1.08477e-05
3.16983e-05
2.75992e-05
1.94125e-05
5.47781e-05
-1.83857e-05
9.48118e-05
-8.29519e-05
0.000150376
-0.000175509
0.000224444
-0.00029723
0.000320392
-0.000448968
0.000442289
-0.000630505
0.000595252
-0.000838889
-0.00106079
0.00078468
2.95057e-06
1.67168e-05
1.33659e-05
2.1283e-05
3.33653e-05
-5.86999e-07
6.52828e-05
-5.03031e-05
0.000111692
-0.000129361
0.00017542
-0.000239237
0.000259567
-0.000381377
0.000367576
-0.000556977
0.000503562
-0.000766491
0.000672973
-0.0010083
-0.00127052
0.000882702
3.61298e-06
1.31038e-05
1.59984e-05
8.8976e-06
3.93868e-05
-2.39754e-05
7.62499e-05
-8.71663e-05
0.000129323
-0.000182434
0.000201607
-0.000311521
0.000296349
-0.000476119
0.000417041
-0.000677669
0.000567698
-0.000917147
0.000753656
-0.00119426
-0.00149975
0.000982884
4.30315e-06
8.80068e-06
1.87326e-05
-5.53186e-06
4.56321e-05
-5.0875e-05
8.76186e-05
-0.000129153
0.000147605
-0.000242421
0.000228797
-0.000392713
0.000334647
-0.00058197
0.000468758
-0.00081178
0.000634969
-0.00108336
0.000837767
-0.00139706
-0.00174746
0.00108547
5.01683e-06
3.78385e-06
2.15508e-05
-2.20659e-05
5.20573e-05
-8.13814e-05
9.93005e-05
-0.000176396
0.000166382
-0.000309502
0.000256749
-0.00048308
0.000374157
-0.000699378
0.000522554
-0.000960177
0.000705892
-0.0012667
0.000926693
-0.00161786
-0.0020127
0.00119194
5.74859e-06
-1.96474e-06
2.44308e-05
-4.07481e-05
5.86065e-05
-0.000115557
0.00011118
-0.00022897
0.00018544
-0.000383761
0.000285088
-0.000582728
0.000414284
-0.000828574
0.000577727
-0.00112362
0.00078077
-0.00146974
0.00102626
-0.00186335
-0.00228941
0.00130297
6.49237e-06
-8.45711e-06
2.73476e-05
-6.16033e-05
6.52168e-05
-0.000153426
0.000123125
-0.000286878
0.000204513
-0.000465149
0.000313301
-0.000691516
0.00045403
-0.000969303
0.000632222
-0.00130181
0.000855502
-0.00169302
0.00114012
-0.00214797
-0.00269656
0.00154728
7.24179e-06
-1.56989e-05
3.02751e-05
-8.46366e-05
7.18221e-05
-0.000194973
0.000134993
-0.000350048
0.000223322
-0.000553479
0.000340833
-0.000809028
0.000492191
-0.00112066
0.000683099
-0.00149272
0.000921287
-0.00193121
0.00121996
-0.00244665
-0.00307048
0.00159389
7.99132e-06
-2.36902e-05
3.31901e-05
-0.000109835
7.83631e-05
-0.000240146
0.00014666
-0.000418345
0.000241631
-0.00064845
0.000367251
-0.000934647
0.000527995
-0.0012814
0.000729016
-0.00169374
0.000976342
-0.00217853
0.00127708
-0.00274738
-0.00342598
0.00163258
8.73645e-06
-3.24267e-05
3.60726e-05
-0.000137172
8.47897e-05
-0.000288863
0.000158028
-0.000491583
0.000259267
-0.000749689
0.000392291
-0.00106767
0.000561141
-0.00145025
0.00077002
-0.00190262
0.00102287
-0.00243138
0.00132214
-0.00304666
-0.00376729
0.00166345
9.47387e-06
-4.19005e-05
3.8907e-05
-0.000166605
9.10624e-05
-0.000341019
0.000169019
-0.00056954
0.000276109
-0.000856779
0.000415812
-0.00120737
0.00059158
-0.00162602
0.000806525
-0.00211757
0.00106266
-0.00268752
0.00135931
-0.0033433
-0.00409721
0.00168923
1.02011e-05
-5.21017e-05
4.16806e-05
-0.000198084
9.71494e-05
-0.000396488
0.000179576
-0.000651967
0.000292077
-0.000969279
0.000437738
-0.00135304
0.000619339
-0.00180762
0.000838891
-0.00233712
0.00109677
-0.00294539
0.00139015
-0.00363669
-0.00441755
0.00171049
1.09164e-05
-6.3018e-05
4.43827e-05
-0.000231551
0.000103023
-0.000455128
0.000189649
-0.000738592
0.000307101
-0.00108673
0.000458009
-0.00150394
0.000644434
-0.00199405
0.000867332
-0.00256002
0.00112569
-0.00320375
0.00141524
-0.00392624
-0.00472907
0.00172676
1.16176e-05
-7.46357e-05
4.70028e-05
-0.000266936
0.000108658
-0.000516783
0.000199191
-0.000829126
0.000321115
-0.00120866
0.000476555
-0.00165938
0.000666832
-0.00218433
0.000891909
-0.00278509
0.0011496
-0.00346145
0.00143458
-0.00421121
-0.00503177
0.00173728
1.23026e-05
-8.69383e-05
4.95289e-05
-0.000304162
0.000114023
-0.000581277
0.000208148
-0.000923251
0.000334042
-0.00133455
0.000493283
-0.00181862
0.000686444
-0.00237749
0.000912553
-0.0030112
0.00116842
-0.00371731
0.0014479
-0.0044907
-0.00532513
0.00174126
1.29682e-05
-9.99065e-05
5.19471e-05
-0.000343141
0.000119086
-0.000648416
0.000216461
-0.00102063
0.000345791
-0.00146388
0.000508074
-0.00198091
0.000703131
-0.00257254
0.000929103
-0.00323717
0.00118192
-0.00397013
0.00145482
-0.0047636
-0.0056083
0.00173799
1.36105e-05
-0.000113517
5.42405e-05
-0.000383771
0.000123807
-0.000717982
0.000224059
-0.00112088
0.000356256
-0.00159608
0.000520784
-0.00214543
0.000716713
-0.00276847
0.000941348
-0.00346181
0.00118984
-0.00421862
0.00145495
-0.00502871
-0.00588024
0.00172689
1.42243e-05
-0.000127741
5.63892e-05
-0.000425936
0.000128143
-0.000789736
0.000230864
-0.0012236
0.000365318
-0.00173053
0.000531256
-0.00231137
0.000726997
-0.00296421
0.000949056
-0.00368387
0.00119191
-0.00446147
0.00144794
-0.00528475
-0.00613983
0.00170754
1.48039e-05
-0.000142545
5.83709e-05
-0.000469503
0.000132043
-0.000863408
0.000236792
-0.00132835
0.000372853
-0.00186659
0.000539324
-0.00247784
0.000733782
-0.00315867
0.000952007
-0.00390209
0.00118788
-0.00469735
0.00143357
-0.00553043
-0.00638595
0.00167969
1.53426e-05
-0.000157888
6.01612e-05
-0.000514321
0.000135455
-0.000938702
0.000241755
-0.00143465
0.000378735
-0.00200357
0.000544825
-0.00264393
0.000736884
-0.00335073
0.000950011
-0.00411522
0.0011776
-0.00492494
0.00141168
-0.00576451
-0.00661754
0.00164326
1.58332e-05
-0.000173721
6.1734e-05
-0.000560222
0.000138326
-0.00101529
0.000245664
-0.00154199
0.000382838
-0.00214075
0.00054761
-0.0028087
0.000736141
-0.00353926
0.000942922
-0.004322
0.00116096
-0.00514298
0.00138227
-0.00598582
-0.00683362
0.00159836
1.62681e-05
-0.000189989
6.3063e-05
-0.000607017
0.000140602
-0.00109283
0.000248434
-0.00164982
0.000385049
-0.00227736
0.000547544
-0.0029712
0.000731427
-0.00372315
0.00093065
-0.00452122
0.00113795
-0.00535028
0.00134543
-0.00619331
-0.00703337
0.00154519
1.66397e-05
-0.000206629
6.41219e-05
-0.000654499
0.000142229
-0.00117094
0.000249984
-0.00175757
0.000385265
-0.00241264
0.000544522
-0.00313046
0.000722655
-0.00390128
0.000913168
-0.00471174
0.00110862
-0.00554573
0.00130136
-0.00638604
-0.00721612
0.0014841
1.69403e-05
-0.000223569
6.48854e-05
-0.000702444
0.00014316
-0.00124921
0.000250242
-0.00186466
0.000383402
-0.0025458
0.000538464
-0.00328552
0.000709783
-0.0040726
0.000890506
-0.00489246
0.00107314
-0.00572837
0.00125034
-0.00656324
-0.00738134
0.00141555
1.71626e-05
-0.000240732
6.53299e-05
-0.000750612
0.00014335
-0.00132723
0.000249149
-0.00197045
0.000379394
-0.00267605
0.000529324
-0.00343545
0.000692816
-0.00423609
0.00086276
-0.0050624
0.00103171
-0.00589732
0.00119274
-0.00672426
-0.00752866
0.00134007
1.72999e-05
-0.000258032
6.5434e-05
-0.000798746
0.000142762
-0.00140456
0.000246656
-0.00207435
0.000373198
-0.00280259
0.000517088
-0.00357934
0.000671805
-0.00439081
0.000830078
-0.00522068
0.000984622
-0.00605186
0.00112899
-0.00686863
-0.00765788
0.00125821
1.7346e-05
-0.000275378
6.51792e-05
-0.000846579
0.000141366
-0.00148075
0.000242728
-0.00217571
0.000364794
-0.00292466
0.000501779
-0.00371632
0.000646845
-0.00453587
0.000792663
-0.00536649
0.000932202
-0.0061914
0.00105957
-0.006996
-0.00776892
0.00117061
1.72954e-05
-0.000292673
6.45504e-05
-0.000893834
0.000139138
-0.00155534
0.000237347
-0.00227392
0.000354186
-0.0030415
0.00048345
-0.00384559
0.000618072
-0.00467049
0.000750762
-0.00549918
0.00087483
-0.00631547
0.000984996
-0.00710617
-0.00786182
0.00107789
1.71456e-05
-0.000309819
6.354e-05
-0.000940228
0.000136071
-0.00162787
0.000230515
-0.00236836
0.00034141
-0.00315239
0.000462197
-0.00396637
0.00058567
-0.00479397
0.000704671
-0.00561819
0.000812925
-0.00642372
0.0009058
-0.00719904
-0.00793673
0.000980706
1.68893e-05
-0.000326708
6.21326e-05
-0.000985472
0.000132147
-0.00169788
0.000222231
-0.00245845
0.000326498
-0.00325666
0.000438117
-0.00407799
0.000549825
-0.00490568
0.000654683
-0.00572304
0.000746896
-0.00651594
0.000822498
-0.00727465
-0.00799388
0.000879651
1.6526e-05
-0.000343234
6.03283e-05
-0.00102927
0.000127377
-0.00176493
0.000212527
-0.0025436
0.000309532
-0.00335366
0.00041136
-0.00417982
0.00051078
-0.0050051
0.000601148
-0.00581341
0.000677198
-0.00659199
0.00073564
-0.00733309
-0.00803358
0.000775345
1.60541e-05
-0.000359288
5.81275e-05
-0.00107135
0.000121771
-0.00182857
0.000201445
-0.00262327
0.000290603
-0.00344282
0.000382092
-0.00427131
0.000468794
-0.0050918
0.000544424
-0.00588904
0.000604282
-0.00665184
0.000645752
-0.00737456
-0.0080562
0.000668372
1.54735e-05
-0.000374762
5.55349e-05
-0.00111141
0.000115352
-0.00188839
0.000189039
-0.00269696
0.000269821
-0.0035236
0.000350499
-0.00435199
0.000424141
-0.00516544
0.000484877
-0.00594978
0.000528596
-0.00669556
0.000553345
-0.00739931
-0.00806214
0.000559284
1.4785e-05
-0.000389547
5.25591e-05
-0.00114918
0.000108148
-0.00194398
0.000175378
-0.00276419
0.000247314
-0.00359554
0.000316785
-0.00442146
0.000377111
-0.00522577
0.000422881
-0.00599555
0.000450584
-0.00672327
0.00045891
-0.00740763
-0.00805183
0.000448596
1.39905e-05
-0.000403537
4.92127e-05
-0.00118441
0.000100197
-0.00199496
0.000160542
-0.00282453
0.00022322
-0.00365822
0.000281164
-0.0044794
0.000328001
-0.0052726
0.000358809
-0.00602635
0.000370678
-0.00673514
0.000362917
-0.00739987
-0.0080257
0.000336784
1.30932e-05
-0.00041663
4.5512e-05
-0.00121682
9.15431e-05
-0.002041
0.000144619
-0.00287761
0.000197694
-0.00371129
0.000243865
-0.00452557
0.000277118
-0.00530586
0.000293034
-0.00604227
0.000289292
-0.00673139
0.000265802
-0.00737638
-0.0079842
0.000224301
1.20972e-05
-0.000428727
4.14768e-05
-0.0012462
8.22362e-05
-0.00208176
0.000127708
-0.00292308
0.000170896
-0.00375448
0.000205123
-0.0045598
0.000224769
-0.0053255
0.000225925
-0.00604343
0.000206828
-0.0067123
0.000167914
-0.00733747
-0.00792789
0.000111607
1.10077e-05
-0.000439735
3.71299e-05
-0.00127233
7.23325e-05
-0.00211696
0.000109915
-0.00296066
0.000142995
-0.00378756
0.000165178
-0.00458199
0.000171265
-0.00533159
0.000157857
-0.00603002
0.000123726
-0.00667817
6.95763e-05
-0.00728332
-0.0078546
-3.70879e-06
9.83086e-06
-0.000449566
3.24969e-05
-0.00129499
6.18927e-05
-0.00214635
9.13499e-05
-0.00299012
0.000114165
-0.00381038
0.000124272
-0.00459209
0.000116912
-0.00532423
8.91859e-05
-0.00600229
4.03613e-05
-0.00662934
-2.81078e-05
-0.00721485
-0.00776935
-0.000113364
8.57342e-06
-0.000458139
2.76056e-05
-0.00131402
5.09806e-05
-0.00216973
7.21277e-05
-0.00301127
8.45811e-05
-0.00382283
8.2643e-05
-0.00459015
6.20106e-05
-0.0053036
2.02531e-05
-0.00596053
-4.29359e-05
-0.00656615
-0.000125829
-0.00713195
-0.00767027
-0.000224904
7.24301e-06
-0.000465382
2.24856e-05
-0.00132927
3.96626e-05
-0.00218691
5.23644e-05
-0.00302397
5.44181e-05
-0.00382488
4.0529e-05
-0.00457626
6.85648e-06
-0.00526992
-4.86063e-05
-0.00590507
-0.000125785
-0.00648897
-0.00022261
-0.00703513
-0.00755759
-0.000335294
5.84782e-06
-0.00047123
1.71677e-05
-0.00134059
2.80064e-05
-0.00219774
3.2176e-05
-0.00302814
2.38488e-05
-0.00381656
-1.82896e-06
-0.00455059
-4.82744e-05
-0.00522348
-0.000117063
-0.00583628
-0.000207844
-0.00639819
-0.000318292
-0.00692468
-0.00743157
-0.000444309
4.39658e-06
-0.000475627
1.16835e-05
-0.00134787
1.60797e-05
-0.00220214
1.16776e-05
-0.00302374
-6.961e-06
-0.00379792
-4.42433e-05
-0.0045133
-0.000103103
-0.00516462
-0.000184798
-0.00575459
-0.000288765
-0.00629423
-0.000412546
-0.0068009
-0.00729242
-0.000551695
2.89926e-06
-0.000478526
6.06512e-06
-0.00135104
3.94969e-06
-0.00220003
-9.02138e-06
-0.00301077
-3.78561e-05
-0.00376908
-8.64723e-05
-0.00446469
-0.00015737
-0.00509372
-0.000251501
-0.00566046
-0.0003682
-0.00617753
-0.000505031
-0.00666407
-0.00714025
-0.000657198
1.36772e-06
-0.000479894
3.37308e-07
-0.00135001
-8.32045e-06
-0.00219137
-2.98157e-05
-0.00298927
-6.86811e-05
-0.00373022
-0.000128335
-0.00440503
-0.000210839
-0.00501122
-0.000316877
-0.00555442
-0.00044579
-0.00604862
-0.000595384
-0.00651448
-0.00697507
-0.000760573
-2.48026e-07
-0.000479646
-5.45861e-06
-0.0013448
-2.0665e-05
-0.00217616
-5.06034e-05
-0.00295933
-9.93016e-05
-0.00368152
-0.00016966
-0.00433468
-0.000263297
-0.00491758
-0.000380653
-0.00543706
-0.000521174
-0.00590809
-0.000683204
-0.00635244
-0.00679668
-0.000861595
-1.80892e-06
-0.000477837
-1.12957e-05
-0.00133531
-3.30259e-05
-0.00215443
-7.12927e-05
-0.00292106
-0.000129595
-0.00362322
-0.000210296
-0.00425397
-0.000314563
-0.00481331
-0.000442587
-0.00530904
-0.000593991
-0.00575669
-0.00076804
-0.0061784
-0.00660466
-0.000960057
-3.4167e-06
-0.00047442
-1.71488e-05
-0.00132158
-4.53463e-05
-0.00212623
-9.17986e-05
-0.00287461
-0.000159451
-0.00355556
-0.00025012
-0.0041633
-0.000364499
-0.00469894
-0.000502489
-0.00517105
-0.000663901
-0.00559528
-0.000849328
-0.00599297
-0.00639852
-0.00105547
-5.03099e-06
-0.000469389
-2.29891e-05
-0.00130362
-5.75729e-05
-0.00209165
-0.000112043
-0.00282014
-0.000188776
-0.00347883
-0.000289033
-0.00406305
-0.000413012
-0.00457496
-0.000560243
-0.00502382
-0.000730568
-0.00542495
-0.000926007
-0.00579753
-0.00617715
-0.00114737
-6.64288e-06
-0.000462746
-2.87888e-05
-0.00128148
-6.96549e-05
-0.00205078
-0.000131952
-0.00275785
-0.000217485
-0.0033933
-0.000326962
-0.00395357
-0.000460075
-0.00444184
-0.000615884
-0.00486801
-0.000793818
-0.00524702
-0.000996738
-0.00559461
-0.0059368
-0.00123709
-8.24154e-06
-0.000454505
-3.45163e-05
-0.0012552
-8.15361e-05
-0.00200376
-0.00015145
-0.00268793
-0.00024549
-0.00329926
-0.000363836
-0.00383522
-0.000505708
-0.00429997
-0.000669716
-0.004704
-0.000854333
-0.0050624
-0.00105674
-0.0053922
-0.00571357
-0.00127996
-9.82462e-06
-0.00044468
-4.01565e-05
-0.00122487
-9.31829e-05
-0.00195074
-0.000170484
-0.00261063
-0.00027273
-0.00319701
-0.000399603
-0.00370835
-0.000549923
-0.00414965
-0.000722005
-0.00453192
-0.000914068
-0.00487034
-0.00112423
-0.00518205
-0.00548316
-0.00135464
-1.13815e-05
-0.000433299
-4.5679e-05
-0.00119057
-0.000104542
-0.00189187
-0.000188977
-0.0025262
-0.000299108
-0.00308688
-0.000434144
-0.00357332
-0.00059256
-0.00399124
-0.000772458
-0.00435202
-0.000972
-0.0046708
-0.00118974
-0.00496431
-0.00524683
-0.00142607
-1.29048e-05
-0.000420394
-5.10599e-05
-0.00115242
-0.000115568
-0.00182737
-0.000206865
-0.0024349
-0.000324539
-0.00296921
-0.000467349
-0.00343051
-0.00063345
-0.00382514
-0.00082075
-0.00416472
-0.00102732
-0.00446422
-0.00125175
-0.00473989
-0.0050049
-0.00149367
-1.43872e-05
-0.000406007
-5.62763e-05
-0.00111053
-0.000126219
-0.00175742
-0.000224087
-0.00233703
-0.000348944
-0.00284435
-0.000499122
-0.00328033
-0.000672468
-0.00365179
-0.000866704
-0.00397048
-0.0010798
-0.00425113
-0.00131026
-0.00450943
-0.00475782
-0.00155733
-1.58221e-05
-0.000390185
-6.13071e-05
-0.00106504
-0.000136457
-0.00168227
-0.000240588
-0.0022329
-0.000372256
-0.00271268
-0.000529385
-0.0031232
-0.00070953
-0.00347164
-0.000910239
-0.00376977
-0.00112938
-0.00403199
-0.00136538
-0.00427342
-0.00450591
-0.00161729
-1.72031e-05
-0.000372982
-6.61327e-05
-0.00101611
-0.000146248
-0.00160216
-0.00025632
-0.00212283
-0.000394419
-0.00257458
-0.000558078
-0.00295954
-0.000744583
-0.00328514
-0.000951319
-0.00356304
-0.00117607
-0.00380724
-0.00141722
-0.00403227
-0.00424939
-0.00167374
-1.85244e-05
-0.000354457
-7.07352e-05
-0.000963901
-0.000155559
-0.00151734
-0.000271241
-0.00200715
-0.000415384
-0.00243044
-0.000585155
-0.00278977
-0.000777589
-0.0030927
-0.00098993
-0.0033507
-0.0012199
-0.00357728
-0.00146588
-0.00378629
-0.00398845
-0.00172682
-1.97807e-05
-0.000334676
-7.50987e-05
-0.000908583
-0.000164364
-0.00142807
-0.000285314
-0.0018862
-0.00043511
-0.00228064
-0.000610577
-0.0026143
-0.000808523
-0.00289476
-0.00102607
-0.00313315
-0.00126089
-0.00334245
-0.0015114
-0.00353578
-0.00372326
-0.00177659
-2.0967e-05
-0.000313709
-7.92084e-05
-0.000850342
-0.000172636
-0.00133464
-0.000298506
-0.00176033
-0.000453563
-0.00212559
-0.000634314
-0.00243355
-0.000837363
-0.00269171
-0.00105973
-0.00291079
-0.00129907
-0.00310311
-0.00155383
-0.00328102
-0.003454
-0.00182309
-2.20791e-05
-0.00029163
-8.30512e-05
-0.00078937
-0.000180354
-0.00123734
-0.000310789
-0.00162989
-0.000470711
-0.00196566
-0.000656338
-0.00224792
-0.00086409
-0.00248396
-0.0010909
-0.00268398
-0.00133443
-0.00285958
-0.00159317
-0.00302228
-0.00318088
-0.00186629
-2.31127e-05
-0.000268518
-8.66152e-05
-0.000725867
-0.000187498
-0.00113646
-0.000322137
-0.00149525
-0.000486528
-0.00180127
-0.000676625
-0.00205783
-0.000888686
-0.0022719
-0.00111958
-0.00245309
-0.00136697
-0.00261219
-0.00162941
-0.00275983
-0.00290411
-0.00190618
-2.40643e-05
-0.000244453
-8.98895e-05
-0.000660042
-0.00019405
-0.0010323
-0.000332527
-0.00135677
-0.00050099
-0.00163281
-0.000695152
-0.00186366
-0.000911131
-0.00205592
-0.00114574
-0.00221848
-0.00139667
-0.00236126
-0.00166253
-0.00249397
-0.00262394
-0.0019427
-2.49304e-05
-0.000219523
-9.28644e-05
-0.000592108
-0.000199993
-0.000925167
-0.000341939
-0.00121483
-0.000514073
-0.00146068
-0.000711897
-0.00166584
-0.000931406
-0.00183641
-0.00116937
-0.00198051
-0.00142351
-0.00210712
-0.0016925
-0.00222498
-0.00234064
-0.0019758
-2.57081e-05
-0.000193815
-9.55312e-05
-0.000522285
-0.000205314
-0.000815385
-0.000350353
-0.00106979
-0.000525757
-0.00128527
-0.000726839
-0.00146476
-0.00094949
-0.00161376
-0.00119045
-0.00173955
-0.00144746
-0.00185012
-0.00171926
-0.00195317
-0.0020545
-0.00200541
-2.63946e-05
-0.00016742
-9.7882e-05
-0.000450798
-0.000209998
-0.000703269
-0.000357754
-0.000922033
-0.000536023
-0.001107
-0.00073996
-0.00126082
-0.000965365
-0.00138835
-0.00120896
-0.00149596
-0.0014685
-0.00159058
-0.0017428
-0.00167887
-0.00176583
-0.00203147
-2.69876e-05
-0.000140433
-9.991e-05
-0.000377875
-0.000214034
-0.000589145
-0.000364125
-0.000771942
-0.000544856
-0.000926273
-0.000751242
-0.00105443
-0.000979012
-0.00116058
-0.00122486
-0.00125011
-0.00148659
-0.00132885
-0.00176305
-0.00140241
-0.00147496
-0.00205392
-2.7485e-05
-0.000112948
-0.000101609
-0.000303751
-0.000217413
-0.000473341
-0.000369454
-0.000619901
-0.000552239
-0.000743488
-0.00076067
-0.000846003
-0.000990413
-0.00093084
-0.00123816
-0.00100236
-0.00150171
-0.00106529
-0.00177999
-0.00112413
-0.00118223
-0.00207272
-2.78851e-05
-8.50626e-05
-0.000102975
-0.000228661
-0.000220127
-0.000356189
-0.000373731
-0.000466297
-0.000558162
-0.000559057
-0.000768229
-0.000635936
-0.000999553
-0.000699516
-0.00124881
-0.000753104
-0.00151384
-0.000800265
-0.00179358
-0.000844392
-0.000887998
-0.00208782
-2.81863e-05
-5.68763e-05
-0.000104002
-0.000152846
-0.000222168
-0.000238023
-0.000376947
-0.000311518
-0.000562612
-0.000373392
-0.000773908
-0.000424641
-0.00100642
-0.000467004
-0.00125682
-0.000502704
-0.00152296
-0.000534128
-0.0018038
-0.000563545
-0.000592632
-0.00209917
-2.83877e-05
-2.84885e-05
-0.000104689
-7.65442e-05
-0.000223531
-0.000119181
-0.000379094
-0.000155955
-0.000565584
-0.000186902
-0.000777699
-0.000212525
-0.001011
-0.0002337
-0.00126216
-0.000251542
-0.00152904
-0.000267249
-0.00181063
-0.000281958
-0.000296507
-0.00210676
-2.84886e-05
1.24444e-12
-0.000105033
3.58266e-12
-0.000224214
5.90425e-12
-0.000380169
8.12877e-12
-0.000567071
1.01709e-11
-0.000779596
1.19992e-11
-0.0010133
1.35997e-11
-0.00126484
1.49754e-11
-0.00153209
1.61402e-11
-0.00181405
1.70768e-11
1.7773e-11
-0.00211055
-2.84886e-05
2.84886e-05
-0.000105033
7.65442e-05
-0.000224214
0.000119181
-0.000380169
0.000155955
-0.000567071
0.000186902
-0.000779596
0.000212525
-0.0010133
0.0002337
-0.00126484
0.000251542
-0.00153209
0.00026725
-0.00181405
0.000281958
0.000296507
-0.00211055
-2.83877e-05
5.68763e-05
-0.000104689
0.000152846
-0.000223531
0.000238023
-0.000379094
0.000311518
-0.000565584
0.000373392
-0.000777699
0.000424641
-0.001011
0.000467004
-0.00126216
0.000502704
-0.00152904
0.000534128
-0.00181063
0.000563545
0.000592632
-0.00210676
-2.81863e-05
8.50626e-05
-0.000104002
0.000228661
-0.000222168
0.000356189
-0.000376947
0.000466297
-0.000562612
0.000559057
-0.000773908
0.000635936
-0.00100642
0.000699516
-0.00125682
0.000753104
-0.00152296
0.000800265
-0.0018038
0.000844392
0.000887998
-0.00209917
-2.78851e-05
0.000112948
-0.000102975
0.000303751
-0.000220127
0.000473341
-0.000373731
0.000619901
-0.000558162
0.000743488
-0.000768229
0.000846003
-0.000999553
0.00093084
-0.00124881
0.00100236
-0.00151384
0.00106529
-0.00179358
0.00112413
0.00118223
-0.00208782
-2.7485e-05
0.000140433
-0.000101609
0.000377875
-0.000217413
0.000589145
-0.000369454
0.000771942
-0.000552239
0.000926273
-0.00076067
0.00105443
-0.000990413
0.00116058
-0.00123816
0.00125011
-0.00150171
0.00132885
-0.00177999
0.00140241
0.00147496
-0.00207272
-2.69876e-05
0.00016742
-9.991e-05
0.000450798
-0.000214034
0.000703269
-0.000364125
0.000922033
-0.000544856
0.001107
-0.000751242
0.00126082
-0.000979012
0.00138835
-0.00122486
0.00149596
-0.00148659
0.00159058
-0.00176305
0.00167887
0.00176583
-0.00205392
-2.63946e-05
0.000193815
-9.7882e-05
0.000522285
-0.000209998
0.000815385
-0.000357754
0.00106979
-0.000536023
0.00128527
-0.00073996
0.00146476
-0.000965365
0.00161376
-0.00120896
0.00173955
-0.0014685
0.00185012
-0.0017428
0.00195317
0.0020545
-0.00203147
-2.57081e-05
0.000219523
-9.55312e-05
0.000592108
-0.000205314
0.000925167
-0.000350353
0.00121483
-0.000525757
0.00146068
-0.000726839
0.00166584
-0.00094949
0.00183641
-0.00119045
0.00198051
-0.00144746
0.00210712
-0.00171926
0.00222498
0.00234064
-0.00200541
-2.49304e-05
0.000244453
-9.28644e-05
0.000660042
-0.000199993
0.0010323
-0.000341939
0.00135677
-0.000514073
0.00163281
-0.000711897
0.00186366
-0.000931406
0.00205592
-0.00116937
0.00221848
-0.00142351
0.00236126
-0.0016925
0.00249397
0.00262394
-0.0019758
-2.40643e-05
0.000268518
-8.98895e-05
0.000725867
-0.00019405
0.00113646
-0.000332527
0.00149525
-0.00050099
0.00180127
-0.000695152
0.00205783
-0.000911131
0.0022719
-0.00114574
0.00245309
-0.00139667
0.00261219
-0.00166253
0.00275983
0.00290411
-0.0019427
-2.31127e-05
0.00029163
-8.66152e-05
0.00078937
-0.000187498
0.00123734
-0.000322137
0.00162989
-0.000486528
0.00196566
-0.000676625
0.00224792
-0.000888686
0.00248396
-0.00111958
0.00268398
-0.00136697
0.00285958
-0.00162941
0.00302228
0.00318088
-0.00190618
-2.20791e-05
0.000313709
-8.30512e-05
0.000850342
-0.000180354
0.00133464
-0.000310789
0.00176033
-0.000470711
0.00212559
-0.000656338
0.00243355
-0.00086409
0.00269171
-0.0010909
0.00291079
-0.00133443
0.00310311
-0.00159317
0.00328102
0.003454
-0.00186629
-2.0967e-05
0.000334676
-7.92084e-05
0.000908583
-0.000172636
0.00142807
-0.000298506
0.0018862
-0.000453563
0.00228064
-0.000634314
0.0026143
-0.000837363
0.00289476
-0.00105973
0.00313315
-0.00129907