/*--------------------------------*- C++ -*----------------------------------*\
  =========                 |
  \\      /  F ield         | OpenFOAM: The Open Source CFD Toolbox
   \\    /   O peration     | Website:  https://openfoam.org
    \\  /    A nd           | Version:  7
     \\/     M anipulation  |
\*---------------------------------------------------------------------------*/
FoamFile
{
    version     2.0;
    format      ascii;
    class       volVectorField;
    location    "20";
    object      U;
}
// * * * * * * * * * * * * * * * * * * * * * * * * * * * * * * * * * * * * * //

dimensions      [0 1 -1 0 0 0 0];

internalField   nonuniform List<vector> 
10230
(
(-0.000611744 0.000499522 2.40337e-21)
(-0.00321691 0.00112063 3.36575e-21)
(-0.00793697 0.00145856 -7.17627e-21)
(-0.0133799 0.00158239 -1.42285e-21)
(-0.0189368 0.00154386 -1.39897e-20)
(-0.0241457 0.00139036 1.87934e-20)
(-0.0286671 0.00116558 3.41379e-21)
(-0.0323116 0.000910162 -1.32109e-20)
(-0.0350364 0.000662073 -1.11375e-21)
(-0.0369182 0.000451302 5.1459e-22)
(-0.0380573 0.000304569 1.55788e-21)
(-0.000675726 0.00148941 5.94423e-21)
(-0.00333049 0.00333948 2.34435e-20)
(-0.00801567 0.0043444 8.87913e-21)
(-0.0133599 0.00471005 1.52185e-20)
(-0.0187626 0.00459102 1.47189e-20)
(-0.0237686 0.00412889 -2.29139e-20)
(-0.0280446 0.00345438 3.21873e-21)
(-0.0314056 0.00268921 1.26962e-20)
(-0.0338154 0.00194736 -1.65637e-20)
(-0.0353564 0.00131944 2.41363e-20)
(-0.0360962 0.000887465 2.65348e-20)
(-0.000801517 0.00245203 -5.83488e-21)
(-0.00355231 0.00549156 -3.29448e-20)
(-0.00816567 0.00713696 -3.00407e-21)
(-0.013311 0.00772704 -1.60472e-21)
(-0.0184044 0.00751725 -4.01015e-21)
(-0.0230046 0.00674175 2.80239e-20)
(-0.0267896 0.00561701 2.25899e-20)
(-0.0295837 0.00434533 9.98263e-21)
(-0.0313637 0.0031169 4.09116e-20)
(-0.0322243 0.00208497 -2.77717e-20)
(-0.0321658 0.00139205 -2.19604e-20)
(-0.000984817 0.0033698 2.19572e-20)
(-0.00387181 0.00753372 5.42154e-21)
(-0.00837222 0.00977598 -1.80209e-20)
(-0.0132157 0.0105619 1.38755e-20)
(-0.0178431 0.0102445 7.74812e-21)
(-0.0218334 0.00914793 3.47318e-20)
(-0.0248819 0.0075723 -4.14574e-20)
(-0.0268263 0.00579949 3.05615e-20)
(-0.0276623 0.00409656 -7.80278e-20)
(-0.027505 0.00268265 2.65924e-20)
(-0.0262489 0.00176716 -4.41896e-20)
(-0.00121928 0.00422604 -2.13452e-20)
(-0.00427331 0.00942488 1.18755e-20)
(-0.00861335 0.0122039 -2.24809e-20)
(-0.0130478 0.0131463 -6.41321e-20)
(-0.0170497 0.0126986 -3.52055e-20)
(-0.0202248 0.0112707 -4.09326e-20)
(-0.0222911 0.00924343 4.86968e-22)
(-0.0231033 0.0069771 1.02061e-21)
(-0.0226818 0.0048168 1.57505e-19)
(-0.0211741 0.00305249 -5.70664e-20)
(-0.0183197 0.00196542 -1.67551e-20)
(-0.00149663 0.00500527 2.63154e-20)
(-0.00473621 0.0111267 3.22048e-20)
(-0.00886001 0.0143672 -2.96586e-20)
(-0.0127723 0.015417 1.40161e-19)
(-0.0159856 0.0148106 -8.87988e-20)
(-0.0181385 0.013039 5.83199e-20)
(-0.0189763 0.0105598 -2.64699e-20)
(-0.0183742 0.00780963 -7.91818e-20)
(-0.0163812 0.00521212 3.07401e-20)
(-0.0131964 0.00313238 -3.57598e-20)
(-0.00834918 0.00195926 7.53667e-20)
(-0.00180681 0.00569343 -3.67564e-20)
(-0.00523527 0.012604 8.11926e-20)
(-0.00907633 0.0162167 -2.14185e-20)
(-0.0123459 0.0173162 -1.18781e-20)
(-0.0146026 0.0165184 6.45251e-20)
(-0.0155236 0.0143897 2.2276e-20)
(-0.0148863 0.0114591 -7.69052e-20)
(-0.0125889 0.0082366 -3.39025e-20)
(-0.00871123 0.00521999 -1.91273e-19)
(-0.00351132 0.00283718 1.09633e-19)
(0.00369243 0.00175291 -1.38596e-20)
(-0.00213812 0.00627808 9.73844e-20)
(-0.00574083 0.0138258 -9.1087e-20)
(-0.00921981 0.017709 -8.54259e-20)
(-0.0117167 0.0187931 -1.2258e-20)
(-0.0128429 0.0177681 -4.20029e-20)
(-0.0123189 0.0152686 -4.12979e-20)
(-0.00995881 0.0118892 4.63663e-20)
(-0.00568864 0.00820881 1.08226e-19)
(0.000370068 0.00479651 -2.44978e-20)
(0.00795169 0.00216199 3.39712e-21)
(0.0178885 0.00127626 -1.3412e-19)
(-0.00247738 0.00674853 -1.22453e-19)
(-0.00621912 0.0147652 4.93699e-20)
(-0.0092416 0.0188068 1.07559e-19)
(-0.010825 0.0198048 -4.71518e-20)
(-0.0106389 0.0185149 -5.51444e-20)
(-0.00845264 0.0156326 8.20223e-20)
(-0.00412044 0.0118103 5.18019e-20)
(0.0024015 0.00769115 3.59269e-20)
(0.0109464 0.00391803 1.8068e-19)
(0.0212292 0.00110695 -1.82065e-19)
(0.0343027 0.000466457 1.2382e-19)
(-0.00281008 0.00709586 -1.05314e-20)
(-0.00663254 0.0153996 6.9525e-20)
(-0.00908685 0.0194796 -5.11087e-20)
(-0.00960301 0.0203168 2.83633e-20)
(-0.00791396 0.0187247 2.03062e-19)
(-0.0038424 0.0154505 -7.90208e-20)
(0.00271346 0.0111961 -3.62197e-20)
(0.0117659 0.0066621 2.85872e-20)
(0.023102 0.00256134 1.19465e-19)
(0.036402 -0.000378859 -7.39798e-21)
(0.0529992 -0.000644491 1.53362e-19)
(-0.00312047 0.00731297 7.34631e-20)
(-0.00693998 0.0157114 -1.15082e-19)
(-0.00869506 0.0197037 -2.39739e-20)
(-0.00797541 0.0203042 -3.50115e-20)
(-0.00458213 0.0183745 -2.04587e-19)
(0.00160441 0.0147047 -1.31796e-19)
(0.0106384 0.0100361 -1.55068e-19)
(0.0224992 0.00511772 -1.05904e-19)
(0.0369271 0.000724833 -1.38466e-19)
(0.0535591 -0.00230176 1.61961e-19)
(0.0740609 -0.00204324 -3.15104e-20)
(-0.00339172 0.00739448 1.64053e-20)
(-0.00709704 0.0156875 8.81956e-20)
(-0.00800049 0.0194633 1.23813e-19)
(-0.00585998 0.0197515 9.30459e-20)
(-0.000549069 0.0174535 9.06023e-20)
(0.00799016 0.013392 2.21424e-19)
(0.0197604 0.00833712 7.84454e-20)
(0.0347064 0.00307459 -9.22061e-20)
(0.0525216 -0.00156892 3.47414e-19)
(0.0727944 -0.00464024 -2.17124e-19)
(0.0975788 -0.00371153 -7.69011e-20)
(-0.00360597 0.00733671 1.37915e-19)
(-0.00705645 0.0153198 -2.32609e-19)
(-0.00693264 0.0187495 1.19054e-20)
(-0.00316817 0.0186534 -9.94705e-20)
(0.0042874 0.0159632 -9.10086e-20)
(0.0154263 0.0115245 2.43038e-20)
(0.0301958 0.00612436 4.505e-20)
(0.0485032 0.000571742 -1.59569e-19)
(0.069995 -0.00427188 -9.15362e-20)
(0.0942084 -0.00734922 2.20661e-19)
(0.123649 -0.00561201 1.94859e-19)
(-0.00374432 0.00713771 -7.55859e-21)
(-0.00676837 0.0146051 -6.88421e-20)
(-0.00541714 0.0175612 2.17836e-19)
(0.000193923 0.0170143 -4.38596e-20)
(0.0100361 0.0139174 -1.60401e-19)
(0.0240321 0.00912935 -4.30754e-20)
(0.0420696 0.00344203 -2.47076e-21)
(0.0640143 -0.00232791 -2.28082e-19)
(0.0894649 -0.0073071 -2.72509e-19)
(0.117907 -0.0103544 1.19857e-19)
(0.152366 -0.00768555 6.39789e-20)
(-0.00378715 0.00679717 -1.38812e-19)
(-0.0061808 0.0135446 5.53734e-21)
(-0.00337642 0.015905 -2.83214e-19)
(0.0043242 0.0148489 2.69251e-19)
(0.0168106 0.0113421 2.01963e-19)
(0.033933 0.00624818 -7.87941e-21)
(0.0555141 0.000352587 4.42398e-20)
(0.0813724 -0.00553715 2.48493e-19)
(0.111055 -0.0105655 4.29484e-19)
(0.143998 -0.0135446 -1.81807e-19)
(0.183821 -0.00984516 -1.35887e-19)
(-0.00371406 0.0063163 6.55663e-21)
(-0.00524026 0.0121446 1.35668e-19)
(-0.000730949 0.013795 2.20848e-19)
(0.00932285 0.0121812 -1.48669e-19)
(0.0247275 0.00827458 -5.67073e-20)
(0.0452578 0.00293575 -6.52634e-20)
(0.0706663 -0.00306528 4.37576e-20)
(0.100716 -0.00894605 7.70785e-20)
(0.134897 -0.0139042 1.48417e-19)
(0.172592 -0.016763 1.33985e-19)
(0.218092 -0.0119666 5.58624e-21)
(-0.0035041 0.00569811 8.55704e-20)
(-0.00389242 0.0104165 2.2009e-20)
(0.0025994 0.0112528 5.56706e-20)
(0.0152902 0.00904474 -6.65057e-20)
(0.0339029 0.00476214 -9.81922e-20)
(0.0581352 -0.000742431 1.04879e-19)
(0.0876644 -0.00672046 2.32793e-19)
(0.122187 -0.0124265 -3.50799e-20)
(0.161124 -0.0171482 -3.01897e-19)
(0.203805 -0.0198001 -3.34006e-19)
(0.255241 -0.0138787 -1.37089e-20)
(-0.00313605 0.0049475 -6.44513e-20)
(-0.00208307 0.00837694 -2.9239e-20)
(0.00669355 0.00830763 -1.98541e-19)
(0.022324 0.00548172 1.18736e-19)
(0.0444489 0.000861081 1.90397e-19)
(0.0726888 -0.00471319 4.78278e-20)
(0.106642 -0.0105152 -5.71521e-19)
(0.145927 -0.0158406 -2.20405e-19)
(0.18988 -0.0200987 1.33267e-19)
(0.237769 -0.0223921 -7.786e-20)
(0.295322 -0.0153553 -1.25565e-19)
(-0.00258878 0.00407146 7.90803e-20)
(0.000240779 0.00604799 9.62215e-21)
(0.0116273 0.00499653 2.03701e-19)
(0.0305163 0.00154312 -9.64197e-20)
(0.056469 -0.00336467 -2.55363e-19)
(0.0890308 -0.00889904 -3.69377e-20)
(0.12772 -0.0143525 5.0519e-19)
(0.172068 -0.0190542 5.63884e-20)
(0.221305 -0.0225486 7.66605e-20)
(0.274628 -0.0242131 1.50007e-19)
(0.338381 -0.0160551 3.23236e-19)
(-0.0018417 0.00307933 -3.81464e-20)
(0.00312963 0.0034578 1.36359e-19)
(0.017471 0.00136473 -7.92997e-21)
(0.03995 -0.00271132 2.33796e-19)
(0.0700527 -0.00784429 -3.0211e-19)
(0.107254 -0.0132213 2.26849e-19)
(0.150998 -0.0181449 2.36395e-19)
(0.200721 -0.0219564 -1.98118e-19)
(0.255535 -0.0243061 -1.02767e-19)
(0.314522 -0.0248148 1.71613e-20)
(0.384316 -0.0152671 -2.57262e-19)
(-0.000875288 0.00198305 8.46836e-20)
(0.00663018 0.000640909 -3.09816e-19)
(0.0242874 -0.00253384 -2.80513e-20)
(0.0506952 -0.00721249 -1.5059e-19)
(0.0852697 -0.0124998 4.65164e-20)
(0.127424 -0.0176022 3.2726e-19)
(0.17654 -0.0218253 -5.58167e-19)
(0.231976 -0.0244934 9.24972e-20)
(0.292748 -0.0252542 1.62097e-19)
(0.357716 -0.0236232 -8.61709e-20)
(0.432737 -0.011759 -6.3567e-20)
(0.0003284 0.000797326 8.3262e-20)
(0.0107841 -0.00236142 2.23619e-19)
(0.0321299 -0.00663591 6.79907e-20)
(0.062806 -0.0118807 -5.05986e-20)
(0.102164 -0.0172441 2.90062e-19)
(0.149564 -0.0219628 -6.95261e-19)
(0.204347 -0.0253524 -1.17243e-20)
(0.265852 -0.0267092 7.38957e-20)
(0.333196 -0.0255082 -3.07749e-19)
(0.40525 -0.0205584 1.13082e-19)
(0.484924 -0.00566205 1.44328e-19)
(0.00178525 -0.000460298 -1.30951e-19)
(0.0156268 -0.00550099 -1.36192e-19)
(0.0410403 -0.0108682 -3.95973e-19)
(0.0763181 -0.016624 2.81437e-19)
(0.12075 -0.0219765 -2.66414e-19)
(0.173646 -0.0262137 3.25916e-19)
(0.234322 -0.0286932 4.37961e-19)
(0.30216 -0.0287323 -1.005e-19)
(0.376704 -0.0255987 -1.61708e-19)
(0.458281 -0.0173548 -1.04962e-19)
(0.550337 -0.00242481 5.16052e-19)
(0.00350875 -0.0017695 2.1684e-19)
(0.0211872 -0.00872269 -9.92699e-20)
(0.0510488 -0.0151471 3.69212e-19)
(0.0912488 -0.0213361 -1.41396e-19)
(0.141011 -0.0265769 -1.24388e-19)
(0.199589 -0.0302362 2.03745e-19)
(0.266259 -0.031764 -2.983e-19)
(0.340411 -0.0306122 -3.55898e-19)
(0.42183 -0.0262058 8.69612e-20)
(0.511531 -0.0173781 -1.35552e-19)
(0.609954 -0.00877238 -5.8897e-19)
(0.00550981 -0.00310745 -7.84995e-20)
(0.0274867 -0.011965 6.71886e-20)
(0.0621738 -0.0193789 -2.07505e-19)
(0.107598 -0.0258963 4.49752e-20)
(0.162909 -0.0309028 1.63919e-19)
(0.227283 -0.0338701 -1.16283e-19)
(0.299918 -0.0343837 -2.75163e-19)
(0.380116 -0.0321054 1.00801e-19)
(0.467578 -0.0267867 -1.42443e-19)
(0.563114 -0.0180736 5.60044e-19)
(0.663991 -0.0137037 3.72497e-19)
(0.00779673 -0.00444923 4.79141e-20)
(0.0345397 -0.015161 6.38869e-20)
(0.0744223 -0.0234614 6.31262e-20)
(0.12535 -0.0301719 -2.16689e-19)
(0.186388 -0.0347932 2.33126e-19)
(0.256609 -0.0369234 -3.65752e-20)
(0.335079 -0.0363084 7.17105e-20)
(0.420923 -0.0328381 2.59145e-19)
(0.513533 -0.0265782 -1.90087e-19)
(0.613091 -0.0176622 -3.16779e-19)
(0.714814 -0.0150099 -2.18152e-19)
(0.0103753 -0.00576837 -1.68626e-19)
(0.0423533 -0.0182396 6.40338e-20)
(0.0877899 -0.0272862 -9.07032e-20)
(0.144476 -0.0340217 -1.27362e-19)
(0.211378 -0.0380772 -1.40994e-19)
(0.287439 -0.0391917 2.35201e-20)
(0.371552 -0.0372837 5.16426e-19)
(0.46259 -0.0324618 2.58886e-19)
(0.559541 -0.0250518 4.35843e-19)
(0.661873 -0.0154704 1.1385e-19)
(0.763767 -0.0129507 -1.38638e-19)
(0.0132488 -0.0070373 2.23706e-20)
(0.0509276 -0.0211267 7.11735e-20)
(0.102261 -0.0307409 2.04786e-19)
(0.164933 -0.037301 5.12836e-20)
(0.237796 -0.0405811 6.86046e-20)
(0.319642 -0.0404732 2.18566e-19)
(0.409154 -0.037073 -8.92928e-20)
(0.504916 -0.0306927 -2.7042e-19)
(0.605487 -0.0218691 -1.50823e-19)
(0.709673 -0.0111963 2.10928e-19)
(0.811234 -0.00777084 2.31368e-19)
(0.0164181 -0.00822781 -3.58557e-20)
(0.0602551 -0.0237471 -2.69736e-19)
(0.11781 -0.0337121 6.98188e-20)
(0.186663 -0.0398656 1.60738e-19)
(0.265546 -0.0421364 7.82119e-20)
(0.353076 -0.0405791 -5.35636e-19)
(0.447702 -0.0354705 6.58715e-21)
(0.547705 -0.0273128 -7.92584e-20)
(0.651225 -0.0168205 3.45363e-19)
(0.7565 -0.0047153 -3.59934e-19)
(0.857231 0.000277965 -7.22566e-20)
(0.0198814 -0.00931136 -1.23837e-19)
(0.0703204 -0.0260251 6.55931e-20)
(0.134395 -0.0360874 -2.19113e-19)
(0.209594 -0.0415754 -4.29683e-19)
(0.294511 -0.0425841 -3.8563e-19)
(0.387578 -0.0393405 2.17743e-19)
(0.486998 -0.0323065 1.34856e-19)
(0.590741 -0.0221672 -4.61783e-19)
(0.696566 -0.00979651 -1.0552e-19)
(0.802237 0.00397038 -7.86339e-20)
(0.901619 0.010899 2.68784e-19)
(0.0236345 -0.0102594 -2.71371e-20)
(0.0811004 -0.0278858 1.49536e-20)
(0.151966 -0.0377578 -6.9875e-20)
(0.233635 -0.042298 1.34785e-20)
(0.324559 -0.0417795 1.80419e-19)
(0.422971 -0.036612 -1.50838e-21)
(0.526822 -0.0274494 -2.77021e-19)
(0.633785 -0.015158 2.92157e-19)
(0.74128 -0.000764773 6.10668e-20)
(0.846692 0.0147774 -1.54937e-19)
(0.944178 0.0237847 5.17788e-20)
(0.02767 -0.0110434 1.99059e-19)
(0.0925631 -0.0292561 -1.27893e-19)
(0.170456 -0.038619 4.89486e-20)
(0.25868 -0.0419104 -6.75784e-20)
(0.355536 -0.0395943 -1.65447e-19)
(0.459054 -0.0322745 1.58715e-20)
(0.566936 -0.020805 1.54562e-19)
(0.676576 -0.00623697 2.12419e-19)
(0.785105 0.0102492 -2.38485e-19)
(0.889622 0.0275733 -9.62796e-20)
(0.984662 0.0386322 6.1083e-20)
(0.0319776 -0.0116355 -6.32903e-20)
(0.104668 -0.0300655 3.07009e-20)
(0.189787 -0.0385732 5.26209e-20)
(0.284604 -0.0403019 1.08032e-19)
(0.387269 -0.0359193 4.09955e-19)
(0.495608 -0.0262356 7.50526e-20)
(0.60708 -0.0123152 -4.66141e-20)
(0.718832 0.00460105 -1.24526e-19)
(0.82776 0.0231758 5.46905e-20)
(0.930769 0.0421944 -6.5171e-20)
(1.02282 0.0551476 -1.36812e-19)
(0.0365433 -0.012008 -1.29275e-19)
(0.117364 -0.0302468 2.06382e-19)
(0.209864 -0.0375303 1.53766e-19)
(0.311266 -0.0373748 4.21679e-20)
(0.419566 -0.0306652 9.2664e-21)
(0.532393 -0.0184306 -4.51003e-20)
(0.646982 -0.0019554 2.13916e-19)
(0.760262 0.0173239 -5.5062e-20)
(0.868959 0.0379116 3.05615e-19)
(0.969872 0.0584571 3.50961e-19)
(1.05843 0.0730492 4.12162e-20)
(0.0413497 -0.0121345 2.64968e-20)
(0.130591 -0.029737 -2.10958e-20)
(0.230579 -0.0354095 -2.38617e-19)
(0.338505 -0.0330468 -2.65029e-20)
(0.452219 -0.023764 -1.31443e-19)
(0.569158 -0.00882181 1.98234e-21)
(0.686357 0.010267 8.40031e-20)
(0.80057 0.031867 -3.83921e-19)
(0.908419 0.0543262 -3.25735e-20)
(1.00669 0.0761654 -3.30026e-19)
(1.0913 0.0920691 -1.14135e-19)
(0.0463751 -0.0119894 1.24583e-19)
(0.144281 -0.0284782 -3.43414e-19)
(0.251812 -0.03214 1.33174e-19)
(0.36615 -0.0272512 1.52064e-19)
(0.485004 -0.0151697 3.51557e-20)
(0.605638 0.00260163 7.54795e-21)
(0.724916 0.0243155 -2.18421e-19)
(0.839465 0.0481379 6.05106e-20)
(0.945872 0.0722684 -2.98993e-20)
(1.04099 0.0951161 1.79397e-19)
(1.12128 0.111956 2.06674e-19)
(0.0515939 -0.0115489 -1.82203e-19)
(0.158353 -0.0264183 3.44571e-19)
(0.273427 -0.0276625 1.16651e-19)
(0.394011 -0.0199387 -2.73377e-19)
(0.517686 -0.00485865 3.35493e-20)
(0.641563 0.0158243 3.65858e-20)
(0.762371 0.0401259 1.02813e-19)
(0.876666 0.0660198 2.19812e-19)
(0.98107 0.0915713 1.93201e-19)
(1.07259 0.115103 1.45507e-19)
(1.14824 0.132475 -1.62472e-19)
(0.0569766 -0.010791 2.11376e-20)
(0.172718 -0.0235126 -1.53722e-19)
(0.295279 -0.0219304 -4.16426e-20)
(0.421891 -0.0110781 9.45519e-20)
(0.550022 0.00717019 7.55381e-20)
(0.67666 0.0308056 -5.98076e-20)
(0.79844 0.0576096 -1.35996e-19)
(0.911909 0.0853754 -1.35807e-19)
(1.01379 0.112056 -2.60608e-20)
(1.10134 0.135922 -1.66993e-19)
(1.17211 0.153411 -1.5166e-19)
(0.0624894 -0.00969632 7.81219e-20)
(0.187279 -0.019724 9.9638e-20)
(0.317212 -0.0149107 1.62454e-20)
(0.449579 -0.000656908 -2.41384e-21)
(0.581763 0.0208951 -1.81857e-19)
(0.710657 0.0474805 -4.02437e-20)
(0.832854 0.0766551 8.00051e-21)
(0.94495 0.106051 3.29823e-20)
(1.04385 0.133537 1.84259e-20)
(1.12712 0.15737 3.9788e-20)
(1.19287 0.174565 1.66252e-19)
(0.0680946 -0.00824836 7.80623e-20)
(0.20193 -0.0150247 -1.28009e-19)
(0.339058 -0.00658504 -1.10088e-19)
(0.476862 0.0113177 1.1875e-19)
(0.61266 0.0362718 1.23692e-19)
(0.74329 0.0657612 6.59835e-20)
(0.865358 0.0971309 9.71434e-20)
(0.975572 0.127877 1.38566e-20)
(1.07109 0.155821 -1.47678e-19)
(1.14984 0.179253 3.90071e-20)
(1.21052 0.195758 -1.02625e-19)
(0.0737509 -0.00643405 -1.88976e-21)
(0.216558 -0.00939649 -2.79677e-20)
(0.360647 0.0030492 1.57648e-21)
(0.50352 0.0248186 1.09689e-19)
(0.642463 0.053234 -9.7131e-20)
(0.774306 0.0855384 2.59995e-20)
(0.895717 0.118888 -8.73987e-20)
(1.00359 0.150676 1.31541e-20)
(1.09538 0.178717 3.16599e-20)
(1.16946 0.201383 -4.99956e-20)
(1.22509 0.216826 2.29161e-20)
(0.079414 -0.00424425 1.4776e-20)
(0.231045 -0.00283238 2.13834e-20)
(0.3818 0.0139783 -1.1984e-20)
(0.529333 0.0397988 -1.43451e-20)
(0.670932 0.0716939 3.06525e-20)
(0.803463 0.106683 -3.95036e-20)
(0.923719 0.141762 -1.86811e-20)
(1.02883 0.174261 -4.80479e-20)
(1.11664 0.202034 -2.96353e-20)
(1.18598 0.223581 4.08939e-20)
(1.23664 0.237626 3.38921e-20)
(0.0850365 -0.00167418 -3.85271e-20)
(0.245266 0.00466324 6.89207e-21)
(0.402337 0.0261718 -1.85437e-20)
(0.554084 0.0561911 -2.19779e-20)
(0.697835 0.0915435 1.8301e-20)
(0.830541 0.129048 -1.2039e-20)
(0.949179 0.165576 2.94883e-21)
(1.05119 0.19844 -2.59634e-20)
(1.13482 0.225582 2.00991e-20)
(1.1994 0.24568 7.46044e-21)
(1.24526 0.258025 -3.19489e-20)
(0.090569 0.0012762 1.72047e-20)
(0.259097 0.0130738 1.67515e-21)
(0.422078 0.0395818 1.79431e-20)
(0.57756 0.0739088 -5.70883e-21)
(0.722949 0.112655 -1.52902e-20)
(0.855336 0.15247 8.02147e-21)
(0.971937 0.190144 -2.52793e-21)
(1.07055 0.22302 1.85859e-20)
(1.14988 0.249177 5.11925e-22)
(1.20977 0.267522 -8.85432e-21)
(1.25106 0.277907 2.80746e-20)
(0.0959609 0.00460191 1.54859e-20)
(0.272411 0.02237 -9.67859e-22)
(0.440846 0.0541435 1.96954e-20)
(0.599557 0.0928462 -2.24385e-21)
(0.746072 0.134884 -1.84235e-20)
(0.87767 0.176774 9.53244e-21)
(0.991862 0.215273 -2.34042e-21)
(1.08685 0.247807 1.74202e-20)
(1.16183 0.272643 -2.65967e-21)
(1.21717 0.28896 -3.27332e-21)
(1.25415 0.297169 2.14844e-20)
(0.10116 0.00829271 -3.50678e-20)
(0.28508 0.03251 7.97652e-21)
(0.458468 0.069775 -3.64824e-21)
(0.619882 0.11288 -2.29278e-20)
(0.767017 0.15807 4.76932e-21)
(0.897387 0.201773 1.51721e-20)
(1.00885 0.240763 -1.6596e-20)
(1.10005 0.272607 -1.46726e-20)
(1.1707 0.295809 1.60154e-20)
(1.22167 0.309857 -5.0629e-22)
(1.25465 0.315716 -3.67839e-20)
(0.106115 0.0123329 -9.65928e-22)
(0.296981 0.0434391 3.08056e-20)
(0.474778 0.086378 4.63708e-21)
(0.638357 0.133869 2.53817e-21)
(0.785616 0.182037 5.08009e-21)
(0.914358 0.227269 -3.56466e-20)
(1.02283 0.266414 -4.89517e-20)
(1.11014 0.297233 1.05549e-20)
(1.17654 0.318513 -4.00191e-20)
(1.22338 0.330088 4.81078e-20)
(1.25271 0.333465 1.55475e-20)
(0.110774 0.0167012 -3.6013e-20)
(0.307994 0.0550899 3.53586e-20)
(0.48962 0.103839 6.14119e-21)
(0.654817 0.155659 1.69701e-20)
(0.801727 0.206598 2.17803e-20)
(0.928479 0.253059 -4.24264e-20)
(1.03375 0.292023 -2.08078e-20)
(1.11714 0.321499 -4.94859e-20)
(1.17942 0.340601 7.05472e-20)
(1.22242 0.349534 -7.24001e-20)
(1.24846 0.35034 2.89356e-20)
(0.115087 0.0213711 1.422e-20)
(0.318006 0.067383 -1.03277e-19)
(0.502852 0.122029 -6.56276e-21)
(0.669118 0.178079 -1.98262e-20)
(0.815228 0.231558 1.6694e-19)
(0.939675 0.278937 2.30105e-20)
(1.04159 0.317391 1.348e-19)
(1.12108 0.345228 -5.29353e-20)
(1.17943 0.361928 -1.0049e-19)
(1.2189 0.368088 2.1121e-20)
(1.24205 0.366273 -4.02518e-20)
(0.119007 0.0263105 8.6836e-20)
(0.326911 0.0802276 -1.97748e-21)
(0.514343 0.140807 8.05753e-20)
(0.681136 0.200951 -1.70584e-20)
(0.826024 0.256712 -1.58128e-19)
(0.947897 0.304693 -3.79291e-20)
(1.04635 0.342319 -1.40759e-20)
(1.12203 0.368249 1.074e-19)
(1.17668 0.382358 -1.94876e-20)
(1.21296 0.38565 4.12787e-20)
(1.2336 0.3812 6.48795e-20)
(0.122489 0.0314827 -7.16788e-20)
(0.334613 0.0935226 -6.57108e-20)
(0.52398 0.160021 2.75413e-20)
(0.690768 0.224083 1.00329e-20)
(0.834044 0.281852 3.92407e-20)
(0.95312 0.330119 -1.9237e-20)
(1.04808 0.366617 -1.20375e-19)
(1.12005 0.3904 -6.36221e-20)
(1.17127 0.401763 4.15567e-20)
(1.20473 0.402125 -1.41369e-19)
(1.22328 0.395067 -4.99664e-20)
(0.125492 0.0368459 -9.38519e-20)
(0.341026 0.107157 2.31376e-19)
(0.531669 0.179507 1.35149e-19)
(0.697933 0.247279 -2.27673e-19)
(0.839245 0.306765 -7.42176e-21)
(0.955348 0.355007 1.29839e-19)
(1.04681 0.390098 7.01326e-20)
(1.11525 0.411525 3.60282e-20)
(1.16333 0.420023 1.49504e-19)
(1.19436 0.417424 4.34166e-21)
(1.21122 0.407824 1.52198e-20)
(0.127981 0.0423544 1.56273e-19)
(0.34608 0.121013 -2.01007e-19)
(0.537331 0.199094 -6.59335e-20)
(0.702576 0.270338 2.23226e-19)
(0.841608 0.331241 4.96412e-20)
(0.954608 0.379156 -7.34074e-20)
(1.04262 0.412586 -3.48809e-20)
(1.10773 0.431479 6.92373e-20)
(1.15298 0.437026 -1.08071e-19)
(1.18196 0.43146 7.87972e-20)
(1.19751 0.419419 3.66841e-20)
(0.129924 0.0479586 3.94232e-20)
(0.349714 0.134965 -8.41041e-22)
(0.540911 0.218607 -1.29466e-19)
(0.704665 0.293054 1.6686e-20)
(0.84114 0.355069 -2.25342e-19)
(0.950951 0.402369 6.48106e-20)
(1.0356 0.43391 3.51725e-20)
(1.0976 0.45013 -1.10501e-19)
(1.14036 0.452674 -5.60926e-20)
(1.16766 0.444169 -9.52269e-20)
(1.18214 0.429736 -4.07713e-20)
(0.131294 0.0536061 -5.03028e-20)
(0.351884 0.148882 1.18079e-19)
(0.542373 0.237865 1.28781e-19)
(0.704192 0.315223 6.84767e-20)
(0.837873 0.378043 -2.95326e-20)
(0.944452 0.424457 -3.78575e-20)
(1.02586 0.453913 9.62264e-20)
(1.08501 0.467353 6.11082e-20)
(1.12561 0.466887 5.08112e-20)
(1.1516 0.455556 9.78847e-20)
(1.16547 0.438633 7.69797e-21)
(0.132074 0.0592416 -1.43061e-20)
(0.352561 0.16263 8.09419e-20)
(0.541701 0.256687 -1.51577e-20)
(0.701173 0.336642 8.14103e-20)
(0.831863 0.399962 1.8474e-19)
(0.935206 0.445241 -1.49659e-20)
(1.01353 0.472445 -4.01345e-20)
(1.07009 0.483032 4.89282e-20)
(1.10887 0.479567 -2.91578e-20)
(1.13393 0.465505 -2.56191e-20)
(1.14768 0.446302 -6.08207e-21)
(0.132248 0.0648086 3.65019e-20)
(0.35173 0.176074 7.15548e-20)
(0.538903 0.27489 2.02759e-20)
(0.69565 0.357112 -1.3839e-19)
(0.82319 0.420634 -1.08284e-19)
(0.923327 0.46455 1.82544e-20)
(0.99874 0.48937 4.9978e-20)
(1.05298 0.497066 3.48037e-20)
(1.09027 0.490641 -7.66786e-21)
(1.11475 0.473936 -1.93156e-20)
(1.12874 0.452633 1.12172e-20)
(0.131811 0.0702491 -3.03462e-21)
(0.349394 0.189076 -1.04701e-20)
(0.534007 0.292297 -1.41747e-19)
(0.687686 0.37644 1.26068e-20)
(0.811956 0.439875 4.63933e-20)
(0.908949 0.482228 3.09839e-21)
(0.981648 0.504563 -3.4276e-20)
(1.03386 0.509363 3.42315e-20)
(1.06997 0.500047 2.05514e-21)
(1.0942 0.480805 -9.62075e-21)
(1.10875 0.457548 1.56308e-20)
(0.130763 0.0755053 -6.77988e-22)
(0.345571 0.201501 -4.85052e-20)
(0.52706 0.308731 -9.45956e-20)
(0.677366 0.39444 -9.51385e-20)
(0.798282 0.457512 -8.38446e-20)
(0.892223 0.498128 5.06433e-20)
(0.962419 0.517912 -1.27315e-20)
(1.01287 0.519841 -4.88962e-20)
(1.0481 0.507727 9.24201e-21)
(1.07238 0.486073 -5.01246e-21)
(1.0878 0.460996 1.00956e-20)
(0.12911 0.0805203 -5.66392e-20)
(0.340292 0.213219 -5.54254e-20)
(0.518131 0.324024 2.77315e-20)
(0.664798 0.410938 7.63022e-20)
(0.78231 0.473383 -1.54525e-20)
(0.873314 0.512116 -4.70384e-20)
(0.94123 0.529318 -9.93331e-21)
(0.990189 0.528435 7.61262e-21)
(1.02481 0.513639 -3.68627e-21)
(1.04939 0.489702 3.2151e-20)
(1.06599 0.462926 6.0406e-21)
(0.126867 0.0852381 5.25657e-20)
(0.333605 0.224099 -3.22007e-20)
(0.507309 0.338015 5.90049e-20)
(0.650106 0.425767 2.07628e-20)
(0.764198 0.48734 2.48751e-20)
(0.852405 0.524074 2.4048e-20)
(0.918272 0.538694 7.75176e-21)
(0.965996 0.53509 2.19405e-20)
(1.00024 0.517752 4.9698e-20)
(1.02532 0.491668 -4.04622e-20)
(1.04337 0.463282 -5.74058e-21)
(0.124046 0.0896004 -2.59128e-21)
(0.325578 0.234024 1.82213e-20)
(0.494698 0.350553 -1.19859e-20)
(0.633436 0.438774 -2.95617e-20)
(0.744121 0.499249 9.08108e-21)
(0.829689 0.533894 2.78264e-21)
(0.893742 0.545967 -5.48075e-20)
(0.940479 0.539764 -3.21453e-21)
(0.974538 0.52005 -1.40574e-19)
(1.00026 0.491959 -3.23929e-20)
(1.01999 0.462004 -8.69729e-21)
(0.120681 0.0935512 1.9834e-21)
(0.316288 0.242873 1.12709e-20)
(0.480418 0.361498 -1.99396e-21)
(0.614946 0.449821 1.01953e-20)
(0.722267 0.508986 7.63439e-21)
(0.80537 0.541484 -2.14605e-20)
(0.86785 0.551075 -2.82707e-20)
(0.91384 0.542425 -7.99965e-20)
(0.947875 0.520531 3.27416e-20)
(0.974268 0.490578 1.88539e-19)
(0.995876 0.459021 3.82673e-21)
(0.116807 0.0970484 1.10115e-20)
(0.305817 0.250539 -5.14109e-21)
(0.464607 0.370721 2.69313e-20)
(0.59481 0.458781 1.29282e-20)
(0.698835 0.516447 -5.79051e-20)
(0.779662 0.546764 5.12717e-20)
(0.840816 0.553968 4.69614e-20)
(0.886294 0.543056 -1.00387e-19)
(0.920428 0.519212 4.668e-20)
(0.947406 0.48754 -2.35686e-19)
(0.971003 0.454223 -1.71085e-19)
(0.112457 0.100045 3.66681e-21)
(0.294267 0.256925 -1.31986e-21)
(0.447413 0.378106 -5.68801e-20)
(0.573215 0.465545 9.9915e-21)
(0.674034 0.521538 2.78626e-20)
(0.752784 0.549665 -2.87612e-20)
(0.812864 0.554602 8.3766e-20)
(0.858072 0.541645 1.91411e-19)
(0.892407 0.516131 -8.15355e-20)
(0.919787 0.482911 9.9519e-20)
(0.945261 0.447504 1.95078e-19)
(0.107673 0.102498 5.46785e-20)
(0.281749 0.261947 1.04071e-19)
(0.428997 0.383552 8.29896e-20)
(0.550354 0.470016 -9.77241e-20)
(0.648077 0.524183 1.14623e-19)
(0.724959 0.550131 -1.84338e-19)
(0.784221 0.552943 -1.50035e-19)
(0.829415 0.538184 5.35398e-20)
(0.864098 0.511347 -1.07971e-19)
(0.891763 0.476923 1.69175e-19)
(0.918362 0.439269 -1.37924e-19)
(0.102502 0.104371 -8.36051e-20)
(0.268382 0.265528 -6.9061e-20)
(0.409531 0.386975 1.42503e-21)
(0.526431 0.472119 -4.27079e-21)
(0.621183 0.524321 -1.18762e-19)
(0.696405 0.54812 4.60378e-19)
(0.755105 0.548957 -5.13748e-20)
(0.80056 0.532636 -5.37467e-20)
(0.835885 0.504831 2.2551e-19)
(0.864201 0.469847 -1.86656e-19)
(0.889963 0.430124 -1.08877e-19)
(0.0969958 0.105632 -2.02376e-20)
(0.254295 0.267605 1.27857e-19)
(0.389192 0.388304 5.65043e-20)
(0.501655 0.471794 1.38132e-19)
(0.593571 0.52191 -1.5386e-19)
(0.667338 0.543602 -1.21981e-19)
(0.725713 0.542618 3.40443e-19)
(0.771699 0.52494 7.05693e-21)
(0.808113 0.496326 -1.72319e-19)
(0.83808 0.461112 1.25111e-19)
(0.865599 0.421455 3.52998e-20)
(0.091208 0.106254 4.56981e-20)
(0.239619 0.268125 -1.30803e-19)
(0.368164 0.387487 7.60254e-20)
(0.476236 0.468999 -1.43069e-19)
(0.565459 0.516924 9.98749e-20)
(0.637965 0.536568 -8.22527e-20)
(0.696222 0.533927 -1.91958e-19)
(0.742941 0.515103 9.40872e-20)
(0.780664 0.485844 2.35856e-19)
(0.81235 0.450458 -8.11823e-20)
(0.8413 0.411172 3.27935e-19)
(0.0851962 0.106217 -9.46573e-20)
(0.224494 0.267052 -1.43511e-21)
(0.346638 0.384489 -9.92843e-20)
(0.450391 0.463712 1.37981e-19)
(0.53707 0.509359 -5.74714e-21)
(0.608493 0.527031 5.65068e-20)
(0.666811 0.522912 -2.11051e-19)
(0.714416 0.503171 -8.2243e-20)
(0.753564 0.473505 -2.4507e-19)
(0.786955 0.438157 -2.97964e-20)
(0.81729 0.399499 -3.46834e-19)
(0.0790203 0.105504 6.09869e-20)
(0.209062 0.264362 6.16041e-20)
(0.324805 0.379292 1.83403e-19)
(0.424337 0.45593 -2.18281e-19)
(0.508622 0.499227 6.67078e-23)
(0.579132 0.515017 2.20943e-20)
(0.637664 0.509613 4.77683e-19)
(0.686277 0.4892 1.78711e-19)
(0.726935 0.459395 -1.48947e-19)
(0.762054 0.424371 1.15105e-19)
(0.793854 0.386604 2.60327e-19)
(0.0727416 0.104109 9.6381e-21)
(0.193469 0.260045 -7.69604e-20)
(0.30286 0.371897 -7.43358e-20)
(0.398292 0.445668 1.02529e-19)
(0.480337 0.486558 7.032e-20)
(0.550088 0.500569 9.27377e-20)
(0.608967 0.49408 -1.86063e-19)
(0.658687 0.473247 -2.64155e-19)
(0.700918 0.443575 4.77289e-19)
(0.737788 0.409151 1.6378e-19)
(0.771118 0.372506 2.67577e-19)
(0.0664225 0.102028 1.29421e-19)
(0.17786 0.254104 -2.54905e-19)
(0.280998 0.362321 -2.36586e-19)
(0.37247 0.432958 2.29932e-19)
(0.45243 0.471399 -1.08032e-19)
(0.521564 0.483742 5.92841e-20)
(0.580904 0.476375 4.20813e-21)
(0.631809 0.455372 -1.84916e-19)
(0.675655 0.426095 1.26212e-19)
(0.714288 0.392528 -4.14699e-19)
(0.749193 0.357204 -8.80733e-20)
(0.0601257 0.0992643 1.54657e-19)
(0.162381 0.246557 -1.24482e-19)
(0.25941 0.350596 4.48001e-19)
(0.347084 0.41785 -3.68168e-19)
(0.425113 0.45381 -4.15875e-19)
(0.493761 0.464605 -2.39341e-20)
(0.553655 0.456565 1.52746e-19)
(0.6058 0.435638 -5.53596e-19)
(0.651286 0.407008 -6.47631e-19)
(0.691682 0.374532 4.7174e-19)
(0.728186 0.340703 9.9827e-20)
(0.0539135 0.095829 -2.35249e-20)
(0.147177 0.237435 -9.35096e-20)
(0.238286 0.336775 -5.66004e-20)
(0.32234 0.40041 5.06384e-21)
(0.398593 0.433869 1.22121e-19)
(0.466871 0.443238 -6.88679e-20)
(0.527394 0.434729 6.33329e-20)
(0.580814 0.414115 3.51808e-19)
(0.627942 0.386372 5.06963e-19)
(0.670086 0.355203 -1.88244e-19)
(0.708193 0.323024 8.59208e-20)
(0.0478473 0.0917377 1.25283e-19)
(0.132388 0.226782 6.25323e-20)
(0.21781 0.320925 1.64929e-19)
(0.298441 0.380722 1.84033e-19)
(0.373068 0.411667 5.24741e-20)
(0.441078 0.419733 9.95946e-20)
(0.502284 0.410954 -7.94749e-20)
(0.556994 0.390881 1.55829e-19)
(0.605749 0.364251 2.68925e-19)
(0.649605 0.334588 -5.44836e-19)
(0.689297 0.304198 -2.80691e-19)
(0.0419868 0.0870122 -7.63682e-20)
(0.118149 0.214654 -7.46231e-20)
(0.198157 0.303126 -1.34819e-19)
(0.275576 0.358883 -2.49941e-19)
(0.348727 0.387309 -2.72877e-19)
(0.416557 0.394195 -2.28302e-19)
(0.478483 0.385338 -6.25335e-20)
(0.534475 0.366022 -3.00368e-20)
(0.58482 0.340715 -6.38605e-19)