/*--------------------------------*- C++ -*----------------------------------*\
  =========                 |
  \\      /  F ield         | OpenFOAM: The Open Source CFD Toolbox
   \\    /   O peration     | Website:  https://openfoam.org
    \\  /    A nd           | Version:  7
     \\/     M anipulation  |
\*---------------------------------------------------------------------------*/
FoamFile
{
    version     2.0;
    format      ascii;
    class       surfaceScalarField;
    location    "220";
    object      phi;
}
// * * * * * * * * * * * * * * * * * * * * * * * * * * * * * * * * * * * * * //

dimensions      [0 3 -1 0 0 0 0];

internalField   nonuniform List<scalar> 
8899
(
-1.12488e-05
0.000322205
-0.000317023
-1.81351e-05
0.000382799
-0.000375913
-2.66935e-05
0.000431287
-0.000422729
-3.68383e-05
0.000469143
-0.000458998
-4.84483e-05
0.000498135
-0.000486525
-6.13853e-05
0.000520156
-0.000507219
-7.55108e-05
0.000537043
-0.000522917
-9.06989e-05
0.000550412
-0.000535224
-0.000106846
0.000561528
-0.000545382
-0.000123874
0.000571213
-0.000554184
-0.000141738
0.000579802
-0.000561938
-0.000160423
0.000587146
-0.000568461
-0.00017994
0.000592626
-0.000573109
-0.000200332
0.000595194
-0.000574802
-0.000221667
0.000593398
-0.000572064
-0.000244026
0.000585393
-0.000563033
0.000568831
-0.00054531
-0.000267547
-9.21197e-06
0.000326595
-1.51943e-05
0.000388781
-2.27668e-05
0.00043886
-3.18622e-05
0.000478238
-4.2366e-05
0.000508639
-5.41355e-05
0.000531925
-6.70172e-05
0.000549924
-8.08616e-05
0.000564256
-9.55333e-05
0.0005762
-0.000110919
0.000586598
-0.000126931
0.000595814
-0.000143509
0.000603723
-0.000160622
0.000609739
-0.000178269
0.000612841
-0.000196485
0.000611614
-0.000215336
0.000604243
0.000588449
-0.000234954
-7.11251e-06
0.000330163
-1.21477e-05
0.000393817
-1.8678e-05
0.00044539
-2.66543e-05
0.000486215
-3.59681e-05
0.000517953
-4.64713e-05
0.000542429
-5.79942e-05
0.000561447
-7.03617e-05
0.000576624
-8.3405e-05
0.000589243
-9.69704e-05
0.000600164
-0.000110925
0.000609769
-0.000125162
0.00061796
-0.000139601
0.000624178
-0.000154196
0.000627436
-0.000168945
0.000626363
-0.000183896
0.000619195
0.000603726
-0.000199173
-4.96351e-06
0.000332882
-9.01327e-06
0.000397866
-1.44503e-05
0.000450827
-2.1243e-05
0.000493007
-2.92887e-05
0.000525999
-3.84334e-05
0.000551573
-4.84906e-05
0.000571504
-5.92583e-05
0.000587392
-7.05325e-05
0.000600518
-8.21174e-05
0.000611749
-9.3833e-05
0.000621485
-0.000105521
0.000629648
-0.000117049
0.000635707
-0.000128323
0.00063871
-0.000139302
0.000637342
-0.000150018
0.00062991
0.000614281
-0.000160573
-2.77957e-06
0.000334731
-5.8114e-06
0.000400898
-1.011e-05
0.000455125
-1.56609e-05
0.000498558
-2.23672e-05
0.000532705
-3.00692e-05
0.000559275
-3.85631e-05
0.000579998
-4.76197e-05
0.000596448
-5.69989e-05
0.000609897
-6.64616e-05
0.000621212
-7.57784e-05
0.000630802
-8.47377e-05
0.000638607
-9.31542e-05
0.000644123
-0.000100881
0.000646438
-0.000107837
0.000644297
-0.000114038
0.000636111
0.0006198
-0.000119558
-5.76487e-07
0.000335696
-2.56444e-06
0.000402886
-5.68621e-06
0.000458247
-9.94441e-06
0.000502817
-1.52481e-05
0.000538009
-2.14319e-05
0.000565459
-2.82755e-05
0.000586842
-3.55226e-05
0.000603695
-4.2897e-05
0.000617271
-5.01156e-05
0.00062843
-5.68991e-05
0.000637585
-6.29815e-05
0.00064469
-6.81212e-05
0.000649263
-7.2118e-05
0.000650434
-7.4847e-05
0.000647026
-7.63201e-05
0.000637584
0.000620043
-7.65633e-05
1.6285e-06
0.000335768
7.0365e-07
0.000403811
-1.21081e-06
0.000460162
-4.1336e-06
0.000505739
-7.98011e-06
0.000541855
-1.25802e-05
0.000570059
-1.76978e-05
0.00059196
-2.30507e-05
0.000609048
-2.83271e-05
0.000622548
-3.32007e-05
0.000633304
-3.73419e-05
0.000641726
-4.04297e-05
0.000647777
-4.21652e-05
0.000650998
-4.22921e-05
0.000650561
-4.06356e-05
0.00064537
-3.72392e-05
0.000634188
0.000614891
-3.20867e-05
3.8178e-06
3.96684e-06
0.000403662
3.28224e-06
0.000460846
1.72877e-06
0.000507293
-6.15651e-07
0.0005442
-3.5771e-06
0.00057302
-6.90534e-06
0.000595288
-1.02935e-05
0.000612436
-1.3396e-05
0.00062565
-1.58443e-05
0.000635752
-1.72599e-05
0.000643142
-1.72669e-05
0.000647784
-1.5508e-05
0.000649239
-1.16706e-05
0.000646724
-5.50999e-06
0.000639209
3.20974e-06
0.000625468
0.000604799
1.3302e-05
7.19916e-06
0.000402436
7.75756e-06
0.000460288
7.59755e-06
0.000507453
6.78985e-06
0.000545007
5.5107e-06
0.0005743
4.02277e-06
0.000596776
2.6553e-06
0.000613804
1.7854e-06
0.00062652
1.82165e-06
0.000635716
3.18994e-06
0.000641774
6.31969e-06
0.000644655
1.16265e-05
0.000643933
1.94837e-05
0.000638867
3.01679e-05
0.000628525
4.37148e-05
0.000611921
0.00058848
6.00335e-05
1.03733e-05
0.000400139
1.21785e-05
0.000458483
1.3426e-05
0.000506205
1.41788e-05
0.000544255
1.4614e-05
0.000573864
1.50044e-05
0.000596385
1.5699e-05
0.000613109
1.71036e-05
0.000625115
1.96638e-05
0.000633156
2.38502e-05
0.000637587
3.0144e-05
0.000638361
3.90182e-05
0.000635058
5.09078e-05
0.000626977
6.61475e-05
0.000613285
8.48469e-05
0.000593222
0.000566502
0.000106825
1.34617e-05
0.000396784
1.65079e-05
0.000455436
1.91665e-05
0.000503547
2.14923e-05
0.000541929
2.36618e-05
0.000571695
2.59557e-05
0.000594092
2.87394e-05
0.000610326
3.2444e-05
0.000621411
3.75487e-05
0.000628051
4.45654e-05
0.00063057
5.4024e-05
0.000628902
6.64542e-05
0.000622628
8.23541e-05
0.000611077
0.000102125
0.000593514
0.000125926
0.000569421
0.000538906
0.000153522
1.64373e-05
0.000392396
2.07084e-05
0.000451165
2.47708e-05
0.000499484
2.86708e-05
0.000538029
3.25826e-05
0.000567783
3.67921e-05
0.000589882
4.16782e-05
0.000605439
4.76932e-05
0.000615396
5.53455e-05
0.000620398
6.51844e-05
0.000620732
7.77852e-05
0.000616301
9.37317e-05
0.000606682
0.000113586
0.000591223
0.000137819
0.000569281
0.000166644
0.000540596
0.000505768
0.000199782
1.92733e-05
0.000387007
2.47434e-05
0.000445695
3.01912e-05
0.000494036
3.56549e-05
0.000532565
4.13049e-05
0.000562133
4.74298e-05
0.000583757
5.44181e-05
0.000598451
6.27396e-05
0.000607074
7.29274e-05
0.000610211
8.55632e-05
0.000608096
0.000101263
0.000600601
0.000120663
0.000587282
0.000144386
0.0005675
0.00017298
0.000540687
0.000206721
0.000506855
0.000467189
0.0002453
2.19441e-05
0.000380658
2.85771e-05
0.000439062
3.53812e-05
0.000487232
4.23865e-05
0.00052556
4.97585e-05
0.000554761
5.77863e-05
0.000575729
6.68644e-05
0.000589373
7.74757e-05
0.000596463
9.01733e-05
0.000597513
0.000105566
0.000592703
0.000124307
0.00058186
0.000147079
0.000564511
0.000174566
0.000540012
0.000207395
0.000507858
0.00024592
0.000468331
0.000423288
0.00028982
2.44255e-05
0.000373398
3.21755e-05
0.000431312
4.0296e-05
0.000479112
4.88093e-05
0.000517047
5.78757e-05
0.000545695
6.77819e-05
0.000565823
7.89258e-05
0.000578229
9.17989e-05
0.00058359
0.00010697
0.000582342
0.000125069
0.000574603
0.000146781
0.000560148
0.000172831
0.000538461
0.000203964
0.000508879
0.000240888
0.000470934
0.000284046
0.000425172
0.000374191
0.000333143
2.66952e-05
3.55069e-05
0.0004225
4.48931e-05
0.000469726
5.487e-05
0.00050707
6.55915e-05
0.000534973
7.73408e-05
0.000554074
9.05159e-05
0.000565054
0.000105613
0.000568493
0.000123211
0.000564744
0.000143959
0.000553855
0.000168566
0.000535541
0.000197795
0.000509232
0.000232449
0.000474225
0.000273321
0.000430062
0.000320962
0.000377531
0.000320021
0.000375132
3.85421e-05
0.000412691
4.91336e-05
0.000459134
6.05188e-05
0.000495684
7.28457e-05
0.000522646
8.63923e-05
0.000540527
0.000101554
0.000549892
0.000118829
0.000551218
0.000138804
0.00054477
0.000162138
0.000530521
0.000189562
0.000508117
0.000221873
0.000476921
0.000259927
0.000436171
0.000304606
0.000385383
0.000356583
0.000325555
0.000260885
0.000415719
4.12552e-05
0.000401957
5.29824e-05
0.000447407
6.57108e-05
0.000482956
7.95831e-05
0.000508774
9.48717e-05
0.000525239
0.000111968
0.000532796
0.000131369
0.000531817
0.000153663
0.000522476
0.000179521
0.000504664
0.000209689
0.00047795
0.000244992
0.000441618
0.000286337
0.000394825
0.000334699
0.000337022
0.000390884
0.000269369
0.000196862
0.000454908
4.36246e-05
0.000390377
5.64093e-05
0.000434622
7.04067e-05
0.000468959
8.57554e-05
0.000493425
0.000102722
0.000508272
0.000121693
0.000513825
0.000143163
0.000510347
0.00016772
0.000497918
0.000196042
0.000476342
0.000228887
0.000445104
0.000267108
0.000403398
0.000311659
0.000350274
0.000363604
0.000285077
0.000423901
0.000209072
0.000127988
0.000492775
4.56326e-05
5.93895e-05
0.000420865
7.4574e-05
0.000453774
9.13222e-05
0.000476677
0.000109896
0.000489698
0.000130677
0.000493044
0.000154155
0.000486869
0.00018092
0.000471153
0.000211653
0.00044561
0.000247124
0.000409633
0.000288209
0.000362312
0.000335908
0.000302575
0.000391377
0.000229608
0.000455733
0.000144716
5.42486e-05
0.000529472
6.19049e-05
0.000406227
7.8188e-05
0.000437491
9.62524e-05
0.000458613
0.000116357
0.000469594
0.000138879
0.000470522
0.000164306
0.000461442
0.000193227
0.000442232
0.000226327
0.000412509
0.000264391
0.000371569
0.000308316
0.000318387
0.000359146
0.000251746
0.000418127
0.000170627
0.00048654
7.63026e-05
-2.44313e-05
0.00056522
6.39449e-05
0.000390804
8.12335e-05
0.000420203
0.000100526
0.00043932
0.000122082
0.000448038
0.000146275
0.000446329
0.000173592
0.000434125
0.000204625
0.000411199
0.000240065
0.000377068
0.000280712
0.000330922
0.000327487
0.000271612
0.000381477
0.000197756
0.000444017
0.000108087
0.000516551
3.76826e-06
-0.000108194
0.000600314
6.55073e-05
0.000374691
8.37059e-05
0.000402004
0.000104137
0.000418888
0.000127063
0.000425113
0.000152858
0.000420533
0.000182014
0.000404969
0.000215125
0.000378087
0.000252897
0.000339297
0.000296146
0.000287673
0.000345823
0.000221935
0.000403058
0.000140521
0.000469271
4.18749e-05
0.000546061
-7.30219e-05
-0.000197243
0.00063511
6.65995e-05
8.56128e-05
0.000382991
0.000107094
0.000397407
0.000131311
0.000400896
0.000158646
0.000393198
0.000189597
0.000374019
0.000224771
0.000342913
0.00026489
0.000299177
0.000310797
0.000241767
0.000363477
0.000169255
0.000424105
7.9893e-05
0.000494178
-2.8198e-05
0.000575432
-0.000154277
-0.000291848
0.000670037
8.69755e-05
0.000363254
0.000109422
0.000374961
0.000134858
0.000375459
0.00016368
0.000364376
0.000196398
0.000341301
0.00023364
0.000305672
0.000276153
0.000256664
0.000324815
0.000193105
0.000380654
0.000113416
0.000444891
1.56556e-05
0.000519091
-0.000102398
0.0006051
-0.000240286
-0.000392329
0.00070558
8.78305e-05
0.00034288
0.000111165
0.000351627
0.000137761
0.000348864
0.000168031
0.000334105
0.000202509
0.000306823
0.000241852
0.000266329
0.000286843
0.000211673
0.000338407
0.000141542
0.000397621
5.42019e-05
0.000465757
-5.24804e-05
0.000544426
-0.000181067
0.000635554
-0.000331413
-0.00049904
0.000742265
8.82307e-05
0.000112391
0.000327466
0.000140101
0.000321154
0.000171802
0.000302404
0.00020806
0.000270565
0.000249572
0.000224817
0.000297171
0.000164074
0.000351836
8.68767e-05
0.000414707
-8.66856e-06
0.000487101
-0.000124875
0.000570655
-0.000264621
0.000667322
-0.00042808
-0.000612322
0.000780604
0.000113187
0.000302526
0.000141988
0.000292353
0.00017513
0.000269262
0.000213222
0.000232473
0.000257013
0.000181026
0.000307399
0.000113688
0.000365425
2.885e-05
0.000432297
-7.55404e-05
0.000509376
-0.000201954
0.000598282
-0.000353527
0.000700947
-0.000530744
-0.000732442
0.000821067
0.000113666
0.000276827
0.000143563
0.000262455
0.000178189
0.000234637
0.000218208
0.000192453
0.000264437
0.000134798
0.000317842
6.02833e-05
0.000379548
-3.28563e-05
0.000450825
-0.000146817
0.000533066
-0.000284195
0.000627821
-0.000448283
0.000736945
-0.000639868
-0.000859554
0.000864057
0.00011396
0.000144993
0.000231423
0.000181184
0.000198445
0.000223272
0.000150366
0.000272146
8.59236e-05
0.00032886
3.5692e-06
0.000394619
-9.86151e-05
0.00047075
-0.000222948
0.000558657
-0.000372102
0.000659753
-0.000549379
0.000775761
-0.000755876
-0.000993611
0.000909818
0.000146471
0.00019918
0.000184355
0.000160561
0.000228698
0.000106023
0.00028048
3.41416e-05
0.000340844
-5.67952e-05
0.000411073
-0.000168843
0.000492534
-0.00030441
0.000586609
-0.000466177
0.000694481
-0.000657252
0.00081769
-0.000879085
-0.00113444
0.000958523
0.000148213
0.000187962
0.000120812
0.000234798
5.91869e-05
0.000289799
-2.08586e-05
0.000354196
-0.000121192
0.000429338
-0.000243986
0.000516606
-0.000391677
0.000617305
-0.000566876
0.000732292
-0.000772239
0.000862883
-0.00100968
-0.00128145
0.00100989
0.000192282
7.89793e-05
0.000241895
9.57384e-06
0.000300465
-7.94281e-05
0.000369306
-0.000190033
0.000449809
-0.000324489
0.000543322
-0.00048519
0.000651013
-0.000674567
0.00077331
-0.000894536
0.00091127
-0.00114763
-0.00143359
0.00106341
0.000197594
3.48029e-05
0.000250306
-4.3138e-05
0.000312823
-0.000141945
0.000386524
-0.000263734
0.000472808
-0.000410773
0.000572931
-0.000585313
0.000687847
-0.000789483
0.000817462
-0.00102415
0.000962574
-0.00129275
-0.00159009
0.00111907
0.000204167
0.000260326
-9.92969e-05
0.000327177
-0.000208796
0.000406135
-0.000342693
0.000498557
-0.000503195
0.000605538
-0.000692295
0.000727727
-0.000911672
0.000864447
-0.00116087
0.00101616
-0.00144446
-0.00174932
0.00117539
0.000272207
-0.000159261
0.000343766
-0.000280355
0.000428328
-0.000427255
0.000527147
-0.000602014
0.000641083
-0.000806231
0.000770373
-0.00104096
0.000913748
-0.00130425
0.00107118
-0.00160189
-0.00190937
0.00123122
0.000286145
0.000362745
-0.000356955
0.000453178
-0.000517687
0.000558524
-0.00070736
0.000679328
-0.000927035
0.000815309
-0.00117694
0.000964656
-0.00145359
0.00112652
-0.00176376
-0.00206828
0.00128544
0.000384173
-0.000438867
0.000480633
-0.000614147
0.000592477
-0.000819204
0.000719863
-0.00105442
0.000861915
-0.001319
0.00101638
-0.00160806
0.0011809
-0.00192828
-0.00222442
0.00133704
0.000408
0.000510511
-0.000716658
0.000628641
-0.000937334
0.000762105
-0.00118788
0.000909446
-0.00146634
0.0010682
-0.00176681
0.0012333
-0.00209339
-0.00237619
0.00138508
0.000542502
-0.00082509
0.000666507
-0.00106134
0.000805299
-0.00132668
0.000956913
-0.00161795
0.00111906
-0.00192895
0.00128411
-0.00225844
-0.00252
0.00142792
0.000576192
0.00070546
-0.00119061
0.000848586
-0.0014698
0.00100306
-0.00177242
0.00116631
-0.00209221
0.00133227
-0.00242439
-0.00272105
0.00153332
0.000744822
0.000891101
-0.00161608
0.00104684
-0.00192816
0.00120887
-0.00225424
0.00137135
-0.00258687
-0.00289825
0.00154854
0.000932056
-0.00176423
0.00108743
-0.00208354
0.00124608
-0.00241288
0.0014024
-0.00274319
-0.00305761
0.00156176
0.000970742
0.00112423
-0.00223702
0.00127798
-0.00256663
0.00142671
-0.00289192
-0.00320247
0.00157158
0.00115677
0.00130446
-0.00271432
0.00144477
-0.00303223
-0.00333469
0.00157698
0.00132546
-0.00285508
0.00145688
-0.00316365
-0.00345546
0.00157766
0.00134098
0.00146333
-0.00328599
-0.00356568
0.00157355
0.0014644
-0.00366609
0.00156481
0.00155174
0.00301984
0.00144243
0.0013001
0.00262516
0.00289017
0.00142977
0.00113007
0.00220757
0.00127197
0.00248326
0.00275125
0.00141089
0.00108934
0.00206145
0.00123738
0.00233521
0.00260285
0.00138578
0.000894625
0.00165031
0.00104296
0.00191312
0.00119632
0.00218186
0.00244447
0.0013547
0.000703673
0.00127397
0.000841885
0.00151209
0.000991064
0.00176394
0.0011487
0.00202422
0.00227499
0.00131818
0.000650358
0.00115289
0.000785323
0.00137713
0.000933741
0.00161552
0.0010943
0.00186366
0.00209226
0.00127703
0.000479721
0.00084584
0.000595045
0.00103757
0.00072526
0.00124691
0.000870862
0.00146992
0.0010325
0.00170202
0.00189236
0.0012324
0.000335961
0.000594739
0.000429588
0.000752214
0.000538198
0.000928958
0.000662081
0.00112303
0.000801911
0.00133009
0.000959768
0.00154417
0.00166633
0.00118579
0.000292901
0.000522326
0.000379304
0.00066581
0.000480391
0.000827871
0.000596502
0.00100692
0.000727814
0.00119878
0.000871163
0.00140082
0.00154142
0.00099608
0.000184933
0.000344554
0.000250448
0.000456811
0.000329337
0.000586921
0.000422358
0.00073485
0.000529774
0.000899505
0.000651011
0.00107754
0.000784313
0.00126751
0.00141462
0.00091111
0.000150311
0.0002975
0.000208914
0.000398209
0.000280161
0.000515674
0.000364864
0.000650147
0.000463354
0.000801015
0.000575113
0.00096578
0.000700335
0.00114229
0.00129017
0.00082479
7.58063e-05
0.000181184
0.000116836
0.00025647
0.000168606
0.000346439
0.000232225
0.000452055
0.000308568
0.000573803
0.000398135
0.000711449
0.000500768
0.000863147
0.000617444
0.00102562
0.00116886
0.000738751
4.95254e-05
0.000154717
8.47173e-05
0.000221278
0.00012982
0.000301337
0.000185941
0.000395934
0.000254021
0.000505723
0.000334743
0.000630726
0.000428381
0.00076951
0.000536306
0.000917691
0.00105156
0.000653609
2.91128e-06
8.55703e-05
2.45631e-05
0.000133066
5.41583e-05
0.000191683
9.28342e-05
0.000262661
0.00014169
0.000347079
0.000201725
0.000445688
0.000273807
0.000558644
0.000358654
0.000684663
0.000457975
0.00081837
0.000939327
0.000570204
-1.60458e-05
7.45961e-05
1.05873e-06
0.000115961
2.53498e-05
0.000167392
5.7911e-05
0.0002301
9.98276e-05
0.000305162
0.000152157
0.000393358
0.000215944
0.000494857
0.000292333
0.000608275
0.000383319
0.000727384
0.000833118
0.000489528
-4.10947e-05
3.92269e-05
-3.37197e-05
6.7221e-05
-2.08621e-05
0.000103103
-1.5382e-06
0.000148068
2.5284e-05
0.000203277
6.06736e-05
0.000269772
0.000105743
0.000348289
0.000161706
0.000438893
0.000230072
0.000539909
0.000313051
0.000644405
0.000733648
0.000412521
-5.40907e-05
3.9194e-05
-5.00347e-05
6.31651e-05
-4.10977e-05
9.41664e-05
-2.63637e-05
0.000133334
-4.85188e-06
0.000181766
2.44941e-05
0.000240426
6.28367e-05
0.000309947
0.000111544
0.000390186
0.000172403
0.00047905
0.000247731
0.000569076
0.000641428
0.000339952
-6.59668e-05
4.17056e-05
-6.49369e-05
6.21352e-05
-5.95745e-05
8.8804e-05
-4.90255e-05
0.000122785
-3.23543e-05
0.000165094
-8.51583e-06
0.000216588
2.3698e-05
0.000277733
6.57777e-05
0.000348106
0.000119695
0.000425133
0.000187736
0.000501035
0.000556794
0.00027237
-7.18949e-05
3.36751e-05
-7.67012e-05
4.65118e-05
-7.83979e-05
6.38319e-05
-7.62538e-05
8.66599e-05
-6.94686e-05
0.000116
-5.71454e-05
0.000152771
-3.82484e-05
0.000197691
-1.1534e-05
0.000251018
2.45721e-05
0.000312
7.212e-05
0.000377585
0.000133229
0.000439927
0.00047995
0.000210072
-7.94399e-05
4.26209e-05
-8.62927e-05
5.33646e-05
-9.04179e-05
6.79572e-05
-9.11354e-05
8.73773e-05
-8.76908e-05
0.000112555
-7.92195e-05
0.0001443
-6.4695e-05
0.000183166
-4.28525e-05
0.000229176
-1.20805e-05
0.000281228
2.96257e-05
0.000335879
8.4172e-05
0.000385381
0.000411019
0.000153103
-8.61029e-05
5.3082e-05
-9.47615e-05
6.20232e-05
-0.000101026
7.42217e-05
-0.000104259
9.06104e-05
-0.000103744
0.000112041
-9.86453e-05
0.000139201
-8.79469e-05
0.000172468
-7.03818e-05
0.000211611
-4.43731e-05
0.000255219
-8.13551e-06
0.000299641
4.04444e-05
0.000336801
0.000350188
0.000101276
-8.01249e-05
5.92359e-05
-9.19113e-05
6.48684e-05
-0.000102148
7.22597e-05
-0.000110279
8.23525e-05
-0.000115702
9.60337e-05
-0.000117734
0.000114072
-0.000115562
0.000137029
-0.00010819
0.000165096
-9.43714e-05
0.000197792
-7.2578e-05
0.000233426
-4.09375e-05
0.000268
2.93151e-06
0.000292932
0.000298946
5.41735e-05
-8.39711e-05
7.29909e-05
-9.69061e-05
7.78033e-05
-0.00010851
8.38635e-05
-0.000118257
9.20992e-05
-0.000125575
0.000103352
-0.000129807
0.000118305
-0.000130169
0.000137391
-0.000125689
0.000160616
-0.000115169
0.000187272
-9.71818e-05
0.000215439
-7.02084e-05
0.000241027
-3.3614e-05
0.000256337
0.000254845
1.04871e-05
-8.72159e-05
8.7567e-05
-0.000101138
9.17259e-05
-0.00011392
9.66451e-05
-0.00012506
0.000103239
-0.000134013
0.000112304
-0.000140149
0.000124441
-0.000142709
0.000139951
-0.000140764
0.00015867
-0.000133179
0.000179688
-0.000118661
0.00020092
-9.59649e-05
0.000218331
-6.47653e-05
0.000225138
0.000216053
-2.5973e-05
-7.46272e-05
9.85022e-05
-8.99009e-05
0.000102841
-0.000104668
0.000106493
-0.000118461
0.000110438
-0.000130802
0.000115581
-0.00014117
0.000122672
-0.000148962
0.000132233
-0.000153453
0.000144442
-0.000153761
0.000158979
-0.000148838
0.000174764
-0.000137528
0.000189611
-0.000118819
0.000199621
-9.25351e-05
0.000198854
0.00018269
-5.91723e-05
-7.62093e-05
0.000114274
-9.20709e-05
0.000118702
-0.000107557
0.000121979
-0.000122219
0.000125101
-0.000135602
0.000128963
-0.000147206
0.000134277
-0.00015646
0.000141487
-0.000162678
0.00015066
-0.000165038
0.000161339
-0.000162588
0.000172315
-0.000154326
0.000181349
-0.000139454
0.000184749
-0.000117954
0.000177355
0.000155191
-9.04545e-05
-7.74187e-05
0.000130433
-9.37723e-05
0.000135056
-0.000109871
0.000138077
-0.000125284
0.000140514
-0.000139578
0.000143256
-0.000152279
0.000146979
-0.000162849
0.000152056
-0.000170649
0.000158461
-0.000174929
0.000165618
-0.000174844
0.000172229
-0.000169549
0.000176054
-0.000158447
0.000173647
-0.000141663
0.000160571
0.0001335
-0.000119973
-7.82874e-05
0.000146904
-9.50501e-05
0.000151818
-0.000111671
0.000154698
-0.000127739
0.000156582
-0.000142842
0.000158359
-0.000156536
0.000160672
-0.000168319
0.00016384
-0.000177609
0.00016775
-0.000183732
0.000171742
-0.00018596
0.000174457
-0.000183603
0.000173697
-0.000176244
0.000166288
-0.000164117
0.000148444
0.000117448
-0.000148066
-6.21297e-05
0.000154726
-7.88453e-05
0.00016362
-9.5946e-05
0.000168919
-0.000113015
0.000171767
-0.000129661
0.000173228
-0.000145495
0.000174193
-0.000160106
0.000175284
-0.000173035
0.00017677
-0.00018376
0.000178475
-0.000191692
0.000179674
-0.000196219
0.000178983
-0.0001968
0.000174279
-0.000193171
0.00016266
-0.000185637
0.00014091
0.000106835
-0.000175024
-6.22181e-05
0.000170706
-7.91195e-05
0.000180521
-9.6497e-05
0.000186297
-0.000113951
0.000189221
-0.000131113
0.00019039
-0.00014762
0.0001907
-0.000163095
0.000190759
-0.000177128
0.000190803
-0.00018926
0.000190606
-0.000198991
0.000189404
-0.000205822
0.000185815
-0.000209351
0.000177807
-0.000209436
0.000162745
-0.000206416
0.00013789
0.000101459
-0.00020104
-6.2098e-05
0.000186746
-7.91324e-05
0.000197556
-9.67335e-05
0.000203898
-0.000114521
0.000207009
-0.000132149
0.000208017
-0.000149283
0.000207834
-0.000165585
0.000207061
-0.000180694
0.000205912
-0.000194218
0.000204131
-0.000205748
0.000200934
-0.000214892
0.00019496
-0.000221368
0.000184283
-0.000225133
0.00016651
-0.000226533
0.00013929
0.000101123
-0.000226196
-6.17824e-05
0.000202798
-7.8902e-05
0.000214675
-9.66791e-05
0.000221675
-0.000114754
0.000225084
-0.000132805
0.000226068
-0.000150529
0.000225557
-0.000167627
0.00022416
-0.000183791
0.000222076
-0.000198698
0.000219037
-0.000212021
0.000214257
-0.000223475
0.000206413
-0.000232877
0.000193685
-0.00024026
0.000173893
-0.000245956
0.000144986
0.000105629
-0.000250463
-4.52602e-05
0.000199183
-6.12809e-05
0.000218819
-7.84408e-05
0.000231835
-9.63499e-05
0.000239584
-0.00011467
0.000243405
-0.000133105
0.000244502
-0.000151384
0.000243836
-0.000169249
0.000242025
-0.000186444
0.000239271
-0.000202714
0.000235307
-0.000217814
0.000229357
-0.000231548
0.000220147
-0.000243823
0.00020596
-0.000254726
0.000184796
-0.000264563
0.000154822
0.000114771
-0.000273705
-4.46532e-05
0.000213492
-6.05995e-05
0.000234765
-7.77562e-05
0.000248992
-9.57544e-05
0.000257582
-0.000114279
0.000261929
-0.000133058
0.000263282
-0.000151855
0.000262633
-0.000170452
0.000260622
-0.000188646
0.000257466
-0.000206245
0.000252905
-0.000223079
0.000246191
-0.000239034
0.000236102
-0.000254089
0.000221016
-0.000268371
0.000199078
-0.000282156
0.000168607
0.000128316
-0.0002957
-4.39114e-05
0.000227635
-5.97406e-05
0.000250594
-7.68507e-05
0.000266102
-9.48942e-05
0.000275626
-0.000113579
0.000280613
-0.00013266
0.000282363
-0.000151932
0.000281905
-0.000171218
0.000279908
-0.000190362
0.00027661
-0.000209234
0.000271776
-0.000227731
0.000264689
-0.000245809
0.00025418
-0.000263508
0.000238716
-0.000280982
0.000216552
-0.000298475
0.0001861
0.000145997
-0.000316156
-4.30347e-05
0.000241573
-5.87037e-05
0.000266263
-7.57221e-05
0.000283121
-9.37649e-05
0.000293668
-0.000112562
0.000299411
-0.000131896
0.000301696
-0.000151591
0.000301599
-0.000171507
0.000299825
-0.000191536
0.000296639
-0.000211598
0.000291839
-0.000231654
0.000284744
-0.000251718
0.000274244
-0.000271879
0.000258876
-0.000292308
0.000236981
-0.000313225
0.000207017
0.000167502
-0.00033473
-4.20217e-05
0.000255263
-5.74854e-05
0.000281727
-7.43647e-05
0.0003
-9.23566e-05
0.00031166
-0.000111214
0.000318268
-0.000130742
0.000321225
-0.000150796
0.000321653
-0.000171269
0.000320298
-0.000192094
0.000317464
-0.000213239
0.000312984
-0.000234715
0.00030622
-0.000256586
0.000296115
-0.000278978
0.000281269
-0.000302078
0.000260081
-0.000326083
0.000231021
0.000192466
-0.000351048
-4.08691e-05
0.000268664
-5.60804e-05
0.000296938
-7.27694e-05
0.000316689
-9.06555e-05
0.000329546
-0.000109513
0.000337125
-0.000129169
0.000340881
-0.000149504
0.000341988
-0.000170443
0.000341237
-0.000191953
0.000338974
-0.000214043
0.000335074
-0.000236766
0.000328943
-0.000260225
0.000319574
-0.000284577
0.000305621
-0.000310016
0.00028552
-0.000336723
0.000257728
0.000220472
-0.000364728
-3.95732e-05
0.00028173
-5.44818e-05
0.000311847
-7.09256e-05
0.000333133
-8.86451e-05
0.000347266
-0.000107434
0.000355914
-0.000127141
0.000360588
-0.000147667
0.000362514
-0.000168964
0.000362533
-0.000191026
0.000361037
-0.000213896
0.000357943
-0.00023766
0.000352707
-0.000262452
0.000344366
-0.000288448
0.000331617
-0.00031585
0.000312922
-0.000344827
0.000286704
0.000251046
-0.0003754
-3.81294e-05
0.000294413
-5.26822e-05
0.000326399
-6.88212e-05
0.000349272
-8.63074e-05
0.000364752
-0.000104952
0.000374559
-0.000124622
0.000380258
-0.000145235
0.000383128
-0.000166763
0.000384061
-0.000189224
0.000383498
-0.000212683
0.000381403
-0.000237253
0.000377277
-0.000263088
0.000370201
-0.000290379
0.000358908
-0.000319329
0.000341872
-0.000350099
0.000317475
0.000283662
-0.000382716
-2.42809e-05
0.00026182
-3.65334e-05
0.000306666
-5.0674e-05
0.00034054
-6.64443e-05
0.000365042
-8.36245e-05
0.000381932
-0.000102042
0.000392977
-0.000121576
0.000399792
-0.000142159
0.000403711
-0.000163777
0.000405678
-0.000186463
0.000406184
-0.000210299
0.00040524
-0.000235414
0.000402391
-0.000261974
0.000396762
-0.000290178
0.000387111
-0.000320228
0.000371922
-0.000352281
0.000349528
0.000317755
-0.000386373
-2.3011e-05
0.000271438
-3.47812e-05
0.000318436
-4.84502e-05
0.000354209
-6.37837e-05
0.000380376
-8.05797e-05
0.000398728
-9.86785e-05
0.000411075
-0.00011797
0.000419083
-0.000138395
0.000424136
-0.000159946
0.00042723
-0.000182668
0.000428905
-0.00020665
0.000429222
-0.000232028
0.000427769
-0.000258973
0.000423707
-0.000287684
0.000415823
-0.000318361
0.000402599
-0.000351155
0.000382321
0.000352718
-0.000386118
-2.16351e-05
0.000280552
-3.28702e-05
0.000329671
-4.60054e-05
0.000367344
-6.08301e-05
0.0003952
-7.71584e-05
0.000415056
-9.48411e-05
0.000428758
-0.000113774
0.000438016
-0.000133903
0.000444264
-0.000155222
0.000448549
-0.000177777
0.00045146
-0.000201658
0.000453104
-0.000227001
0.000453111
-0.000253974
0.00045068
-0.00028277
0.000444619
-0.000313581
0.00043341
-0.000346554
0.000415295
0.000387925
-0.000381761
-2.01529e-05
0.000289117
-3.07987e-05
0.000340317
-4.3336e-05
0.000379882
-5.75768e-05
0.000409441
-7.33497e-05
0.000430829
-9.05134e-05
0.000445922
-0.000108966
0.000456469
-0.000128653
0.000463951
-0.000149564
0.00046946
-0.00017174
0.000473636
-0.000195265
0.000476628
-0.000220264
0.000478111
-0.000246897
0.000477313
-0.000275345
0.000473067
-0.000305789
0.000463854
-0.000338371
0.000447877
0.000422732
-0.000373178
-1.85658e-05
0.000297089
-2.85675e-05
0.000350318
-4.0441e-05
0.000391755
-5.40203e-05
0.00042302
-6.91469e-05
0.000445956
-8.56847e-05
0.00046246
-0.000103531
0.000474315
-0.000122624
0.000483044
-0.000142946
0.000489783
-0.000164525
0.000495215
-0.000187431
0.000499534
-0.000211775
0.000502454
-0.000237697
0.000503236
-0.000265363
0.000500732
-0.000294937
0.000493428
-0.000326554
0.000479494
0.000456496
-0.000360318
-1.68765e-05
0.000304426
-2.6179e-05
0.000359621
-3.73222e-05
0.000402898
-5.0161e-05
0.000435859
-6.45483e-05
0.000460343
-8.03507e-05
0.000478262
-9.74609e-05
0.000491426
-0.000115807
0.000501389
-0.000135356
0.000509332
-0.000156118
0.000515977
-0.000178143
0.000521559
-0.000201518
0.000525829
-0.000226362
0.000528079
-0.000252815
0.000527185
-0.000281024
0.000521637
-0.000311114
0.000509584
0.000488583
-0.000343201
-1.50894e-05
0.000311084
-2.36384e-05
0.00036817
-3.39847e-05
0.000413245
-4.60036e-05
0.000447878
-5.95579e-05
0.000473897
-7.45143e-05
0.000493218
-9.0758e-05
0.000507669
-0.000108202
0.000518834
-0.000126795
0.000527925
-0.000146523
0.000535704
-0.000167407
0.000542444
-0.000189508
0.00054793
-0.000212914
0.000551485
-0.000237737
0.000552008
-0.000264101
0.000548001
-0.000292119
0.000537603
0.000518381
-0.000321917
-1.32104e-05
-2.09533e-05
-3.04373e-05
-4.15576e-05
-5.41854e-05
-6.8186e-05
-8.34338e-05
-9.98241e-05
-0.000117281
-0.000135761
-0.000155254
-0.000175786
-0.00019741
-0.000220204
-0.000244266
-0.000269697
-0.000296626
-0.000314208
0.00146648
-0.00141982
-0.000330153
0.000567795
-0.00055185
-0.000327587
-0.000704899
0.000702333
-0.000297681
-0.00244757
0.00241767
-0.000246681
-0.00439339
0.00434239
-0.000184615
-0.00622201
0.00615994
-0.000130632
-0.00764305
0.00758907
-9.00602e-05
-0.00856312
0.00852255
-3.97293e-05
-0.00898317
0.00893284
-0.0087013
0.00859541
-0.00027599
0.00150751
-0.00028907
0.000580875
-0.000286082
-0.000707887
-0.000259452
-0.0024742
-0.000213661
-0.00443918
-0.000158228
-0.00627744
-0.000112646
-0.00768863
-8.43692e-05
-0.0085914
-5.19366e-05
-0.00901561
-0.0087865
-0.000234163
0.0015425
-0.000244377
0.000591089
-0.000241088
-0.000711176
-0.000217916
-0.00249738
-0.000177437
-0.00447966
-0.00012853
-0.00632635
-9.08518e-05
-0.00772631
-7.39625e-05
-0.00860829
-5.86501e-05
-0.00903092
-0.00885003
-0.000189151
0.00157108
-0.000196522
0.00059846
-0.000193029
-0.000714669
-0.000173439
-0.00251697
-0.000138326
-0.00451477
-9.58435e-05
-0.00636883
-6.55964e-05
-0.00775656
-5.91379e-05
-0.00861475
-5.99331e-05
-0.00903012
-0.00889262
-0.000141394
0.00159292
-0.000145966
0.000603032
-0.000142321
-0.000718314
-0.000126373