/*--------------------------------*- C++ -*----------------------------------*\
  =========                 |
  \\      /  F ield         | OpenFOAM: The Open Source CFD Toolbox
   \\    /   O peration     | Website:  https://openfoam.org
    \\  /    A nd           | Version:  7
     \\/     M anipulation  |
\*---------------------------------------------------------------------------*/
FoamFile
{
    version     2.0;
    format      ascii;
    class       volVectorField;
    location    "220";
    object      U;
}
// * * * * * * * * * * * * * * * * * * * * * * * * * * * * * * * * * * * * * //

dimensions      [0 1 -1 0 0 0 0];

internalField   nonuniform List<vector> 
4575
(
(-0.00915515 0.165685 5.8413e-22)
(-0.0144337 0.189564 1.01555e-21)
(-0.0207262 0.205675 -7.30579e-21)
(-0.027862 0.215453 1.22795e-21)
(-0.0356538 0.22031 -4.71971e-21)
(-0.0439135 0.22155 -9.90087e-21)
(-0.0524668 0.220302 8.29018e-21)
(-0.0611627 0.217466 2.41729e-21)
(-0.0698784 0.213693 -2.85264e-21)
(-0.0785208 0.209388 3.44001e-21)
(-0.0870247 0.204729 4.62963e-21)
(-0.0953507 0.199702 -2.87451e-21)
(-0.103479 0.194145 -3.8555e-21)
(-0.111408 0.187781 -9.14762e-21)
(-0.119179 0.180252 -7.02804e-22)
(-0.126718 0.171141 -1.53291e-21)
(-0.133841 0.159953 -2.9917e-21)
(-0.0110119 0.168 -1.14833e-20)
(-0.01608 0.192527 5.19275e-21)
(-0.0219772 0.209205 3.06357e-20)
(-0.0285862 0.219447 -1.84242e-20)
(-0.0357599 0.224655 3.00393e-21)
(-0.0433383 0.226138 1.43364e-20)
(-0.0511637 0.225032 3.51402e-23)
(-0.0590912 0.222253 8.24752e-21)
(-0.0669957 0.218469 -1.07042e-20)
(-0.0747748 0.214104 1.10537e-20)
(-0.082349 0.209351 -9.28544e-21)
(-0.0896616 0.204213 -3.60495e-21)
(-0.0966742 0.198538 1.78332e-20)
(-0.103368 0.192062 -5.68086e-21)
(-0.10977 0.184434 8.23253e-22)
(-0.115808 0.175247 -1.03579e-20)
(-0.121273 0.164023 -1.16655e-21)
(-0.0129026 0.169889 2.91643e-20)
(-0.017755 0.195039 -2.27889e-20)
(-0.0232409 0.212281 -3.4564e-20)
(-0.0292959 0.222998 3.07459e-20)
(-0.035813 0.228576 -8.26794e-21)
(-0.0426604 0.23032 -3.97391e-21)
(-0.0496971 0.22937 -2.00919e-20)
(-0.0567849 0.226657 5.47055e-21)
(-0.0637961 0.222863 1.88649e-20)
(-0.070619 0.218428 -3.66815e-21)
(-0.0771596 0.213563 1.50922e-20)
(-0.0833433 0.208288 -1.23886e-20)
(-0.0891133 0.202466 -3.5877e-21)
(-0.094433 0.195844 2.8635e-20)
(-0.0993161 0.188087 -1.76821e-21)
(-0.103692 0.178799 4.44935e-20)
(-0.107315 0.167528 -1.07301e-20)
(-0.0148118 0.171337 -2.73481e-20)
(-0.0194446 0.19708 1.60593e-20)
(-0.024506 0.214879 -3.1058e-21)
(-0.0299831 0.226079 -5.17887e-20)
(-0.0358087 0.232043 -5.41312e-21)
(-0.0418791 0.234064 -1.08813e-20)
(-0.0480706 0.233285 -1.87255e-21)
(-0.0542517 0.230644 -1.82352e-20)
(-0.060293 0.226838 2.0401e-20)
(-0.0660731 0.222323 -2.97135e-20)
(-0.0714839 0.217329 -8.94118e-22)
(-0.0764331 0.21189 7.90612e-21)
(-0.080845 0.205888 -6.08237e-20)
(-0.084665 0.199087 -4.86935e-20)
(-0.0878954 0.191168 2.6359e-20)
(-0.0904695 0.181756 -3.44673e-20)
(-0.0920829 0.170426 6.45718e-22)
(-0.016724 0.172333 -1.36187e-21)
(-0.0211355 0.198633 8.21792e-21)
(-0.025762 0.216978 1.05748e-21)
(-0.0306408 0.228666 2.66257e-20)
(-0.0357439 0.235028 3.09216e-20)
(-0.0409957 0.237342 1.28738e-20)
(-0.0462901 0.236746 4.44171e-20)
(-0.0515029 0.234183 -5.04231e-20)
(-0.0565033 0.230363 -1.03567e-20)
(-0.0611614 0.225758 2.16376e-20)
(-0.0653548 0.220614 -3.73341e-20)
(-0.0689739 0.214985 1.69153e-20)
(-0.0719246 0.208771 3.83737e-20)
(-0.0741342 0.201754 8.76612e-21)
(-0.0755944 0.193641 1.34529e-20)
(-0.0762483 0.184081 -2.08445e-20)
(-0.075708 0.172679 2.4988e-21)
(-0.0186242 0.172867 2.41638e-20)
(-0.0228143 0.199685 2.06223e-20)
(-0.0269989 0.21856 9.02613e-21)
(-0.0312631 0.230736 1.69784e-20)
(-0.0356171 0.237507 -1.14797e-20)
(-0.0400134 0.240125 -7.00226e-20)
(-0.0443637 0.239723 -6.15965e-20)
(-0.0485522 0.237245 -3.94698e-20)
(-0.0524475 0.233409 1.45854e-20)
(-0.0559118 0.228703 -8.17581e-21)
(-0.0588094 0.22339 6.16025e-20)
(-0.0610138 0.217543 -2.19388e-20)
(-0.062413 0.211084 1.78207e-20)
(-0.0629163 0.203817 2.54363e-20)
(-0.0625055 0.195475 -1.42304e-20)
(-0.0611453 0.185747 1.25431e-19)
(-0.0583283 0.174254 -4.70766e-20)
(-0.0204976 0.172935 -1.50791e-20)
(-0.0244685 0.200225 6.70334e-21)
(-0.0282074 0.21961 1.00667e-20)
(-0.031845 0.23227 3.29567e-20)
(-0.0354279 0.239455 7.21869e-21)
(-0.0389369 0.24239 2.04603e-21)
(-0.0423018 0.242191 1.10761e-19)
(-0.0454161 0.239802 8.17941e-20)
(-0.0481488 0.235949 -4.83757e-20)
(-0.0503555 0.231131 -6.95793e-21)
(-0.0518882 0.225631 -1.86444e-20)
(-0.0526043 0.219541 1.82941e-20)
(-0.0523747 0.212803 -9.62823e-20)
(-0.0510908 0.20525 -2.04069e-20)
(-0.0487231 0.196647 -2.98757e-20)
(-0.0452803 0.186727 -7.19582e-20)
(-0.0400926 0.175152 3.87063e-20)
(-0.0223299 0.172534 -2.02884e-20)
(-0.0260859 0.200245 -1.81099e-20)
(-0.029379 0.220114 2.81472e-20)
(-0.0323821 0.233251 -4.61057e-20)
(-0.0351772 0.240853 -6.01415e-21)
(-0.0377724 0.244112 8.38127e-20)
(-0.0401164 0.244126 -5.25171e-20)
(-0.0421128 0.241831 -2.12375e-20)
(-0.0436325 0.23796 2.45326e-20)
(-0.0445258 0.233022 -6.3099e-21)
(-0.0446339 0.227317 -3.28271e-21)
(-0.0437993 0.220958 2.69488e-20)
(-0.0418765 0.21391 -7.17243e-20)
(-0.0387392 0.206036 2.41795e-20)
(-0.0343442 0.197133 -1.86e-20)
(-0.0287528 0.186969 -4.20947e-20)
(-0.0211477 0.175425 1.44513e-20)
(-0.027655 0.199744 6.53555e-20)
(-0.0305057 0.220065 -6.61862e-20)
(-0.0328711 0.233665 -3.19449e-20)
(-0.0348667 0.241684 -5.42482e-20)
(-0.0365272 0.245273 -5.81061e-20)
(-0.0378207 0.245506 -3.78144e-20)
(-0.0386621 0.243311 -5.03218e-20)
(-0.0389254 0.23942 8.97523e-20)
(-0.0384578 0.234355 -9.66335e-21)
(-0.0370907 0.228431 -2.05543e-20)
(-0.0346537 0.221779 -1.05924e-19)
(-0.0309856 0.214392 5.88302e-20)
(-0.0259452 0.206161 1.41295e-20)
(-0.0194815 0.19692 3.67835e-20)
(-0.0116424 0.186488 2.50445e-20)
(-0.00157568 0.174986 -6.69144e-20)
(-0.0291652 0.198719 5.88111e-20)
(-0.0315802 0.219456 -4.48153e-20)
(-0.0333093 0.233501 9.45074e-20)
(-0.0344987 0.241931 5.09912e-21)
(-0.0352094 0.245853 8.40448e-20)
(-0.035429 0.246312 -4.82938e-20)
(-0.0350846 0.244221 7.6043e-20)
(-0.0340554 0.240313 -7.43283e-20)
(-0.0321868 0.235115 -6.58203e-20)
(-0.0293031 0.228958 5.59275e-20)
(-0.0252219 0.221994 1.96591e-19)
(-0.0197681 0.214239 -1.08121e-19)
(-0.0127856 0.205617 8.82165e-20)
(-0.00421611 0.196007 2.05816e-20)
(0.00590432 0.1853 -7.64936e-20)
(0.0184864 0.173733 6.36263e-20)
(-0.0306066 0.197177 -4.54044e-20)
(-0.0325961 0.218286 1.04465e-19)
(-0.0336945 0.232752 -1.8473e-20)
(-0.0340764 0.241585 2.27053e-21)
(-0.0338278 0.245839 -1.16315e-19)
(-0.032956 0.246528 7.22336e-20)
(-0.0314015 0.244546 1.66459e-20)
(-0.0290503 0.240622 -2.15388e-20)
(-0.0257483 0.235289 2.65324e-20)
(-0.0213145 0.228889 -1.03854e-19)
(-0.0155569 0.221595 -5.7029e-20)
(-0.00828741 0.213447 1.2047e-19)
(0.000664519 0.204401 -6.72458e-20)
(0.0113663 0.194385 -9.64513e-20)
(0.0237762 0.183368 1.77726e-19)
(0.0389043 0.171715 -2.30197e-23)
(-0.0319703 0.195125 -2.98009e-20)
(-0.0335476 0.216557 -3.40168e-20)
(-0.0340252 0.231415 -1.40993e-19)
(-0.0336033 0.240635 1.68743e-20)
(-0.0323914 0.245218 -5.76438e-20)
(-0.0304166 0.246139 1.97908e-19)
(-0.0276338 0.244271 -1.13276e-19)
(-0.0239377 0.240334 6.81984e-20)
(-0.0191766 0.234865 -2.07868e-20)
(-0.0131669 0.228217 1.13071e-19)
(-0.00570852 0.220579 9.19695e-21)
(0.00339738 0.212016 -9.62236e-20)
(0.0143355 0.202516 -1.75068e-20)
(0.027184 0.192055 3.9375e-21)
(0.041883 0.180686 -6.82764e-21)
(0.05957 0.168953 1.21809e-19)
(-0.0332485 0.192575 -7.254e-21)
(-0.0344297 0.214277 -5.7311e-20)
(-0.0343003 0.229491 1.24315e-19)
(-0.033083 0.239078 -1.37809e-20)
(-0.0309091 0.243982 1.45386e-19)
(-0.0278253 0.245135 -1.58721e-19)
(-0.0238019 0.243385 4.1143e-20)
(-0.0187439 0.239439 4.82529e-20)
(-0.0125044 0.233836 -1.53331e-21)
(-0.00489907 0.226936 -8.61781e-22)
(0.00427727 0.218945 -8.95694e-20)
(0.015233 0.209949 1.15928e-20)
(0.0281659 0.199967 1.19118e-19)
(0.0431663 0.189025 1.53747e-19)
(0.0601472 0.177261 -1.81881e-19)
(0.0803971 0.165447 -1.16246e-19)
(-0.0344346 0.189543 1.1061e-19)
(-0.0352381 0.211455 1.1002e-19)
(-0.0345192 0.226983 -4.19578e-20)
(-0.0325191 0.236913 1.80229e-19)
(-0.0293895 0.242124 -1.79042e-19)
(-0.0251961 0.243506 7.78928e-20)
(-0.0199252 0.241876 7.81035e-20)
(-0.0134936 0.237927 -5.79232e-21)
(-0.00576149 0.232194 1.07124e-21)
(0.00345357 0.225044 9.97526e-21)
(0.01436 0.216695 -6.98843e-20)
(0.0271734 0.207253 6.98395e-20)
(0.0421039 0.196766 -3.56826e-20)
(0.0592563 0.185307 -7.99633e-20)
(0.078508 0.173104 1.03265e-19)
(0.101321 0.161197 2.14495e-20)
(-0.035523 0.18605 -7.39476e-20)
(-0.0359694 0.208105 -7.56039e-20)
(-0.0346813 0.223899 1.20504e-19)
(-0.0319152 0.23414 -5.95185e-20)
(-0.0278406 0.239642 4.66363e-20)
(-0.0225417 0.241246 5.17335e-21)
(-0.0160211 0.239738 -1.22529e-20)
(-0.00820911 0.235791 3.03168e-20)
(0.00102536 0.229935 -5.87282e-20)
(0.0118605 0.222539 3.00668e-20)
(0.0245054 0.213833 9.72797e-20)
(0.0391816 0.203937 -1.4087e-19)
(0.05611 0.192928 -9.02497e-20)
(0.0754124 0.18092 1.18162e-19)
(0.0969234 0.16823 -6.91691e-20)
(0.122302 0.156213 -1.07788e-19)
(-0.0365098 0.182118 -1.81358e-20)
(-0.0366208 0.204246 -6.5007e-20)
(-0.0347864 0.220253 -1.18334e-19)
(-0.0312743 0.230766 -8.80562e-20)
(-0.0262694 0.236537 -1.74059e-19)
(-0.0198732 0.238353 1.72726e-20)
(-0.0121051 0.236965 -1.51483e-20)
(-0.00290958 0.233026 -1.17602e-19)
(0.00783368 0.227054 1.01051e-19)
(0.0202966 0.219421 1.22335e-19)
(0.0346871 0.210363 -6.4542e-21)
(0.0512304 0.200013 7.41545e-20)
(0.0701575 0.188468 -3.68043e-20)
(0.0916104 0.175883 5.76828e-21)
(0.115374 0.16266 1.04576e-19)
(0.143329 0.150505 2.51261e-19)
(-0.0371904 0.199901 8.81803e-20)
(-0.0348344 0.216059 -3.15123e-20)
(-0.0305987 0.226801 -8.91367e-20)
(-0.0246815 0.232812 1.41748e-19)
(-0.0171998 0.234825 -3.71637e-20)
(-0.00818961 0.233554 2.69311e-20)
(0.00238957 0.229626 1.43728e-19)
(0.0146459 0.223549 -1.96764e-19)
(0.0287433 0.215691 -5.33951e-20)
(0.0448868 0.206291 -1.04379e-19)
(0.0633039 0.195491 2.10212e-19)
(0.0842347 0.183405 6.28577e-21)
(0.107845 0.170223 1.15421e-19)
(0.133863 0.156418 -4.12363e-20)
(0.164422 0.14409 -2.38179e-19)
(-0.0376769 0.195095 5.43246e-20)
(-0.0348249 0.211338 -3.00761e-21)
(-0.0298901 0.222259 2.30965e-19)
(-0.0230806 0.228474 8.65649e-20)
(-0.0145278 0.230666 -1.5627e-19)
(-0.00428348 0.229504 7.45976e-21)
(0.00767759 0.225591 -5.01815e-21)
(0.0214506 0.219418 2.08791e-19)
(0.0371899 0.211348 -2.30489e-19)
(0.0550963 0.201621 6.31438e-20)
(0.0753988 0.190384 2.62597e-21)
(0.098346 0.17776 -1.59901e-19)
(0.124133 0.163965 -1.66176e-19)
(0.152422 0.149534 -2.01006e-20)
(0.185634 0.136992 2.42178e-19)
(-0.0380795 0.189856 -2.05769e-19)
(-0.0347573 0.206114 -5.5462e-20)
(-0.0291485 0.217156 -1.20792e-19)
(-0.0214684 0.223536 -5.57495e-20)
(-0.0118604 0.22588 9.71758e-20)
(-0.00039121 0.224817 1.94897e-19)
(0.0129494 0.22092 -2.15506e-19)
(0.028243 0.214661 -7.99905e-20)
(0.0456343 0.206395 2.84966e-19)
(0.0653186 0.19636 -1.02824e-19)
(0.0875261 0.184703 -1.47102e-19)
(0.112514 0.171551 1.85769e-19)
(0.140511 0.157137 3.90685e-20)
(0.171107 0.142039 3.6733e-20)
(0.207056 0.129235 -1.5654e-19)
(-0.0383978 0.184219 3.62126e-20)
(-0.0346302 0.200414 2.3701e-19)
(-0.0283725 0.211515 -1.46011e-19)
(-0.0198434 0.218012 3.45252e-20)
(-0.00919658 0.220478 -6.71278e-20)
(0.00348812 0.219498 -2.66845e-19)
(0.0182066 0.215613 1.58789e-19)
(0.0350275 0.209277 1.26638e-19)
(0.054085 0.200832 -2.22022e-19)
(0.0755697 0.190511 5.12998e-20)
(0.0997131 0.178458 2.04013e-19)
(0.126781 0.164797 7.9348e-20)
(0.157043 0.149768 2.78454e-20)
(0.190006 0.133969 -1.63513e-19)
(0.228815 0.120855 -7.9818e-20)
(-0.0344414 0.194269 -3.26475e-20)
(-0.0275581 0.20536 2.1776e-20)
(-0.0182007 0.211922 1.36096e-19)
(-0.00653029 0.214473 1.68945e-19)
(0.00736208 0.213555 -7.36639e-21)
(0.0234594 0.209677 -3.61086e-20)
(0.0418181 0.20327 -2.09141e-19)
(0.0625634 0.194664 1.54946e-19)
(0.0858811 0.184081 -1.30263e-20)
(0.112006 0.171661 -9.09599e-20)
(0.141211 0.157517 -4.54769e-19)
(0.17382 0.141889 1.60708e-19)
(0.209235 0.125363 9.33975e-21)
(0.251075 0.11189 -9.91356e-20)
(-0.034187 0.187713 -1.98093e-19)
(-0.0266985 0.198721 1.21066e-19)
(-0.0165309 0.205289 -1.36845e-20)
(-0.0038492 0.207883 -2.66335e-19)
(0.0112463 0.207001 5.01963e-20)
(0.028728 0.20312 2.76259e-20)
(0.048642 0.196646 -4.77381e-20)
(0.0711057 0.187894 1.2432e-19)
(0.0963027 0.177076 2.40119e-19)
(0.124472 0.164322 -1.55576e-19)
(0.155897 0.14973 1.25781e-19)
(0.190962 0.133532 2.95814e-20)
(0.228947 0.116265 1.74741e-19)
(0.274042 0.102392 7.82011e-20)
(-0.0338611 0.180785 2.25811e-19)
(-0.0257833 0.191632 -1.59752e-19)
(-0.0148186 0.198141 4.74559e-20)
(-0.00113338 0.200729 1.93054e-19)
(0.0151664 0.199853 1.81874e-19)
(0.0340451 0.195954 6.95148e-20)
(0.0555411 0.189414 3.00074e-19)
(0.079767 0.180531 -4.10598e-20)
(0.106906 0.169505 -3.12109e-19)
(0.137206 0.156454 1.52295e-19)
(0.17096 0.141457 -8.03739e-20)
(0.208625 0.124731 -1.87725e-19)
(0.249329 0.106725 -1.32639e-19)
(0.29796 0.0924219 -1.32982e-19)
(-0.0334547 0.173525 -2.88156e-19)
(-0.0247971 0.18413 1.08732e-19)
(-0.0130421 0.190511 -9.79724e-20)
(0.00164629 0.193041 -1.61896e-19)
(0.0191598 0.192134 5.58452e-21)
(0.0394581 0.188198 -3.95592e-19)
(0.0625758 0.181589 -3.03154e-19)
(0.0886239 0.172588 9.42437e-20)
(0.11779 0.161382 4.78699e-20)
(0.150332 0.148076 -1.00897e-19)
(0.186556 0.132725 3.90917e-19)
(0.227002 0.115528 -6.12679e-20)
(0.270608 0.0968009 1.66557e-19)
(0.323112 0.0820611 1.49669e-19)
(-0.0237188 0.176255 1.50612e-19)
(-0.0111712 0.182438 -8.75359e-21)
(0.00452996 0.184852 6.76863e-20)
(0.023278 0.183873 2.00741e-19)
(0.0450323 0.179876 4.13467e-19)
(0.069828 0.173194 3.27555e-20)
(0.0977793 0.164086 -1.78614e-19)
(0.129082 0.152728 3.18826e-20)
(0.164009 0.139211 3.09927e-19)
(0.202878 0.123565 -2.09846e-19)
(0.246327 0.105973 1.32202e-21)
(0.29305 0.0865627 1.62043e-19)
(0.349816 0.0714106 -9.88972e-20)
(-0.0225203 0.168052 -3.86876e-20)
(-0.00916595 0.173962 -8.39e-20)
(0.00757061 0.176201 1.34091e-19)
(0.027589 0.175107 -1.53502e-19)
(0.0508534 0.171024 -4.89834e-20)
(0.0774046 0.164259 -5.48321e-21)
(0.107365 0.155056 1.25056e-19)
(0.140945 0.143574 -1.11696e-19)
(0.178435 0.129895 -2.11085e-19)
(0.220163 0.114022 -6.41624e-20)
(0.266874 0.0961279 -9.29634e-20)
(0.316958 0.0760957 -2.83208e-19)
(0.378416 0.060597 -8.45402e-20)
(-0.0211652 0.159571 -1.8077e-19)
(-0.00697524 0.165133 1.01558e-19)
(0.010836 0.167135 -2.9786e-19)
(0.0321795 0.16588 -1.46808e-19)
(0.0570301 0.161683 1.84296e-21)
(0.0854402 0.154827 1.25142e-19)
(0.117547 0.145538 -8.13097e-20)
(0.153578 0.133964 2.05584e-19)
(0.193848 0.120176 -5.00658e-20)
(0.238686 0.104153 6.50742e-20)
(0.288956 0.0860718 2.4416e-19)
(0.342662 0.0655023 3.26092e-20)
(0.409256 0.0497725 1.55136e-19)
(-0.00453519 0.156004 -1.99172e-19)
(0.0144102 0.157707 5.69344e-20)
(0.0371569 0.156246 5.49272e-21)
(0.0636966 0.151906 -1.42075e-19)
(0.0940997 0.14495 1.03727e-19)
(0.128524 0.135587 -8.02538e-20)
(0.167219 0.123956 -1.45641e-19)
(0.210523 0.11012 -1.88069e-19)
(0.258761 0.094035 4.6002e-20)
(0.31291 0.0759021 6.27601e-20)
(0.370508 0.0549047 -6.12752e-20)
(0.442662 0.039124 2.55336e-19)
(-0.00176804 0.146631 -5.64105e-20)
(0.0183952 0.147978 4.62143e-19)
(0.0426506 0.146266 3.29211e-20)
(0.0710133 0.141758 -4.99347e-20)
(0.103578 0.134696 -3.23547e-19)
(0.140529 0.125275 6.22802e-20)
(0.18214 0.113626 -1.55621e-19)
(0.228771 0.0998097 1.0274e-19)
(0.280727 0.0837625 9.33382e-20)
(0.33909 0.065736 -3.55478e-19)
(0.40084 0.0444447 -1.10551e-19)
(0.478912 0.0288705 -3.81506e-19)
(0.00141872 0.137078 1.96343e-20)
(0.0229113 0.138014 -1.39228e-19)
(0.0488123 0.136012 1.97126e-19)
(0.0791669 0.131314 1.44587e-21)
(0.114101 0.124143 2.41296e-19)
(0.153827 0.114686 1.61488e-19)
(0.198644 0.103067 2.65402e-20)
(0.248925 0.0893496 3.35487e-19)
(0.304936 0.0734517 -3.02658e-19)
(0.367837 0.0557098 1.39477e-19)
(0.43397 0.0342821 1.09578e-19)
(0.518199 0.019254 9.43299e-20)
(0.0280969 0.127889 -2.29574e-19)
(0.0558151 0.125564 -1.74121e-19)
(0.0883681 0.12066 8.1025e-20)
(0.125917 0.113387 -2.29148e-19)
(0.168706 0.103923 1.49808e-20)
(0.217051 0.0923911 8.61344e-20)
(0.271328 0.0788617 6.47148e-20)
(0.331733 0.0632381 2.04075e-19)
(0.399455 0.045976 4.35097e-20)
(0.470154 0.0245916 -1.52562e-19)
(0.560589 0.0105207 1.63752e-19)
(0.0341073 0.117679 1.98359e-19)
(0.0638509 0.115008 -1.00454e-19)
(0.0988477 0.109892 3.16216e-21)
(0.139296 0.102532 5.47112e-20)
(0.185468 0.0931015 1.14712e-19)
(0.237689 0.0817247 -1.38897e-20)
(0.29631 0.0684844 -3.17079e-20)
(0.36143 0.0532726 -1.63065e-19)
(0.434182 0.0366967 -1.08493e-19)
(0.509557 0.0155548 -1.01605e-19)
(0.605953 0.00289248 1.64378e-19)
(0.0731266 0.104437 6.98092e-20)
(0.110849 0.0991142 2.42477e-20)
(0.154515 0.0916943 -1.09447e-19)
(0.204416 0.0823482 -2.5201e-19)
(0.260868 0.0712068 1.25437e-19)
(0.324166 0.0583675 -6.36798e-20)
(0.394276 0.0437168 -1.60251e-20)
(0.472162 0.0280339 2.62252e-19)
(0.552239 0.00735381 2.75648e-19)
(0.653977 -0.00340562 -4.18543e-19)
(0.0838574 0.0939481 7.09307e-21)
(0.124622 0.0884362 -1.68857e-19)
(0.171849 0.0809951 2.22425e-19)
(0.225837 0.0717976 1.44266e-19)
(0.286868 0.0609834 -2.78297e-19)
(0.355135 0.0486657 -2.34893e-19)
(0.430434 0.0347343 5.40925e-20)
(0.513418 0.0201372 3.12529e-19)
(0.598142 0.000166407 1.44359e-19)
(0.704362 -0.00810702 7.76649e-20)
(0.0962599 0.0836385 -3.26258e-19)
(0.140407 0.0779697 -2.94657e-19)
(0.191555 0.07056 -2.885e-20)
(0.249985 0.061587 -1.43038e-20)
(0.315909 0.0512017 9.89758e-20)
(0.389368 0.0395316 6.43545e-20)
(0.469955 0.0264834 8.29062e-20)
(0.55783 0.0131323 -3.85828e-19)
(0.647044 -0.00586213 -1.07822e-19)
(0.756343 -0.0112299 2.7816e-19)
(0.158431 0.0678254 1.29801e-19)
(0.213858 0.0605129 -1.18893e-19)
(0.277059 0.0518512 -1.64912e-19)
(0.348137 0.0420039 -2.12483e-20)
(0.426919 0.0311079 1.64999e-19)
(0.512758 0.0191091 -1.10574e-19)
(0.605134 0.00711456 4.13818e-20)
(0.698573 -0.0105926 9.28095e-20)
(0.809062 -0.0127535 2.34896e-19)
(0.178889 0.0581099 5.94981e-20)
(0.238937 0.0509722 -7.96523e-20)
(0.307195 0.0427173 1.89613e-19)
(0.383606 0.0335204 -1.62844e-20)
(0.467722 0.023521 -4.33396e-20)
(0.558625 0.0127352 -6.76985e-20)
(0.654928 0.00214574 1.06358e-19)
(0.752195 -0.0138752 -2.66656e-19)
(0.861488 -0.0126998 -3.60408e-19)
(0.266912 0.0420472 2.98095e-19)
(0.340447 0.0343002 -2.66379e-20)
(0.422268 0.0258648 -5.83543e-20)
(0.511598 0.016874 -8.59766e-21)
(0.607209 0.00744971 1.43117e-19)
(0.70672 -0.00175407 2.52959e-19)
(0.807227 -0.0154958 -7.05516e-20)
(0.912312 -0.0109937 2.611e-19)
(0.297837 0.0338354 -1.00628e-19)
(0.376778 0.0266993 -7.34492e-20)
(0.463965 0.0191293 -2.40261e-19)
(0.558244 0.0112409 -6.51054e-20)
(0.658051 0.00328263 5.06994e-21)
(0.760018 -0.00461783 -1.73942e-19)
(0.863023 -0.0151765 8.53508e-20)
(0.960279 -0.00773299 -1.84618e-19)
(0.416064 0.0199973 -1.19228e-19)
(0.508435 0.0133846 2.89123e-19)
(0.60724 0.00666542 1.76763e-19)
(0.710561 0.000195716 4.34677e-20)
(0.8143 -0.00651031 -1.84414e-19)
(0.919142 -0.0129039 -9.14546e-21)
(1.00595 -0.00498045 -2.9694e-19)
(0.458091 0.0142605 -5.61726e-20)
(0.555316 0.00868294 5.15983e-20)
(0.658061 0.0031713 -9.20113e-20)
(0.764025 -0.00187613 -1.0584e-19)
(0.868762 -0.00746827 2.2216e-19)
(0.974442 -0.00973041 -7.03701e-20)
(1.05285 -0.00806334 1.3693e-20)
(0.604171 0.00506166 -1.15131e-19)
(0.710114 0.000775945 3.29278e-20)
(0.817694 -0.00295334 -4.08132e-20)
(0.922341 -0.00752061 -2.31027e-20)
(1.02572 -0.00811228 4.96054e-20)
(1.1041 -0.0145033 5.16699e-19)
(0.762777 -0.00051185 5.37181e-21)
(0.870863 -0.00302698 -2.17182e-19)
(0.974181 -0.0066167 -5.75928e-20)
(1.07354 -0.00654394 2.70121e-19)
(1.14939 -0.0156819 -2.95828e-19)
(0.815433 -0.000697345 2.19897e-19)
(0.922891 -0.00208583 6.90748e-20)
(1.02367 -0.00471706 3.86913e-19)
(1.11784 -0.00426351 -2.46805e-19)
(1.18934 -0.0140636 3.90706e-19)
(0.973216 -0.000147595 8.54385e-20)
(1.07035 -0.00186037 4.81667e-20)
(1.15852 -0.00113898 -4.18192e-19)
(1.22482 -0.0106766 -2.28762e-19)
(1.11391 0.00187293 6.89178e-20)
(1.1955 0.00280418 3.25812e-19)
(1.25603 -0.00605104 -2.17911e-19)
(1.15412 0.00638244 -2.44662e-19)
(1.22876 0.00747438 1.53277e-19)
(1.28322 -0.000564609 7.09885e-20)
(1.25837 0.0127543 -2.4374e-19)
(1.30665 0.00551113 3.32173e-19)
(1.32658 0.0119796 -1.65983e-19)
(1.13937 -0.0637661 -8.17493e-20)
(1.04564 -0.0532558 -2.55899e-19)
(1.10536 -0.0548353 1.45096e-19)
(0.921549 -0.0327425 -1.75031e-19)
(1.00335 -0.044873 1.36037e-19)
(1.06723 -0.0461442 -4.28244e-20)
(0.871899 -0.0241246 -9.89047e-20)
(0.957549 -0.0368035 2.89764e-19)
(1.02493 -0.0379644 -6.59359e-20)
(0.730642 -0.00807972 3.03651e-21)
(0.819779 -0.0158521 -2.67526e-20)
(0.908375 -0.0291066 -2.80499e-19)
(0.978421 -0.0306609 -1.46526e-19)
(0.587763 0.00597605 -1.60842e-20)
(0.676943 -0.000553581 4.4405e-20)
(0.765552 -0.00792254 1.78482e-19)
(0.855984 -0.0217697 -5.77529e-20)
(0.927669 -0.0247115 1.72551e-19)
(0.536319 0.0124015 9.8768e-20)
(0.622657 0.00672859 -9.50312e-20)
(0.709615 -0.00026781 -1.61597e-19)
(0.800511 -0.014662 2.6624e-19)
(0.872494 -0.0207964 -1.65266e-19)
(0.407162 0.0207877 -1.4925e-20)
(0.485572 0.0186196 -1.75451e-19)
(0.568237 0.0138882 6.45181e-20)
(0.652427 0.00729443 1.10387e-19)
(0.74197 -0.00741419 1.35888e-21)
(0.811753 -0.0204212 2.1793e-19)
(0.294485 0.0250832 1.75494e-19)
(0.362345 0.0258395 -4.34085e-20)
(0.435902 0.0247248 -1.19984e-19)
(0.514178 0.021077 -2.8078e-20)
(0.594572 0.0151455 1.77623e-19)
(0.680169 0.00128529 4.94241e-21)
(0.743955 -0.0249653 -7.80028e-20)
(0.256708 0.0291308 3.96143e-20)
(0.319271 0.030824 1.22498e-19)
(0.387679 0.0307912 6.29981e-20)
(0.461054 0.0284037 7.03083e-20)
(0.536892 0.0236687 -2.0023e-19)
(0.615455 0.0141109 4.42349e-20)
(0.67921 -0.0187219 -1.52166e-19)
(0.170096 0.0293993 1.12934e-20)
(0.220919 0.033197 -9.7554e-20)
(0.278149 0.0357819 -4.39523e-20)
(0.341256 0.0368429 -9.5886e-20)
(0.409465 0.0358446 -3.94843e-20)
(0.480665 0.0325933 1.36442e-20)
(0.55333 0.0272767 -8.41541e-20)
(0.62272 -0.00242552 -4.77553e-21)
(0.141481 0.032869 1.56278e-19)
(0.187208 0.0373086 1.4652e-20)
(0.239152 0.040727 6.56538e-20)
(0.296925 0.0428508 -9.57225e-20)
(0.359895 0.0432468 1.42252e-19)
(0.426502 0.0415552 3.67181e-20)
(0.494148 0.0391401 4.94632e-20)
(0.566421 0.0141387 1.62492e-19)
(0.08003 0.03085 1.23606e-19)
(0.114849 0.0364676 1.18407e-20)
(0.155643 0.0414743 5.11393e-20)
(0.202415 0.045652 6.81813e-20)
(0.254905 0.0487647 -2.89797e-20)
(0.312634 0.0504544 -1.10441e-19)
(0.374519 0.0502507 5.37931e-20)
(0.437296 0.049612 -6.45575e-20)
(0.509049 0.0282021 -1.72227e-19)
(0.0597744 0.034239 1.28462e-19)
(0.0902091 0.0401939 -4.0468e-20)
(0.126273 0.0456873 -4.36214e-20)
(0.168038 0.0505353 -1.35234e-19)
(0.215355 0.0545317 1.78883e-19)
(0.267889 0.0573568 -5.08161e-20)
(0.324896 0.0584713 -3.23298e-20)
(0.382869 0.0589272 4.31015e-20)
(0.452006 0.0401456 1.27803e-19)
(0.0199981 0.0314007 2.78484e-19)
(0.0412657 0.0378163 -2.03816e-19)
(0.0675616 0.0440337 -1.52017e-19)
(0.09913 0.0499273 -9.86393e-20)
(0.136096 0.0553427 2.11741e-19)
(0.178406 0.0600935 -9.61835e-22)
(0.22585 0.063865 5.30772e-20)
(0.277911 0.0660565 -1.87075e-19)
(0.331184 0.0671286 1.03123e-20)
(0.39643 0.0502442 7.79798e-20)
(0.00670667 0.0350555 -2.17507e-20)
(0.0244739 0.0415608 -5.48107e-20)
(0.0468936 0.0479624 8.5053e-20)
(0.0742279 0.0541624 1.08085e-19)
(0.106643 0.0600291 -2.56082e-19)
(0.144159 0.065383 -9.7993e-20)
(0.186677 0.0698858 9.40654e-20)
(0.233826 0.0728569 1.11749e-19)
(0.282492 0.0741245 1.17076e-19)
(0.343035 0.05846 5.70977e-21)
(-0.0157325 0.0324188 -4.66475e-20)
(-0.00516783 0.0389182 -3.00438e-20)
(0.00935983 0.0454449 1.56698e-19)
(0.0281793 0.0519481 -1.57064e-19)
(0.0515625 0.0583525 -8.79862e-20)
(0.079705 0.0645405 3.83098e-20)
(0.112685 0.0703256 6.56067e-20)
(0.150495 0.0753211 -5.78025e-20)
(0.192848 0.0787385 8.37718e-20)
(0.237 0.0798203 1.12499e-19)
(0.292379 0.0647731 -1.00951e-19)
(-0.0236035 0.0365509 1.82202e-19)
(-0.0156793 0.04296 -1.39454e-19)
(-0.00412684 0.049437 1.59056e-19)
(0.011377 0.0559545 -2.00906e-20)
(0.031108 0.0624532 6.32242e-20)
(0.0552812 0.06882 -3.74036e-20)
(0.0840192 0.0748471 -3.31947e-20)
(0.11738 0.0800795 2.03398e-20)
(0.155128 0.0835984 -2.08218e-19)
(0.194876 0.0841688 2.00877e-20)
(0.244918 0.0692646 8.53318e-20)
(-0.0304123 0.0408923 -2.92192e-19)
(-0.0248907 0.0471512 3.45266e-20)
(-0.0160492 0.0535048 -6.68777e-20)
(-0.00357276 0.0599447 -6.97854e-20)
(0.0128139 0.0664208 -2.68363e-20)
(0.0333374 0.0728142 1.87976e-19)
(0.0581507 0.0788828 -3.77116e-20)
(0.087357 0.0840901 -3.81358e-20)
(0.120748 0.0873769 1.18844e-19)
(0.156235 0.0871834 -4.70456e-20)
(0.200975 0.072092 -1.65061e-20)
(-0.0368816 0.0394369 5.21439e-20)
(-0.0362253 0.0454154 -2.90067e-20)
(-0.0328743 0.0514633 6.65638e-20)
(-0.0264844 0.057618 4.43727e-21)
(-0.0167491 0.0638853 2.16546e-19)
(-0.00339736 0.0702175 1.58673e-19)
(0.0138028 0.0764802 2.26245e-20)
(0.0350222 0.082387 2.28006e-20)
(0.0603885 0.0873146 2.24766e-20)
(0.0897135 0.0900697 4.14883e-20)
(0.121112 0.0889453 4.67962e-20)
(0.160725 0.0734696 6.13188e-20)
(-0.0400683 0.0443652 1.63596e-20)
(-0.0411158 0.0500948 2.01828e-19)
(-0.0397125 0.055871 1.85063e-19)
(-0.0355233 0.0617511 -3.59844e-20)
(-0.0282511 0.0677504 -2.7876e-19)
(-0.0176309 0.0738168 -4.54324e-20)
(-0.00343101 0.0797928 -1.08177e-19)
(0.0145261 0.0853417 1.58848e-19)
(0.0363756 0.0897578 3.72024e-20)
(0.061956 0.0917404 -1.79803e-19)
(0.0894431 0.0895904 -8.02394e-20)
(0.1242 0.0736612 -2.96512e-19)
(-0.0425967 0.0494754 -7.66975e-20)
(-0.0451627 0.0549086 7.21667e-20)
(-0.0454962 0.0603538 -5.96499e-20)
(-0.0432701 0.0658855 -1.2761e-19)
(-0.0381966 0.0715238 9.30247e-20)
(-0.0300183 0.0772069 -2.48535e-20)
(-0.0185089 0.0827487 -9.96901e-20)
(-0.0034933 0.0877612 -1.27007e-19)
(0.0151632 0.0914699 6.16514e-20)
(0.0373229 0.0925133 3.72637e-20)
(0.0610405 0.08925 -5.31535e-20)
(0.0913529 0.0730112 1.45234e-19)
(-0.0389612 0.0494894 1.81456e-20)
(-0.044538 0.054747 1.23069e-19)
(-0.0484499 0.0598388 -2.82446e-19)
(-0.050324 0.0648974 -1.12078e-19)
(-0.0498402 0.0700112 4.06791e-20)
(-0.0467197 0.0752016 1.41461e-20)
(-0.0407145 0.0803931 -4.84632e-20)
(-0.0316075 0.0853688 1.30656e-19)
(-0.0192325 0.089692 -9.78893e-21)
(-0.00346214 0.0925358 7.62084e-20)
(0.0155273 0.0925188 3.45471e-20)
(0.0356392 0.0880033 1.46775e-19)
(0.0621919 0.0720078 6.00115e-20)
(-0.0393726 0.0552077 -5.6601e-20)
(-0.0459653 0.0601631 3.18572e-20)
(-0.0510645 0.0648729 9.66772e-20)
(-0.0542996 0.0694941 -9.61342e-20)
(-0.0553569 0.0741275 -1.03378e-19)
(-0.0539665 0.0787927 1.18464e-21)
(-0.0498914 0.0833986 2.33536e-20)
(-0.0429274 0.0876981 1.22628e-20)
(-0.0329232 0.0912137 -9.35596e-20)
(-0.0197785 0.093092 -8.714e-20)
(-0.00376757 0.0919896 -2.37569e-20)
(0.0132725 0.0862365 -1.53199e-19)
(0.0365757 0.0707798 -4.82726e-20)
(-0.0394699 0.0610852 3.49247e-20)
(-0.0469521 0.0657105 2.20709e-20)
(-0.0530948 0.0700029 1.17892e-21)
(-0.0575294 0.0741432 2.18928e-19)
(-0.0599482 0.0782426 2.67514e-19)
(-0.0600905 0.082318 4.10201e-20)
(-0.0577316 0.0862623 -8.98427e-20)
(-0.0526835 0.0898018 3.42642e-20)
(-0.0448138 0.092429 1.76484e-19)
(-0.0340552 0.0932879 -1.60922e-19)
(-0.0207463 0.0911187 -2.24985e-20)
(-0.00629973 0.084356 6.33628e-20)
(0.0137549 0.069213 -9.30409e-20)
(-0.0303018 0.0621489 7.37693e-20)
(-0.039313 0.0671071 4.59712e-20)
(-0.0475706 0.0713794 -6.73804e-20)
(-0.0546284 0.0752256 -1.28875e-19)
(-0.0601195 0.0788497 -6.82497e-20)
(-0.0637424 0.0823728 -2.88163e-19)
(-0.0652463 0.0858087 -1.27937e-19)
(-0.0644204 0.0890362 1.21743e-20)
(-0.0610952 0.0917601 5.33567e-21)
(-0.0551602 0.0934549 -2.23168e-20)
(-0.046582 0.093281 1.73439e-19)
(-0.0357362 0.0900808 9.11424e-20)
(-0.0236733 0.0824343 -3.86204e-20)
(-0.00682366 0.0674066 1.28542e-19)
(-0.0294049 0.0685381 1.54905e-19)
(-0.0389592 0.0732606 -1.22183e-19)
(-0.0478904 0.0771631 5.78475e-20)
(-0.0557498 0.0805419 1.2704e-19)
(-0.0621727 0.0836241 3.04771e-20)
(-0.0668641 0.0865409 1.17454e-19)
(-0.0695844 0.0893043 2.3877e-19)
(-0.0701381 0.0917816 -1.89271e-20)
(-0.0683766 0.0936627 -1.8278e-19)
(-0.0642133 0.0944162 7.83001e-20)
(-0.0576494 0.0932339 -9.70722e-20)
(-0.0490844 0.089069 -1.2523e-19)
(-0.0393 0.0806629 -7.93915e-20)
(-0.0254749 0.0657221 -5.84718e-20)
(-0.0284451 0.0750552 -1.78722e-19)
(-0.0384626 0.0795352 2.01787e-19)
(-0.0479772 0.0830575 -1.53932e-19)
(-0.0565387 0.0859557 -1.22778e-19)
(-0.0637857 0.0884805 3.3562e-20)
(-0.0694307 0.0907742 1.91562e-20)
(-0.0732461 0.0928488 -6.7906e-20)
(-0.0750537 0.0945642 1.14923e-19)
(-0.0747271 0.0956028 1.53518e-19)
(-0.0722055 0.0954377 -5.81681e-20)
(-0.0675234 0.093305 5.57522e-20)
(-0.0610954 0.0882729 6.85004e-20)
(-0.0535039 0.0792545 5.75596e-20)
(-0.0424799 0.0644673 -5.60067e-21)
(-0.0274633 0.0816855 2.60658e-20)
(-0.0378726 0.0859214 -1.15054e-20)
(-0.047891 0.0890601 1.81781e-20)
(-0.0570681 0.0914729 1.50194e-19)
(-0.0650469 0.0934352 4.4117e-21)
(-0.0715486 0.095102 2.43076e-20)
(-0.076359 0.096488 -1.4287e-19)
(-0.0793184 0.0974502 4.35661e-20)
(-0.0803236 0.0976704 1.20658e-20)
(-0.0793403 0.0966364 -7.35604e-20)
(-0.0764334 0.0936369 -2.13316e-19)
(-0.0720243 0.0878545 2.18367e-20)
(-0.0665431 0.0783723 2.4496e-20)
(-0.0581143 0.063817 -4.15123e-20)
(-0.0160292 0.0826963 2.45244e-19)
(-0.0264961 0.0884152 1.0789e-19)
(-0.0372338 0.092411 -1.05203e-19)
(-0.0476856 0.0951693 3.53916e-20)
(-0.0574029 0.0971001 -9.59778e-20)
(-0.0660343 0.0985051 -4.35399e-20)
(-0.0733113 0.0995535 2.50023e-20)
(-0.079034 0.100266 9.75102e-20)
(-0.0830619 0.100501 -1.1792e-19)
(-0.0853161 0.0999475 2.87121e-20)
(-0.0857873 0.0981143 1.27601e-19)
(-0.0845675 0.094348 4.48713e-20)
(-0.0820767 0.0879399 1.36603e-20)
(-0.0786249 0.0781279 -2.10849e-19)
(-0.0726167 0.0638604 1.33504e-19)
(-0.0149355 0.0895495 -1.83681e-19)
(-0.0255752 0.0952304 -3.05339e-20)
(-0.0365846 0.0989956 -7.48243e-20)