/*--------------------------------*- C++ -*----------------------------------*\
  =========                 |
  \\      /  F ield         | OpenFOAM: The Open Source CFD Toolbox
   \\    /   O peration     | Website:  https://openfoam.org
    \\  /    A nd           | Version:  7
     \\/     M anipulation  |
\*---------------------------------------------------------------------------*/
FoamFile
{
    version     2.0;
    format      ascii;
    class       surfaceScalarField;
    location    "60";
    object      phi;
}
// * * * * * * * * * * * * * * * * * * * * * * * * * * * * * * * * * * * * * //

dimensions      [0 3 -1 0 0 0 0];

internalField   nonuniform List<scalar> 
13997
(
-8.88056e-06
-2.47219e-05
2.7777e-05
-1.24812e-05
-2.89795e-05
3.25802e-05
-1.65814e-05
-3.28342e-05
3.69343e-05
-2.11364e-05
-3.63161e-05
4.08712e-05
-2.61039e-05
-3.94631e-05
4.44306e-05
-3.14441e-05
-4.23188e-05
4.76589e-05
-3.71208e-05
-4.49313e-05
5.0608e-05
-4.31022e-05
-4.73515e-05
5.3333e-05
-4.9362e-05
-4.9631e-05
5.58907e-05
-5.58794e-05
-5.18198e-05
5.83373e-05
-6.26411e-05
-5.39649e-05
6.07266e-05
-6.96411e-05
-5.61083e-05
6.31083e-05
-7.6882e-05
-5.8286e-05
6.55269e-05
-8.43752e-05
-6.05275e-05
6.80207e-05
-9.21412e-05
-6.28551e-05
7.06212e-05
-0.000100209
-6.52844e-05
7.33526e-05
-0.000108617
-6.78243e-05
7.62323e-05
-0.000117409
-7.04778e-05
7.92699e-05
-0.000126635
-7.32418e-05
8.24675e-05
-0.000136345
-7.61084e-05
8.58185e-05
-7.9056e-05
8.93037e-05
-0.000146593
-9.00556e-06
-2.16265e-05
-1.26514e-05
-2.53337e-05
-1.68006e-05
-2.8685e-05
-2.14076e-05
-3.17092e-05
-2.64291e-05
-3.44416e-05
-3.18247e-05
-3.69231e-05
-3.75579e-05
-3.91981e-05
-4.35966e-05
-4.13129e-05
-4.99138e-05
-4.33138e-05
-5.64891e-05
-4.52446e-05
-6.33088e-05
-4.71452e-05
-7.03672e-05
-4.90499e-05
-7.7667e-05
-5.09862e-05
-8.52199e-05
-5.29746e-05
-9.30467e-05
-5.50283e-05
-0.000101177
-5.71539e-05
-0.000109649
-5.93522e-05
-0.000118508
-6.16194e-05
-0.000127802
-6.39476e-05
-0.000137582
-6.6328e-05
-6.87374e-05
-0.000147901
-9.11602e-06
-1.84959e-05
-1.28009e-05
-2.16488e-05
-1.69919e-05
-2.4494e-05
-2.16424e-05
-2.70587e-05
-2.67082e-05
-2.93758e-05
-3.21483e-05
-3.1483e-05
-3.79253e-05
-3.3421e-05
-4.40067e-05
-3.52316e-05
-5.03651e-05
-3.69554e-05
-5.69796e-05
-3.86301e-05
-6.38362e-05
-4.02886e-05
-7.0929e-05
-4.1957e-05
-7.82607e-05
-4.36545e-05
-8.5843e-05
-4.53924e-05
-9.36969e-05
-4.71744e-05
-0.000101852
-4.89984e-05
-0.000110348
-5.08568e-05
-0.000119228
-5.2739e-05
-0.000128543
-5.46326e-05
-0.000138343
-5.65281e-05
-5.84014e-05
-0.000148679
-9.21168e-06
-1.53351e-05
-1.29295e-05
-1.7931e-05
-1.71549e-05
-2.02686e-05
-2.18404e-05
-2.23732e-05
-2.69408e-05
-2.42754e-05
-3.24142e-05
-2.60096e-05
-3.82224e-05
-2.76128e-05
-4.43321e-05
-2.91219e-05
-5.07153e-05
-3.05722e-05
-5.73503e-05
-3.19951e-05
-6.42228e-05
-3.34161e-05
-7.13262e-05
-3.48536e-05
-7.86629e-05
-3.63179e-05
-8.62442e-05
-3.7811e-05
-9.40913e-05
-3.93274e-05
-0.000102234
-4.08553e-05
-0.000110712
-4.23791e-05
-0.00011957
-4.38811e-05
-0.000128858
-4.53443e-05
-0.000138627
-4.67589e-05
-4.81006e-05
-0.000148928
-9.29239e-06
-1.21495e-05
-1.30368e-05
-1.41866e-05
-1.72893e-05
-1.6016e-05
-2.20013e-05
-1.76612e-05
-2.71266e-05
-1.91501e-05
-3.26222e-05
-2.05141e-05
-3.8449e-05
-2.1786e-05
-4.45726e-05
-2.29982e-05
-5.09643e-05
-2.41805e-05
-5.76014e-05
-2.5358e-05
-6.44687e-05
-2.65488e-05
-7.15589e-05
-2.77634e-05
-7.88736e-05
-2.90032e-05
-8.64238e-05
-3.02607e-05
-9.42304e-05
-3.15208e-05
-0.000102324
-3.27621e-05
-0.000110742
-3.39602e-05
-0.000119533
-3.50902e-05
-0.000128747
-3.61303e-05
-0.000138436
-3.70708e-05
-3.78876e-05
-0.000148648
-9.35807e-06
-8.94417e-06
-1.31228e-05
-1.04218e-05
-1.73951e-05
-1.17437e-05
-2.21252e-05
-1.29312e-05
-2.72656e-05
-1.40097e-05
-3.27722e-05
-1.50074e-05
-3.8605e-05
-1.59532e-05
-4.47284e-05
-1.68748e-05
-5.11123e-05
-1.77966e-05
-5.77332e-05
-1.87371e-05
-6.45744e-05
-1.97076e-05
-7.16277e-05
-2.07101e-05
-7.88938e-05
-2.17372e-05
-8.63828e-05
-2.27718e-05
-9.4115e-05
-2.37885e-05
-0.000102121
-2.47562e-05
-0.00011044
-2.56412e-05
-0.000119119
-2.64108e-05
-0.000128212
-2.70382e-05
-0.000137769
-2.75138e-05
-2.78146e-05
-0.000147842
-9.40872e-06
-5.72435e-06
-1.31876e-05
-6.64297e-06
-1.74723e-05
-7.45893e-06
-2.22119e-05
-8.1916e-06
-2.73578e-05
-8.86386e-06
-3.28646e-05
-9.5006e-06
-3.86909e-05
-1.01269e-05
-4.47999e-05
-1.07658e-05
-5.11601e-05
-1.14363e-05
-5.77465e-05
-1.21507e-05
-6.45411e-05
-1.2913e-05
-7.15341e-05
-1.37171e-05
-7.87248e-05
-1.45464e-05
-8.61226e-05
-1.5374e-05
-9.37469e-05
-1.61642e-05
-0.000101628
-1.68751e-05
-0.000109806
-1.74631e-05
-0.000118329
-1.78875e-05
-0.000127252
-1.81158e-05
-0.000136627
-1.81383e-05
-1.79335e-05
-0.000146508
-9.44439e-06
-2.49522e-06
-1.32311e-05
-2.85627e-06
-1.7521e-05
-3.169e-06
-2.22618e-05
-3.45082e-06
-2.74036e-05
-3.72207e-06
-3.28997e-05
-4.00449e-06
-3.87073e-05
-4.31934e-06
-4.47879e-05
-4.68519e-06
-5.11086e-05
-5.11561e-06
-5.76426e-05
-5.61678e-06
-6.43701e-05
-6.1855e-06
-7.12796e-05
-6.80761e-06
-7.83687e-05
-7.45728e-06
-8.56453e-05
-8.09741e-06
-9.31282e-05
-8.68136e-06
-0.000100847
-9.15619e-06
-0.000108843
-9.46759e-06
-0.000117165
-9.56554e-06
-0.000125869
-9.41133e-06
-0.000135012
-8.99484e-06
-8.29651e-06
-0.000144649
-9.46521e-06
7.38081e-07
-1.32536e-05
9.32133e-07
-1.75415e-05
1.11889e-06
-2.22752e-05
1.28285e-06
-2.74034e-05
1.40617e-06
-3.28781e-05
1.47018e-06
-3.86548e-05
1.45733e-06
-4.46934e-05
1.35343e-06
-5.09591e-05
1.15008e-06
-5.7423e-05
8.47124e-07
-6.40633e-05
4.54813e-07
-7.08663e-05
-4.561e-09
-7.78277e-05
-4.95878e-07
-8.49536e-05
-9.71592e-07
-9.22613e-05
-1.37365e-06
-9.97803e-05
-1.63718e-06
-0.000107552
-1.69621e-06
-0.000115627
-1.49038e-06
-0.000124065
-9.73578e-07
-0.000132925
-1.34618e-07
1.04399e-06
-0.000142265
-9.47134e-06
3.97045e-06
-1.32553e-05
4.71612e-06
-1.7534e-05
5.39758e-06
-2.22524e-05
6.00121e-06
-2.73578e-05
6.51154e-06
-3.28004e-05
6.91287e-06
-3.85343e-05
7.1912e-06
-4.45174e-05
7.33653e-06
-5.07128e-05
7.34544e-06
-5.70893e-05
7.22362e-06
-6.36226e-05
6.98818e-06
-7.02967e-05
6.66947e-06
-7.71045e-05
6.31197e-06
-8.40501e-05
5.97397e-06
-9.11492e-05
5.72547e-06
-9.84305e-05
5.64416e-06
-0.000105936
5.80892e-06
-0.000113718
6.29184e-06
-0.000121839
7.14788e-06
-0.000130364
8.39036e-06
1.00348e-05
-0.000139355
-9.46297e-06
7.19687e-06
-1.32365e-05
8.48966e-06
-1.7499e-05
9.66005e-06
-2.21939e-05
1.06962e-05
-2.72672e-05
1.15849e-05
-3.26676e-05
1.23132e-05
-3.83469e-05
1.28705e-05
-4.42613e-05
1.32509e-05
-5.03713e-05
1.34555e-05
-5.66434e-05
1.34957e-05
-6.30504e-05
1.33952e-05
-6.95732e-05
1.31922e-05
-7.6202e-05
1.29408e-05
-8.2938e-05
1.271e-05
-8.97951e-05
1.25826e-05
-9.68009e-05
1.26499e-05
-0.000103997
1.30053e-05
-0.00011144
1.37342e-05
-0.000119194
1.49024e-05
-0.000127331
1.65269e-05
1.86218e-05
-0.000135917
-9.44032e-06
1.04124e-05
-1.31975e-05
1.22468e-05
-1.74367e-05
1.38993e-05
-2.21003e-05
1.53597e-05
-2.71325e-05
1.6617e-05
-3.24802e-05
1.76609e-05
-3.80936e-05
1.84839e-05
-4.39262e-05
1.90835e-05
-4.99363e-05
1.94656e-05
-5.60873e-05
1.96467e-05
-6.23489e-05
1.96568e-05
-6.86986e-05
1.95419e-05
-7.51232e-05
1.93654e-05
-8.16207e-05
1.92075e-05
-8.82024e-05
1.91643e-05
-9.48944e-05
1.93419e-05
-0.000101739
1.98497e-05
-0.000108793
2.07887e-05
-0.000116129
2.2238e-05
-0.000123822
2.422e-05
2.6749e-05
-0.000131949
-9.40364e-06
-1.31385e-05
1.59816e-05
-1.73477e-05
1.81085e-05
-2.1972e-05
1.99841e-05
-2.69542e-05
2.15992e-05
-3.22393e-05
2.2946e-05
-3.77753e-05
2.40198e-05
-4.35135e-05
2.48218e-05
-4.94093e-05
2.53614e-05
-5.54229e-05
2.56603e-05
-6.15204e-05
2.57544e-05
-6.76756e-05
2.56971e-05
-7.38712e-05
2.55609e-05
-8.01015e-05
2.54378e-05
-8.63744e-05
2.54372e-05
-9.27143e-05
2.56818e-05
-9.91631e-05
2.62984e-05
-0.000105781
2.74065e-05
-0.000112644
2.9101e-05
-0.000119837
3.14131e-05
3.43586e-05
-0.000127446
-1.30599e-05
1.96884e-05
-1.72323e-05
2.22809e-05
-2.18096e-05
2.45614e-05
-2.67329e-05
2.65225e-05
-3.19454e-05
2.81585e-05
-3.73929e-05
2.94674e-05
-4.30242e-05
3.0453e-05
-4.87916e-05
3.11288e-05
-5.46518e-05
3.15205e-05
-6.05671e-05
3.16697e-05
-6.65067e-05
3.16367e-05
-7.24489e-05
3.15031e-05
-7.83834e-05
3.13723e-05
-8.43145e-05
3.13683e-05
-9.02636e-05
3.16309e-05
-9.62722e-05
3.2307e-05
-0.000102403
3.3537e-05
-0.000108737
3.54357e-05
-0.000115371
3.80464e-05
4.13899e-05
-0.000122402
-1.2962e-05
2.33613e-05
-1.70908e-05
2.64097e-05
-2.16133e-05
2.90839e-05
-2.64691e-05
3.13782e-05
-3.15992e-05
3.32887e-05
-3.69473e-05
3.48155e-05
-4.24594e-05
3.59651e-05
-4.80845e-05
3.6754e-05
-5.37757e-05
3.72117e-05
-5.94908e-05
3.73847e-05
-6.51942e-05
3.73401e-05
-7.08589e-05
3.71679e-05
-7.64696e-05
3.6983e-05
-8.20256e-05
3.69243e-05
-8.7545e-05
3.71503e-05
-9.3068e-05
3.783e-05
-9.86593e-05
3.91283e-05
-0.000104408
4.11842e-05
-0.000110419
4.40577e-05
4.77777e-05
-0.000116807
-1.2845e-05
2.69946e-05
-1.69235e-05
3.04883e-05
-2.13837e-05
3.35441e-05
-2.61631e-05
3.61577e-05
-3.12012e-05
3.83268e-05
-3.6439e-05
4.00532e-05
-4.18196e-05
4.13457e-05
-4.72888e-05
4.22232e-05
-5.27956e-05
4.27184e-05
-5.82929e-05
4.28821e-05
-6.37398e-05
4.2787e-05
-6.91035e-05
4.25315e-05
-7.43623e-05
4.22418e-05
-7.95102e-05
4.20721e-05
-8.45606e-05
4.22008e-05
-8.95519e-05
4.28213e-05
-9.45505e-05
4.41269e-05
-9.96522e-05
4.62858e-05
-0.000104975
4.9381e-05
5.34543e-05
-0.000110652
-1.2709e-05
3.05827e-05
-1.67306e-05
3.45099e-05
-2.11207e-05
3.79342e-05
-2.58152e-05
4.08523e-05
-3.07515e-05
4.3263e-05
-3.5868e-05
4.51698e-05
-4.11052e-05
4.65829e-05
-4.6405e-05
4.7523e-05
-5.1712e-05
4.80254e-05
-5.69742e-05
4.81443e-05
-6.21446e-05
4.79575e-05
-6.71839e-05
4.75708e-05
-7.20634e-05
4.71213e-05
-7.67701e-05
4.67788e-05
-8.13122e-05
4.67428e-05
-8.57247e-05
4.72338e-05
-9.00751e-05
4.84773e-05
-9.44665e-05
5.06772e-05
-9.90317e-05
5.39463e-05
5.83464e-05
-0.000103924
-1.25542e-05
3.41198e-05
-1.65122e-05
3.84679e-05
-2.08245e-05
4.22465e-05
-2.54253e-05
4.54531e-05
-3.025e-05
4.80876e-05
-3.52344e-05
5.01543e-05
-4.03159e-05
5.16643e-05
-4.54327e-05
5.26398e-05
-5.05248e-05
5.31175e-05
-5.55347e-05
5.31542e-05
-6.0409e-05
5.28317e-05
-6.51007e-05
5.22625e-05
-6.95735e-05
5.15941e-05
-7.38063e-05
5.10116e-05
-7.78001e-05
5.07367e-05
-8.15858e-05
5.10195e-05
-8.52308e-05
5.21224e-05
-8.88452e-05
5.42916e-05
-9.25778e-05
5.76788e-05
6.23744e-05
-9.66058e-05
-1.23805e-05
3.76003e-05
-1.62681e-05
4.23555e-05
-2.04948e-05
4.64732e-05
-2.49932e-05
4.99515e-05
-2.96962e-05
5.27907e-05
-3.45375e-05
5.49955e-05
-3.9451e-05
5.65778e-05
-4.43711e-05
5.75599e-05
-4.92331e-05
5.79795e-05
-5.39735e-05
5.78946e-05
-5.85319e-05
5.73901e-05
-6.28533e-05
5.65839e-05
-6.68921e-05
5.5633e-05
-7.06181e-05
5.47376e-05
-7.40238e-05
5.41424e-05
-7.71338e-05
5.41294e-05
-8.00142e-05
5.50028e-05
-8.27817e-05
5.7059e-05
-8.56019e-05
6.04991e-05
6.54515e-05
-8.8679e-05
-1.21879e-05
-1.59982e-05
4.61658e-05
-2.01314e-05
5.06064e-05
-2.45181e-05
5.43382e-05
-2.90894e-05
5.73619e-05
-3.37761e-05
5.96823e-05
-3.8509e-05
6.13108e-05
-4.32186e-05
6.22695e-05
-4.78349e-05
6.25958e-05
-5.22885e-05
6.23481e-05
-5.65112e-05
6.16129e-05
-6.04393e-05
6.0512e-05
-6.40171e-05
5.92108e-05
-6.72036e-05
5.79241e-05
-6.99808e-05
5.69196e-05
-7.23653e-05
5.6514e-05
-7.44203e-05
5.70578e-05
-7.62675e-05
5.89062e-05
-7.80904e-05
6.2322e-05
6.74832e-05
-8.01221e-05
-1.57021e-05
4.98918e-05
-1.97335e-05
5.46378e-05
-2.39993e-05
5.8604e-05
-2.84282e-05
6.17908e-05
-3.29485e-05
6.42026e-05
-3.74879e-05
6.58501e-05
-4.19724e-05
6.6754e-05
-4.63271e-05
6.69505e-05
-5.0476e-05
6.6497e-05
-5.4343e-05
6.54799e-05
-5.78548e-05
6.40237e-05
-6.09443e-05
6.23003e-05
-6.35583e-05
6.05381e-05
-6.56666e-05
5.90279e-05
-6.72753e-05
5.81226e-05
-6.84419e-05
5.82244e-05
-6.92923e-05
5.97566e-05
-7.00278e-05
6.30575e-05
6.83658e-05
-7.09104e-05
-1.53793e-05
5.35262e-05
-1.93004e-05
5.85588e-05
-2.34353e-05
6.27389e-05
-2.77108e-05
6.60663e-05
-3.20525e-05
6.85443e-05
-3.63844e-05
7.0182e-05
-4.06288e-05
7.09984e-05
-4.47053e-05
7.1027e-05
-4.8531e-05
7.03227e-05
-5.20217e-05
6.89706e-05
-5.50935e-05
6.70955e-05
-5.76672e-05
6.48741e-05
-5.96757e-05
6.25465e-05
-6.10741e-05
6.04264e-05
-6.18556e-05
5.89041e-05
-6.20696e-05
5.84383e-05
-6.18437e-05
5.95308e-05
-6.13968e-05
6.26106e-05
6.79874e-05
-6.10184e-05
-1.50289e-05
5.70613e-05
-1.88308e-05
6.23607e-05
-2.28247e-05
6.67328e-05
-2.6935e-05
7.01767e-05
-3.10849e-05
7.26941e-05
-3.51949e-05
7.42921e-05
-3.9183e-05
7.49865e-05
-4.29634e-05
7.48074e-05
-4.64466e-05
7.38059e-05
-4.95392e-05
7.20633e-05
-5.21467e-05
6.97029e-05
-5.41764e-05
6.69039e-05
-5.55457e-05
6.39157e-05
-5.61929e-05
6.10736e-05
-5.60953e-05
5.88064e-05
-5.52907e-05
5.76338e-05
-5.39064e-05
5.81464e-05
-5.2178e-05
6.08822e-05
6.62275e-05
-5.04181e-05
-1.46501e-05
-1.83233e-05
6.60339e-05
-2.21652e-05
7.05747e-05
-2.6098e-05
7.41095e-05
-3.00419e-05
7.6638e-05
-3.39143e-05
7.81644e-05
-3.76287e-05
7.8701e-05
-4.10941e-05
7.82728e-05
-4.42137e-05
7.69255e-05
-4.68854e-05
7.47349e-05
-4.90028e-05
7.18204e-05
-5.04593e-05
6.83603e-05
-5.11548e-05
6.46113e-05
-5.10087e-05
6.09276e-05
-4.99789e-05
5.77767e-05
-4.80886e-05
5.57434e-05
-4.54612e-05
5.5519e-05
-4.23484e-05
5.77695e-05
6.29613e-05
-3.90823e-05
-1.77763e-05
6.95685e-05
-2.14545e-05
7.4253e-05
-2.51963e-05
7.78512e-05
-2.8919e-05
8.03607e-05
-3.25367e-05
8.17821e-05
-3.59587e-05
8.21229e-05
-3.90882e-05
8.14023e-05
-4.18214e-05
7.96587e-05
-4.40471e-05
7.69606e-05
-4.5647e-05
7.34203e-05
-4.64993e-05
6.92126e-05
-4.64852e-05
6.45972e-05
-4.55026e-05
5.99449e-05
-4.34866e-05
5.57607e-05
-4.04416e-05
5.26984e-05
-3.64846e-05
5.1562e-05
-3.18839e-05
5.31688e-05
5.80628e-05
-2.69855e-05
-1.71877e-05
7.29539e-05
-2.06898e-05
7.77551e-05
-2.42261e-05
8.13875e-05
-2.77111e-05
8.38457e-05
-3.10554e-05
8.51264e-05
-3.41639e-05
8.52315e-05
-3.69345e-05
8.41729e-05
-3.92563e-05
8.19805e-05
-4.10086e-05
7.87129e-05
-4.20611e-05
7.44727e-05
-4.22759e-05
6.94274e-05
-4.15145e-05
6.38358e-05
-3.96503e-05
5.80807e-05
-3.65922e-05
5.27025e-05
-3.2321e-05
4.84272e-05
-2.69434e-05
4.61844e-05
-2.0759e-05
4.69845e-05
5.14304e-05
-1.41266e-05
-1.65554e-05
7.61787e-05
-1.98678e-05
8.10675e-05
-2.31828e-05
8.47025e-05
-2.6412e-05
8.70749e-05
-2.94623e-05
8.81767e-05
-3.22343e-05
8.80035e-05
-3.46205e-05
8.65591e-05
-3.65027e-05
8.38628e-05
-3.77511e-05
7.99613e-05
-3.82229e-05
7.49446e-05
-3.77641e-05
6.89686e-05
-3.62148e-05
6.22865e-05
-3.34218e-05
5.52877e-05
-2.92632e-05
4.85439e-05
-2.36893e-05
4.28533e-05
-1.67812e-05
3.92764e-05
-8.87527e-06
3.90785e-05
4.35966e-05
-1.04143e-06
-1.5877e-05
-1.89851e-05
8.41757e-05
-2.20617e-05
8.7779e-05
-2.50151e-05
9.00283e-05
-2.77486e-05
9.09103e-05
-3.01585e-05
9.04134e-05
-3.21314e-05
8.8532e-05
-3.35425e-05
8.52739e-05
-3.42526e-05
8.06714e-05
-3.41066e-05
7.47986e-05
-3.29339e-05
6.7796e-05
-3.05527e-05
5.99052e-05
-2.67808e-05
5.15159e-05
-2.14609e-05
4.3224e-05
-1.45046e-05
3.5897e-05
-5.95457e-06
3.07264e-05
3.97804e-06
2.91459e-05
3.31323e-05
1.44423e-05
-1.80379e-05
8.70638e-05
-2.08573e-05
9.05984e-05
-2.35131e-05
9.26841e-05
-2.59046e-05
9.33018e-05
-2.79236e-05
9.24323e-05
-2.94511e-05
9.00596e-05
-3.03554e-05
8.61781e-05
-3.0488e-05
8.0804e-05
-2.96821e-05
7.39926e-05
-2.77505e-05
6.58644e-05
-2.44888e-05
5.66435e-05
-1.96846e-05
4.67118e-05
-1.31413e-05
3.66807e-05
-4.72374e-06
2.74794e-05
5.55984e-06
2.04428e-05
1.7437e-05
1.72687e-05
2.02444e-05
3.03249e-05
-1.7022e-05
8.97148e-05
-1.95639e-05
9.31403e-05
-2.18981e-05
9.50182e-05
-2.39198e-05
9.53235e-05
-2.55158e-05
9.40284e-05
-2.65617e-05
9.11055e-05
-2.69186e-05
8.6535e-05
-2.64295e-05
8.03149e-05
-2.49157e-05
7.24788e-05
-2.2174e-05
6.31227e-05
-1.79775e-05
5.2447e-05
-1.20829e-05
4.08172e-05
-4.2515e-06
2.88493e-05
5.70412e-06
1.75238e-05
1.78292e-05
8.31771e-06
3.18815e-05
3.21645e-06
4.90001e-06
4.72259e-05
-1.59333e-05
9.21104e-05
-1.81755e-05
9.53825e-05
-2.01618e-05
9.70045e-05
-2.17828e-05
9.69446e-05
-2.29203e-05
9.51658e-05
-2.34439e-05
9.16291e-05
-2.32078e-05
8.62989e-05
-2.20464e-05
7.91535e-05
-1.97697e-05
7.0202e-05
-1.61593e-05
5.95123e-05
-1.09667e-05
4.72545e-05
-3.91753e-06
3.37679e-05
5.27051e-06
1.96612e-05
1.68423e-05
5.95196e-06
3.09078e-05
-5.74773e-06
4.72693e-05
-1.31451e-05
-1.30762e-05
6.52456e-05
-1.47673e-05
-1.66859e-05
9.73011e-05
-1.82956e-05
9.86142e-05
-1.94821e-05
9.81311e-05
-2.01215e-05
9.58053e-05
-2.00774e-05
9.1585e-05
-1.91967e-05
8.54183e-05
-1.73055e-05
7.72623e-05
-1.42031e-05
6.70997e-05
-9.65701e-06
5.49662e-05
-3.39824e-06
4.09957e-05
4.87749e-06
2.54922e-05
1.54962e-05
9.04253e-06
2.8764e-05
-7.31583e-06
4.48654e-05
-2.18492e-05
6.36647e-05
-3.19444e-05
-3.38654e-05
8.44538e-05
-1.50887e-05
9.88701e-05
-1.62906e-05
9.98161e-05
-1.70054e-05
9.88459e-05
-1.71033e-05
9.59031e-05
-1.64409e-05
9.09226e-05
-1.48579e-05
8.38353e-05
-1.2172e-05
7.45763e-05
-8.17235e-06
6.31001e-05
-2.61347e-06
4.94073e-05
4.79196e-06
3.35903e-05
1.43759e-05
1.59083e-05
2.65067e-05
-3.08825e-06
4.15534e-05
-2.23625e-05
5.97842e-05
-4.008e-05
8.1144e-05
-5.33042e-05
-5.76493e-05
0.000104928
-1.33774e-05
0.000100062
-1.41378e-05
0.000100576
-1.43407e-05
9.90488e-05
-1.38493e-05
9.54116e-05
-1.25128e-05
8.95862e-05
-1.01632e-05
8.14858e-05
-6.60955e-06
7.10226e-05
-1.63155e-06
5.81221e-05
5.02808e-06
4.27477e-05
1.36726e-05
2.49458e-05
2.46582e-05
4.92268e-06
3.83923e-05
-1.68224e-05
5.53062e-05
-3.92764e-05
7.57586e-05
-6.05324e-05
9.97944e-05
-7.734e-05
-8.46047e-05
0.00012675
-1.15458e-05
-1.18285e-05
0.000100859
-1.14758e-05
9.86961e-05
-1.03431e-05
9.42788e-05
-8.27147e-06
8.75146e-05
-5.08423e-06
7.82985e-05
-5.81533e-07
6.65199e-05
5.46611e-06
5.20744e-05
1.33264e-05
3.48874e-05
2.33159e-05
1.49563e-05
3.58106e-05
-7.57208e-06
5.12518e-05
-3.22635e-05
7.01289e-05
-5.81535e-05
9.28946e-05
-8.32982e-05
0.000119713
-0.000104158
-0.000114895
0.000150003
-9.35383e-06
0.000100625
-8.3987e-06
9.7741e-05
-6.56863e-06
9.24488e-05
-3.69546e-06
8.46414e-05
4.07149e-07
7.41959e-05
5.94854e-06
6.09785e-05
1.31675e-05
4.48555e-05
2.23409e-05
2.5714e-05
3.37957e-05
3.50152e-06
4.79228e-05
-2.16992e-05
6.51897e-05
-4.95304e-05
8.61366e-05
-7.91004e-05
0.000111309
-0.000108471
0.000141004
-0.000133854
-0.000148663
0.000174773
-6.70532e-06
9.9834e-05
-5.09781e-06
9.61335e-05
-2.51035e-06
8.98613e-05
1.23588e-06
8.08952e-05
6.33807e-06
6.90937e-05
1.3016e-05
5.43006e-05
2.15182e-05
3.63533e-05
3.21299e-05
1.51022e-05
4.51856e-05
-9.55425e-06
6.10855e-05
-3.75991e-05
8.03142e-05
-6.8759e-05
0.000103451
-0.000102237
0.000131127
-0.000136146
0.000163783
-0.00016651
-0.000186026
0.000201146
-3.87481e-06
-1.56203e-06
9.38207e-05
1.84662e-06
8.64527e-05
6.54219e-06
7.61996e-05
1.27342e-05
6.29017e-05
2.06543e-05
4.63804e-05
3.05614e-05
2.64463e-05
4.2749e-05
2.9147e-06
5.75566e-05
-2.43619e-05
7.53878e-05
-5.54303e-05
9.67336e-05
-9.01048e-05
0.000122198
-0.000127701
0.00015248
-0.000166429
0.000188168
-0.000202197
-0.000227068
0.000229209
2.21918e-06
9.07471e-05
6.51624e-06
8.21556e-05
1.22417e-05
7.04741e-05
1.96193e-05
5.55241e-05
2.88942e-05
3.71055e-05
4.03369e-05
1.50035e-05
5.42494e-05
-1.09977e-05
7.09745e-05
-4.1087e-05
9.09134e-05
-7.53692e-05
0.000114552
-0.000113744
0.0001425
-0.000155649
0.000175503
-0.000199432
0.000214283
-0.000240977
-0.000271829
0.000259044
6.25574e-06
1.15115e-05
7.68999e-05
1.83513e-05
6.36344e-05
2.70149e-05
4.68605e-05
3.77631e-05
2.63573e-05
5.08798e-05
1.88676e-06
6.66762e-05
-2.67941e-05
8.54975e-05
-5.99083e-05
0.000107738
-9.76096e-05
0.000133867
-0.000139873
0.000164477
-0.000186259
0.00020033
-0.000235285
0.000242255
-0.000282902
-0.000320306
0.000290732
1.68443e-05
7.06125e-05
2.48859e-05
5.55928e-05
3.49398e-05
3.68066e-05
4.72846e-05
1.40126e-05
6.22197e-05
-1.30484e-05
8.00671e-05
-4.46415e-05
0.000101174
-8.10156e-05
0.000125925
-0.00012236
0.000154762
-0.00016871
0.000188238
-0.000219734
0.000227088
-0.000274135
0.000272212
-0.000328026
-0.00037244
0.000324346
2.25258e-05
3.18591e-05
4.62595e-05
4.34104e-05
2.52553e-05
5.74783e-05
-5.52898e-08
7.43803e-05
-2.99504e-05
9.44512e-05
-6.47125e-05
0.000118042
-0.000104607
0.000145524
-0.000149842
0.000177305
-0.000200491
0.000213873
-0.000256303
0.000255893
-0.000316155
0.000304279
-0.000376412
-0.000428115
0.000359953
3.92828e-05
3.55428e-05
5.24402e-05
1.2098e-05
6.83593e-05
-1.59744e-05
8.73784e-05
-4.89695e-05
0.000109848
-8.7182e-05
0.000136125
-0.000130884
0.000166568
-0.000180285
0.000201543
-0.000235466
0.000241456
-0.000296217
0.00028685
-0.000361549
0.00033858
-0.000428141
-0.000487151
0.000397617
4.71674e-05
2.335e-05
6.20401e-05
-2.77473e-06
7.99386e-05
-3.38729e-05
0.000101224
-7.02552e-05
0.000126266
-0.000112224
0.000155431
-0.000160048
0.000189067
-0.000213921
0.000227498
-0.000273897
0.000271034
-0.000339753
0.000320043
-0.000410558
0.000375242
-0.00048334
-0.000549308
0.000437399
5.55219e-05
7.22187e-05
-1.94715e-05
9.22228e-05
-5.38771e-05
0.000115921
-9.39538e-05
0.000143705
-0.000140008
0.000175954
-0.000192296
0.000213012
-0.00025098
0.000255165
-0.00031605
0.000302623
-0.000387211
0.000355537
-0.000463472
0.000414397
-0.0005422
-0.000614276
0.000479365
8.2982e-05
-3.8099e-05
0.000105214
-7.61094e-05
0.000131465
-0.000120205
0.000162151
-0.000170694
0.000197668
-0.000227814
0.000238367
-0.000291678
0.000284506
-0.000362189
0.0003362
-0.000438905
0.000393368
-0.00052064
0.000456197
-0.00060503
-0.000681672
0.000523593
9.4334e-05
0.000118911
-0.000100686
0.000147845
-0.000149139
0.000181578
-0.000204427
0.000220531
-0.000266767
0.000265068
-0.000336215
0.00031544
-0.000412561
0.000371692
-0.000495157
0.000433526
-0.000582474
0.000500775
-0.000672279
-0.000751114
0.000570218
0.000133307
-0.000127717
0.000165041
-0.000180874
0.000201949
-0.000241334
0.000244477
-0.000309295
0.000293017
-0.000384755
0.000347844
-0.000467388
0.000408987
-0.0005563
0.00047599
-0.000649477
0.000548191
-0.00074448
-0.000822521
0.000619598
0.000148391
0.000183027
-0.00021551
0.000223211
-0.000281518
0.000269416
-0.0003555
0.000322076
-0.000437415
0.000381531
-0.000526843
0.000447927
-0.000622696
0.000520897
-0.000722447
0.000598823
-0.000822406
-0.000895998
0.0006723
0.000201768
0.000245297
-0.000325047
0.000295233
-0.000405437
0.000352051
-0.000494232
0.000416194
-0.000590986
0.000488106
-0.000694608
0.000568216
-0.000802557
0.000655005
-0.000909196
-0.000968898
0.000727906
0.000268131
-0.000371957
0.000321793
-0.000459098
0.000382703
-0.000555142
0.000451391
-0.000659674
0.00052857
-0.000771788
0.000615548
-0.000889535
0.000716726
-0.00101037
-0.00111687
0.000864696
0.000291626
0.000348947
-0.000516419
0.000413781
-0.000619976
0.000486655
-0.000732548
0.000568333
-0.000853466
0.000660363
-0.000981565
0.000766236
-0.00111625
-0.00124924
0.000898612
0.000376554
-0.000577283
0.000445068
-0.000688491
0.000521664
-0.000809143
0.00060692
-0.000938722
0.000701921
-0.00107657
0.000808214
-0.00122254
-0.00137231
0.000931279
0.000404476
0.000476382
-0.000760397
0.000556211
-0.000888972
0.000644246
-0.00102676
0.000740972
-0.00117329
0.00084662
-0.00132819
-0.00148858
0.000962894
0.000507559
0.00059014
-0.000971553
0.000680283
-0.0011169
0.000777923
-0.00127093
0.000882444
-0.00143271
-0.00159973
0.000993592
0.000623297
-0.00105642
0.000714955
-0.00120856
0.000812886
-0.00136886
0.000915941
-0.00153576
-0.00170675
0.00102296
0.000655516
0.000748141
-0.00130118
0.000845831
-0.00146655
0.000947121
-0.00163705
-0.00181011
0.00105048
0.000779684
0.000876646
-0.00156352
0.000975866
-0.00173627
-0.00190994
0.0010757
0.000905176
0.001002
-0.0018331
-0.00200621
0.00109827
0.00102536
-0.00192721
-0.00209878
0.00111793
0.00104579
-0.00218747
0.00113448
0.00114783
0.00221245
0.00116807
0.00106604
0.00194859
0.00212272
0.00115577
0.000950938
0.00167616
0.00104641
0.00185312
0.00202891
0.00114022
0.000925427
0.0015787
0.00102379
0.00175475
0.00193119
0.00112152
0.000798615
0.00131125
0.000897417
0.0014799
0.000998346
0.00165382
0.00182969
0.00109984
0.000672784
0.00106145
0.000767433
0.0012166
0.000867089
0.00138024
0.000970238
0.00155067
0.00172448
0.00107545
0.000640852
0.000974513
0.000734613
0.00112284
0.000834614
0.00128024
0.00093965
0.00144564
0.00161544
0.00104869
0.000523331
0.000758756
0.000608031
0.000889813
0.000700337
0.00103053
0.000800126
0.00118045
0.000906718
0.00133904
0.00150213
0.00102002
0.000418598
0.000571711
0.00049254
0.000684815
0.000574515
0.000807838
0.000664756
0.000940292
0.000763688
0.00108152
0.000871457
0.00123127
0.00138363
0.000989958
0.000391165
0.00050895
0.000461725
0.000614255
0.000540486
0.000729077
0.00062798
0.000852798
0.00072523
0.000984268
0.000833655
0.00112285
0.00125834
0.000958946
0.000304958
0.000361444
0.000364183
0.000449726
0.000431071
0.000547367
0.000506128
0.00065402
0.000590074
0.000768852
0.000684393
0.000889949
0.000792402
0.00101484
0.00112383
0.000926909
0.000282225
0.000312774
0.000337801
0.00039415
0.000400779
0.000484389
0.000471671
0.000583127
0.000551157
0.000689367
0.000640485
0.000800621
0.000743866
0.00091146
0.000973929
0.000893769
0.000214983
0.000200992
0.000260299
0.000267458
0.000312172
0.000342277
0.000371078
0.000425483
0.000437456
0.000516749
0.000511725
0.000615098
0.000594283
0.000718063
0.000683611
0.000822132
0.000898779
0.000758761
0.000160931
0.000111487
0.000197259
0.000164664
0.000239268
0.000225449
0.000287443
0.000294102
0.000342224
0.000370702
0.00040395
0.000455023
0.000472756
0.000546292
0.000548246
0.000642574
0.0006288
0.000741577
0.000823001
0.000704579
0.00014693
8.28205e-05
0.000180417
0.000131178
0.000219203
0.000186663
0.000263749
0.000249556
0.000314454
0.000319997
0.000371597
0.00039788
0.0004352
0.000482689
0.000504777
0.000572997
0.000579652
0.000666701
0.000749201
0.000653453
0.000107424
1.89566e-05
0.00013372
5.65248e-05
0.000164482
0.000100416
0.000200163
0.000150981
0.000241196
0.000208523
0.000287955
0.000273238
0.000340696
0.000345139
0.000399461
0.000423923
0.00046392
0.000508538
0.000533881
0.00059674
0.000677265
0.000605816
9.72529e-05
-1.3885e-06
0.000121299
3.24785e-05
0.000149468
7.22466e-05
0.000182185
0.000118264
0.00021986
0.000170849
0.000262852
0.000230247
0.000311425
0.000296566
0.000365691
0.000369657
0.000425538
0.000448691
0.000491117
0.000531161
0.000607271
0.000561112
6.92082e-05
-4.52048e-05
8.7732e-05
-1.99123e-05
0.000109657
1.05536e-05
0.000135376
4.65274e-05
0.000165289
8.83506e-05
0.000199787
0.000136351
0.000239223
0.000190811
0.000283888
0.000251901
0.000333986
0.000319559
0.000389638
0.000393039
0.000451297
0.000469503
0.000539589
0.000518978
6.20238e-05
-5.92519e-05
7.88414e-05
-3.67299e-05
9.87771e-05
-9.38217e-06
0.000122197
2.31071e-05
0.000149479
6.10691e-05
0.000180997
0.000104834
0.000217108
0.0001547
0.000258139
0.000210869
0.000304394
0.000273304
0.000356211
0.000341222
0.000414273
0.000411442
0.000474591
0.00047927
4.26378e-05
-8.76999e-05
5.53314e-05
-7.19454e-05
7.05573e-05
-5.19558e-05
8.86375e-05
-2.74624e-05
0.000109914
1.83083e-06
0.000134743
3.62402e-05
0.000163488
7.60883e-05
0.000196515
0.000121673
0.00023419
0.000173194
0.000276913
0.000230582
0.000325198
0.000292937
0.000379876
0.000356763
0.000412571
0.000441896
3.76705e-05
-9.70989e-05
4.91057e-05
-8.33807e-05
6.28529e-05
-6.5703e-05
7.92105e-05
-4.382e-05
9.84984e-05
-1.74571e-05
0.000121056
1.36827e-05
0.000147239
4.99048e-05
0.000177424
9.14884e-05
0.000212015
0.000138603
0.000251493
0.000191104
0.000296503
0.000247927
0.000347947
0.000305319
0.00035375
0.000406768
3.30514e-05
-0.000105513
4.33202e-05
-9.36495e-05
5.56986e-05
-7.80814e-05
7.0464e-05
-5.85853e-05
8.79171e-05
-3.49103e-05
0.000108383
-6.78299e-06
0.000132212
2.60756e-05
0.00015979
6.39104e-05
0.000191557
0.000106836
0.000228056
0.000154605
0.000270011
0.000205972
0.000318329
0.000257001
0.000298285
0.000373794
2.12553e-05
-0.000119893
2.87569e-05
-0.000113015
3.79474e-05
-0.00010284
4.90626e-05
-8.91966e-05
6.23618e-05
-7.18844e-05
7.8129e-05
-5.06775e-05
9.6677e-05
-2.5331e-05
0.000118353
4.39985e-06
0.00014355
3.87129e-05
0.000172736
7.76498e-05
0.000206495
0.000120846
0.000245585
0.000166882
0.000290862
0.000211724
0.000246272
0.000342875
1.81054e-05
-0.000125212
2.47632e-05
-0.000119672
3.29587e-05
-0.000111035
4.29114e-05
-9.91493e-05
5.48643e-05
-8.38374e-05
6.90877e-05
-6.49009e-05
8.58837e-05
-4.2127e-05
0.000105596
-1.53122e-05
0.000128624
1.56848e-05
0.000155451
5.08227e-05
0.000186682
8.96146e-05
0.000223072
0.000130492
0.000265384
0.000169413
0.00019775
0.000313906
1.05055e-05
-0.000131398
1.5168e-05
-0.000129875
2.10462e-05
-0.000125551
2.8325e-05
-0.000118314
3.72095e-05
-0.000108034
4.79293e-05
-9.45572e-05
6.07422e-05
-7.77137e-05
7.59413e-05
-5.73262e-05
9.3866e-05
-3.32369e-05
0.000114918
-5.36736e-06
0.000139587
2.61537e-05
0.000168478
6.07238e-05
0.00020231
9.66603e-05
0.000241727
0.000129995
0.000152709
0.000286768
8.36984e-06
-0.000134504
1.2424e-05
-0.000133929
1.7582e-05
-0.000130709
2.40167e-05
-0.000124749
3.1921e-05
-0.000115938
4.15124e-05
-0.000104149
5.30381e-05
-8.92394e-05
6.67829e-05
-7.1071e-05
8.30807e-05
-4.95347e-05
0.000102331
-2.46175e-05
0.000125019
3.46606e-06
0.000151731
3.4011e-05
0.00018313
6.5262e-05
0.000219726
9.33987e-05
0.000111098
0.000261338
6.36434e-06
-0.000137137
9.85437e-06
-0.000137419
1.43469e-05
-0.000135201
2.00043e-05
-0.000130406
2.70089e-05
-0.000122943
3.55678e-05
-0.000112707
4.59187e-05
-9.95903e-05
5.83381e-05
-8.34904e-05
7.31528e-05
-6.43493e-05
9.07545e-05
-4.22191e-05
0.000111615
-1.73944e-05
0.000136289
9.33642e-06
0.000165364
3.61872e-05
0.000199218
5.95448e-05
7.28303e-05
0.000237486
2.28223e-06
-0.000135966
4.47462e-06
-0.00013933
7.44074e-06
-0.000140385
1.13176e-05
-0.000139078
1.62583e-05
-0.000135347
2.24363e-05
-0.000129121
3.00494e-05
-0.000120321
3.93264e-05
-0.000108867
5.0535e-05
-9.46991e-05
6.3993e-05
-7.78073e-05
8.00796e-05
-5.83058e-05
9.92449e-05
-3.65597e-05
0.000122001
-1.34195e-05
0.000148851
9.33749e-06
0.000180046
2.83497e-05
3.7795e-05
0.000215081
9.0642e-07
-0.000137165
2.6869e-06
-0.00014111
5.16539e-06
-0.000142863
8.47133e-06
-0.000142384
1.27501e-05
-0.000139626
1.8167e-05