/*--------------------------------*- C++ -*----------------------------------*\
  =========                 |
  \\      /  F ield         | OpenFOAM: The Open Source CFD Toolbox
   \\    /   O peration     | Website:  https://openfoam.org
    \\  /    A nd           | Version:  7
     \\/     M anipulation  |
\*---------------------------------------------------------------------------*/
FoamFile
{
    version     2.0;
    format      ascii;
    class       surfaceScalarField;
    location    "180";
    object      phi;
}
// * * * * * * * * * * * * * * * * * * * * * * * * * * * * * * * * * * * * * //

dimensions      [0 3 -1 0 0 0 0];

internalField   nonuniform List<scalar> 
8882
(
6.75502e-06
-6.13513e-05
2.72263e-05
-0.000229213
-0.000447419
7.05597e-06
-6.84073e-05
2.82425e-05
-0.0002504
6.38538e-05
-0.00048303
0.000113444
-0.000763376
-0.00108434
7.34813e-06
-7.57554e-05
2.92099e-05
-0.000272262
6.56569e-05
-0.000519477
0.000115957
-0.000813676
0.000178238
-0.00114662
0.000249399
-0.00150565
0.000325346
-0.00187497
-0.00223777
7.62968e-06
-8.33851e-05
3.01219e-05
-0.000294754
6.7311e-05
-0.000556666
0.000118167
-0.000864532
0.000180489
-0.00120894
0.000250874
-0.00157604
0.000325041
-0.00194913
0.000398458
-0.00231119
0.000467072
-0.00264764
0.000527912
-0.00294862
0.000579386
-0.00320991
-0.00343259
7.89884e-06
-9.12839e-05
3.09723e-05
-0.000317827
6.88039e-05
-0.000594498
0.000120059
-0.000915788
0.000182211
-0.00127109
0.000251582
-0.00164541
0.000323742
-0.00202129
0.000394189
-0.00238163
0.000459077
-0.00271253
0.000515755
-0.0030053
0.00056298
-0.00325714
0.000600802
-0.00347041
0.00063022
-0.00365108
0.000652761
-0.0038069
-0.0039458
8.15384e-06
-9.94378e-05
3.1755e-05
-0.000341429
7.01246e-05
-0.000632868
0.000121619
-0.000967281
0.000183394
-0.00133287
0.000251524
-0.00171354
0.000321471
-0.00209124
0.000388807
-0.00244897
0.00044992
-0.00277364
0.000502485
-0.00305786
0.000545593
-0.00330025
0.000579563
-0.00350438
0.000605559
-0.00367708
0.000625167
-0.00382651
0.000640022
-0.00396066
0.000651565
-0.00408631
0.00066092
-0.00420865
0.000668873
-0.00433114
-0.00445578
8.39295e-06
-0.000107831
3.24644e-05
-0.0003655
7.12633e-05
-0.000671667
0.000122834
-0.00101885
0.000184031
-0.00139406
0.000250708
-0.00178021
0.00031826
-0.00215879
0.000382371
-0.00251308
0.000439685
-0.00283095
0.000488206
-0.00310638
0.00052734
-0.00333938
0.000557643
-0.00353468
0.000580413
-0.00369985
0.000597267
-0.00384336
0.000609794
-0.00397318
0.000619349
-0.00409587
0.000626956
-0.00421626
0.000633312
-0.0043375
0.000638848
-0.00446132
-0.00458835
0.000643746
8.61449e-06
-0.000116445
3.30953e-05
-0.000389981
7.22115e-05
-0.000710783
0.000123697
-0.00107034
0.000184121
-0.00145449
0.000249146
-0.00184524
0.000314144
-0.00222379
0.000374943
-0.00257388
0.00042846
-0.00288447
0.000473023
-0.00315095
0.00050833
-0.00337469
0.000535146
-0.0035615
0.000554874
-0.00371957
0.000569136
-0.00385763
0.000579464
-0.00398351
0.000587122
-0.00410353
0.000593039
-0.00422217
0.000597829
-0.00434229
0.000601859
-0.00446535
-0.00459177
0.000605276
8.81691e-06
-0.000125262
3.3643e-05
-0.000414807
7.29622e-05
-0.000750102
0.000124203
-0.00112158
0.000183665
-0.00151395
0.000246859
-0.00190843
0.000309166
-0.0022861
0.000366588
-0.0026313
0.00041633
-0.00293421
0.000457034
-0.00319165
0.000488666
-0.00340632
0.000512171
-0.003585
0.000529025
-0.00373643
0.000540841
-0.00386944
0.000549083
-0.00399176
0.000554921
-0.00410936
0.000559194
-0.00422645
0.000562441
-0.00434554
0.000564974
-0.00446788
-0.0045937
0.000566906
8.99876e-06
-0.000134261
3.41036e-05
-0.000439912
7.35098e-05
-0.000789508
0.000124347
-0.00117242
0.00018267
-0.00157227
0.000243868
-0.00196963
0.000303369
-0.0023456
0.000357375
-0.00268531
0.000403382
-0.00298022
0.000440333
-0.0032286
0.000468443
-0.00343443
0.000488803
-0.00360536
0.000502941
-0.00375057
0.000512442
-0.00387894
0.000518695
-0.00399801
0.000522777
-0.00411345
0.000525443
-0.00422911
0.000527164
-0.00434726
0.000528204
-0.00446892
-0.00459414
0.000528649
9.15872e-06
-0.00014342
3.44735e-05
-0.000465226
7.38503e-05
-0.000828885
0.00012413
-0.0012227
0.000181146
-0.00162929
0.000240202
-0.00202869
0.000296802
-0.0024022
0.000347371
-0.00273588
0.000389697
-0.00302255
0.000423012
-0.00326192
0.000447748
-0.00345916
0.000465121
-0.00362273
0.000476688
-0.00376213
0.00048399
-0.00388625
0.000488336
-0.00400235
0.000490717
-0.00411583
0.000491806
-0.0042302
0.000492013
-0.00434747
0.000491562
-0.00446847
-0.0045931
0.000490514
9.29562e-06
-0.000152715
3.475e-05
-0.000490681
7.39812e-05
-0.000868116
0.000123554
-0.00127227
0.000179107
-0.00168484
0.000235889
-0.00208547
0.000289515
-0.00245582
0.000336644
-0.00278301
0.000375357
-0.00306126
0.000405155
-0.00329171
0.000426664
-0.00348067
0.000441198
-0.00363727
0.000450323
-0.00377126
0.000455529
-0.00389145
0.000458041
-0.00400487
0.000458764
-0.00411655
0.000458298
-0.00422973
0.000457
-0.00434617
0.000455057
-0.00446653
-0.00459055
0.000452513
9.40963e-06
-0.000162125
3.49334e-05
-0.000516205
7.39051e-05
-0.000907088
0.000122629
-0.00132099
0.000176575
-0.00173879
0.00023097
-0.00213987
0.000281566
-0.00250642
0.000325269
-0.00282671
0.000360446
-0.00309644
0.000386847
-0.00331811
0.000405271
-0.0034991
0.000417104
-0.0036491
0.000423906
-0.00377806
0.000427106
-0.00389465
0.000427845
-0.00400561
0.000426946
-0.00411565
0.000424943
-0.00422773
0.000422145
-0.00434337
0.000418708
-0.00446309
-0.0045865
0.000414661
9.49767e-06
-0.000171623
3.50174e-05
-0.000541724
7.36152e-05
-0.000945686
0.000121352
-0.00136873
0.000173557
-0.00179099
0.000225468
-0.00219178
0.000272993
-0.00255395
0.000313297
-0.00286701
0.00034502
-0.00312816
0.000368147
-0.00334124
0.000383621
-0.00351457
0.000392881
-0.00365836
0.000397467
-0.00378265
0.000398739
-0.00389592
0.000397758
-0.00400463
0.000395266
-0.00411316
0.000391738
-0.0042242
0.000387443
-0.00433907
0.00038251
-0.00445816
-0.00458095
0.000376956
9.56017e-06
-0.000181183
3.50035e-05
-0.000567168
7.31168e-05
-0.000983799
0.000119737
-0.00141535
0.00017008
-0.00184133
0.000219424
-0.00224112
0.000263856
-0.00259838
0.000300797
-0.00290395
0.000329158
-0.00315652
0.000349131
-0.00336121
0.000361782
-0.00352722
0.000368588
-0.00366517
0.000371053
-0.00378511
0.000370467
-0.00389534
0.000367808
-0.00400197
0.000363748
-0.0041091
0.000358704
-0.00421916
0.000352912
-0.00433328
0.000346479
-0.00445172
-0.00457388
0.000339413
9.59659e-06
-0.000190779
3.48915e-05
-0.000592463
7.24128e-05
-0.00102132
0.000117794
-0.00146073
0.000166168
-0.00188971
0.000212877
-0.00228783
0.000254204
-0.0026397
0.000287832
-0.00293758
0.000312922
-0.00318161
0.000329859
-0.00337815
0.00033981
-0.00353717
0.00034427
-0.00366963
0.000344699
-0.00378554
0.000342314
-0.00389295
0.000338015
-0.00399767
0.000332404
-0.00410349
0.000325852
-0.00421261
0.000318562
-0.00432599
0.000310624
-0.00444379
-0.0045653
0.000302042
9.60655e-06
-0.000200386
3.46817e-05
-0.000617538
7.15072e-05
-0.00105815
0.000115536
-0.00150476
0.000161843
-0.00193602
0.000205865
-0.00233185
0.00024409
-0.00267793
0.000274459
-0.00296795
0.000296375
-0.00320353
0.00031039
-0.00339217
0.000317755
-0.00354454
0.000319967
-0.00367184
0.000318436
-0.00378401
0.000314304
-0.00388882
0.000308395
-0.00399176
0.000301248
-0.00409634
0.000293192
-0.00420455
0.000284402
-0.0043172
0.000274955
-0.00443434
-0.0045552
0.000264851
9.58982e-06
-0.000209976
3.4375e-05
-0.000642323
7.04053e-05
-0.00109418
0.000112975
-0.00154733
0.000157133
-0.00198017
0.000198425
-0.00237314
0.000233561
-0.00271306
0.000260734
-0.00299513
0.000279571
-0.00322236
0.000290775
-0.00340337
0.00029566
-0.00354942
0.000295714
-0.00367189
0.000292291
-0.00378059
0.000286457
-0.00388299
0.000278963
-0.00398426
0.000270292
-0.00408767
0.000260733
-0.00419499
0.00025044
-0.00430691
0.000239479
-0.00442338
-0.00454357
0.000227851
9.54636e-06
-0.000219522
3.39728e-05
-0.00066675
6.91131e-05
-0.00112932
0.000110128
-0.00158835
0.000152062
-0.00202211
0.000190597
-0.00241168
0.000222665
-0.00274513
0.000246709
-0.00301917
0.000262563
-0.00323822
0.000271062
-0.00341187
0.000273566
-0.00355193
0.000271544
-0.00366987
0.000266288
-0.00377533
0.00025879
-0.00387549
0.000249733
-0.00397521
0.000239546
-0.00407748
0.000228486
-0.00418393
0.000216686
-0.00429511
0.000204204
-0.0044109
-0.00453042
0.00019105
9.47626e-06
-0.000228998
3.34771e-05
-0.00069075
6.76377e-05
-0.00116348
0.000107009
-0.00162772
0.000146657
-0.00206176
0.000182416
-0.00244744
0.000211447
-0.00277416
0.000232433
-0.00304016
0.000245399
-0.00325118
0.000251293
-0.00341776
0.000251508
-0.00355214
0.000247484
-0.00366585
0.000240448
-0.0037683
0.00023132
-0.00386636
0.000220716
-0.0039646
0.000209021
-0.00406579
0.000196458
-0.00417137
0.000183147
-0.0042818
0.000169139
-0.00439689
-0.00451573
0.000154451
9.37976e-06
-0.000238378
3.28903e-05
-0.000714261
6.59866e-05
-0.00119657
0.000103634
-0.00166536
0.000140946
-0.00209907
0.00017392
-0.00248041
0.00019995
-0.00280019
0.000217951
-0.00305816
0.000228122
-0.00326135
0.000231506
-0.00342115
0.000229518
-0.00355015
0.000223558
-0.00365989
0.000214789
-0.00375953
0.000204059
-0.00385563
0.000191925
-0.00395247
0.000178727
-0.00405259
0.00016466
-0.0041573
0.00014983
-0.00426697
0.000134291
-0.00438135
-0.00449949
0.000118057
9.25724e-06
-0.000247635
3.22151e-05
-0.000737219
6.41681e-05
-0.00122853
0.00010002
-0.00170122
0.000134953
-0.002134
0.000165143
-0.0025106
0.000188216
-0.00282327
0.000203306
-0.00307325
0.000210772
-0.00326882
0.000211738
-0.00342211
0.000207624
-0.00354604
0.000199788
-0.00365205
0.000189328
-0.00374907
0.000177022
-0.00384332
0.00016337
-0.00393882
0.000148672
-0.00403789
0.000133099
-0.00414173
0.000116745
-0.00425062
9.96673e-05
-0.00436427
-0.00448169
8.18636e-05
9.10918e-06
-0.000256744
3.14547e-05
-0.000759564
6.2191e-05
-0.00125926
9.61845e-05
-0.00173521
0.000128706
-0.00216652
0.00015612
-0.00253802
0.000176283
-0.00284343
0.000188537
-0.0030855
0.000193386
-0.00327367
0.000192018
-0.00342075
0.000185851
-0.00353987
0.000176195
-0.00364239
0.000164079
-0.00373695
0.000150219
-0.00382946
0.000135061
-0.00392366
0.000118868
-0.0040217
0.00010179
-0.00412465
8.39077e-05
-0.00423273
6.52661e-05
-0.00434563
-0.00446228
4.58604e-05
8.93619e-06
-0.000265681
3.06125e-05
-0.00078124
6.00644e-05
-0.00128871
9.21439e-05
-0.00176729
0.000122229
-0.00219661
0.000146882
-0.00256267
0.000164187
-0.00286073
0.000173681
-0.003095
0.000175997
-0.00327598
0.000172375
-0.00341712
0.000164221
-0.00353172
0.000152793
-0.00363097
0.000139056
-0.00372321
0.000123661
-0.00381407
0.000107006
-0.003907
8.93241e-05
-0.00400402
7.07473e-05
-0.00410607
5.1354e-05
-0.00421334
3.10951e-05
-0.00432537
-0.00444094
9.74913e-06
8.739e-06
-0.00027442
2.96922e-05
-0.000802194
5.77975e-05
-0.00131682
8.79152e-05
-0.00179741
0.000115548
-0.00222424
0.000137462
-0.00258458
0.000151962
-0.00287523
0.000158771
-0.0031018
0.000158635
-0.00327585
0.000152834
-0.00341132
0.000142754
-0.00352164
0.0001296
-0.00361781
0.000114269
-0.00370788
9.73564e-05
-0.00379716
7.92147e-05
-0.00388886
6.00456e-05
-0.00398485
3.99705e-05
-0.004086
1.90954e-05
-0.00419246
-2.40985e-06
-0.00430387
-0.00441807
-2.52804e-05
8.51838e-06
-0.000282938
2.86978e-05
-0.000822373
5.54e-05
-0.00134352
8.35154e-05
-0.00182552
0.000108686
-0.00224941
0.000127887
-0.00260378
0.000139639
-0.00288699
0.000143837
-0.003106
0.000141327
-0.00327334
0.000133417
-0.00340341
0.000121468
-0.00350969
0.000106627
-0.00360297
8.973e-05
-0.00369099
7.13149e-05
-0.00377874
5.16937e-05
-0.00386924
3.1041e-05
-0.0039642
9.46558e-06
-0.00406442
-1.29476e-05
-0.00417005
-3.62448e-05
-0.00428057
-0.00439412
-6.01887e-05
8.27523e-06
-0.000291213
2.76332e-05
-0.000841731
5.28814e-05
-0.00136877
7.89611e-05
-0.0018516
0.000101667
-0.00227212
0.000118187
-0.0026203
0.000127249
-0.00289605
0.000128908
-0.00310766
0.000124097
-0.00326853
0.000114145
-0.00339346
0.000100378
-0.00349592
8.38864e-05
-0.00358648
6.54471e-05
-0.00367255
4.55442e-05
-0.00375884
2.44513e-05
-0.00384815
2.31774e-06
-0.00394206
-2.07547e-05
-0.00404135
-4.46938e-05
-0.00414611
-6.9484e-05
-0.00425578
-0.00436863
-9.4978e-05
8.0105e-06
-0.000299224
2.65028e-05
-0.000860223
5.02515e-05
-0.00139252
7.42683e-05
-0.00187562
9.45135e-05
-0.00229236
0.000108386
-0.00263418
0.000114817
-0.00290248
0.000114008
-0.00310685
0.000106969
-0.00326149
9.50347e-05
-0.00338153
7.94966e-05
-0.00348038
6.13892e-05
-0.00356837
4.14289e-05
-0.00365259
2.00513e-05
-0.00373746
-2.50679e-06
-0.00382559
-2.61133e-05
-0.00391846
-5.06855e-05
-0.00401678
-7.61464e-05
-0.00412065
-0.000102443
-0.00422948
-0.00434156
-0.00012951
7.72517e-06
-0.000306949
2.53107e-05
-0.000877809
4.75198e-05
-0.00141473
6.94528e-05
-0.00189755
8.72456e-05
-0.00231015
9.85095e-05
-0.00264544
0.00010237
-0.00290634
9.91624e-05
-0.00310365
8.99608e-05
-0.00325228
7.61021e-05
-0.00336767
5.88374e-05
-0.00346312
3.91444e-05
-0.00354868
1.76832e-05
-0.00363113
-5.15674e-06
-0.00371462
-2.91687e-05
-0.00380158
-5.42484e-05
-0.00389338
-8.03181e-05
-0.00399071
-0.000107299
-0.00409367
-0.00013512
-0.00420166
-0.00431293
-0.000163751
7.42031e-06
-0.000314369
2.40614e-05
-0.00089445
4.46958e-05
-0.00143536
6.45299e-05
-0.00191739
7.98838e-05
-0.00232551
8.858e-05
-0.00265414
8.9929e-05
-0.00290769
8.43905e-05
-0.00309811
7.30907e-05
-0.00324099
5.73611e-05
-0.00335194
3.84105e-05
-0.00344417
1.71602e-05
-0.00352743
-5.7834e-06
-0.00360818
-3.00718e-05
-0.00369033
-5.55326e-05
-0.00377612
-8.20789e-05
-0.00386683
-0.000109644
-0.00396314
-0.000138144
-0.00406517
-0.0001675
-0.0041723
-0.00428275
-0.000197686
7.097e-06
-0.000321466
2.27592e-05
-0.000910112
4.17887e-05
-0.00145439
5.95142e-05
-0.00193511
7.2447e-05
-0.00233844
7.86188e-05
-0.00266031
7.75165e-05
-0.00290659
6.97117e-05
-0.0030903
5.63745e-05
-0.00322765
3.88243e-05
-0.00333439
1.82255e-05
-0.00342357
-4.55629e-06
-0.00350465
-2.89633e-05
-0.00358378
-5.46898e-05
-0.0036646
-8.15901e-05
-0.00374922
-0.000109597
-0.00383882
-0.000138654
-0.00393409
-0.000168675
-0.00403515
-0.000199569
-0.00414141
-0.000231304
6.75635e-06
-0.000328223
2.14085e-05
-0.000924764
3.88077e-05
-0.00147179
5.44197e-05
-0.00195072
6.4953e-05
-0.00234897
6.86454e-05
-0.002664
6.51512e-05
-0.00290309
5.51433e-05
-0.00308029
3.98263e-05
-0.00321233
2.05025e-05
-0.00331507
-1.71018e-06
-0.00340136
-2.59971e-05
-0.00348036
-5.18521e-05
-0.00355792
-7.90042e-05
-0.00363745
-0.000107335
-0.00372089
-0.000136795
-0.00380936
-0.000167339
-0.00390354
-0.00019888
-0.00400361
6.3995e-06
-0.000334622
2.00135e-05
-0.000938378
3.57615e-05
-0.00148754
4.92598e-05
-0.00196422
5.74188e-05
-0.00235713
5.86781e-05
-0.00266526
5.28508e-05
-0.00289727
4.07007e-05
-0.00306814
2.34586e-05
-0.00319509
2.40551e-06
-0.00329401
-2.13867e-05
-0.00337756
-4.71578e-05
-0.00345459
-7.44441e-05
-0.00353063
-0.00010301
-0.00360889
-0.00013276
-0.00369114
-0.000163666
-0.00377846
-0.000195691
6.02761e-06
-0.00034065
1.85785e-05
-0.000950929
3.26588e-05
-0.00150162
4.40474e-05
-0.00197561
4.986e-05
-0.00236295
4.87335e-05
-0.00266413
4.06315e-05
-0.00288916
2.63977e-05
-0.00305391
7.28271e-06
-0.00317597
-1.54581e-05
-0.00327127
-4.08e-05
-0.00335222
-6.80326e-05
-0.00342736
-9.67345e-05
-0.00350193
-0.000126701
-0.00357892
-0.00015786
-0.00365998
5.64182e-06
-0.000346292
1.71078e-05
-0.000962395
2.95078e-05
-0.00151402
3.87946e-05
-0.0019849
4.22913e-05
-0.00236644
3.88272e-05
-0.00266067
2.85077e-05
-0.00287884
1.22469e-05
-0.00303765
-8.69152e-06
-0.00315504
-3.30808e-05
-0.00324688
-5.99435e-05
-0.00332536
-8.86168e-05
-0.00339868
-0.000118719
-0.00347183
-0.000150073
-0.00354757
5.24334e-06
-0.000351535
1.56054e-05
-0.000972757
2.63165e-05
-0.00152473
3.35128e-05
-0.00199209
3.47264e-05
-0.00236766
2.89738e-05
-0.00265492
1.64925e-05
-0.00286636
-1.73832e-06
-0.00301942
-2.44551e-05
-0.00313232
-5.04562e-05
-0.00322088
-7.88121e-05
-0.003297
-0.000108906
-0.00336859
-0.000140393
-0.00344034
4.83339e-06
-0.000356368
1.40755e-05
-0.000981999
2.30927e-05
-0.00153375
2.82133e-05
-0.00199721
2.71782e-05
-0.00236662
1.91854e-05
-0.00264692
4.59987e-06
-0.00285178
-1.55542e-05
-0.00299926
-4.00008e-05
-0.00310787
-6.75781e-05
-0.0031933
-9.74012e-05
-0.00326718
-0.000128897
-0.00333709
4.41323e-06
-0.000360781
1.25219e-05
-0.000990108
1.98435e-05
-0.00154107
2.29067e-05
-0.00200028
1.96617e-05
-0.00236338
9.46826e-06
-0.00263673
-7.1623e-06
-0.00283515
-2.91851e-05
-0.00297724
-5.53213e-05
-0.00308174
-8.44416e-05
-0.00316418
-0.000115707
-0.00323591
3.98429e-06
-0.000364766
1.09485e-05
-0.000997072
1.65753e-05
-0.0015467
1.76009e-05
-0.0020013
1.21919e-05
-0.00235797
-5.85197e-08
-0.00262448
-1.87737e-05
-0.00281643
-4.26274e-05
-0.00295339
-7.04112e-05
-0.00305395
-0.000101042
-0.00313355
3.54784e-06
-0.000368314
9.35896e-06
-0.00100288
1.32949e-05
-0.00155063
1.23055e-05
-0.00200031
4.7577e-06
-0.00235042
-9.67591e-06
-0.00261005
-3.02542e-05
-0.00279585
-5.58732e-05
-0.00292777
-8.52651e-05
-0.00302456
3.1046e-06
-0.000371418
7.75681e-06
-0.00100754
1.00095e-05
-0.00155288
7.02895e-06
-0.00199733
-2.60942e-06
-0.00234078
-1.90815e-05
-0.00259357
-4.15716e-05
-0.00277336
-6.89156e-05
-0.00290042
2.6561e-06
-0.000374074
6.14545e-06
-0.00101102
6.72523e-06
-0.00155346
1.79486e-06
-0.0019924
-9.9245e-06
-0.00232906
-2.83772e-05
-0.00257512
-5.27217e-05
-0.00274902
2.20378e-06
-0.000376278
4.52986e-06
-0.00101335
3.44182e-06
-0.00155238
-3.43298e-06
-0.00198553
-1.71541e-05
-0.00231534
-3.75508e-05
-0.00255472
1.74778e-06
-0.000378026
2.91536e-06
-0.00101452
2.29399e-07
-0.00154969
-8.60913e-06
-0.00197669
-2.43016e-05
-0.00229965
1.28754e-06
-0.000379313
1.28891e-06
-0.00101452
-3.08304e-06
-0.00154532
-1.37438e-05
-0.00196603
-0.00228203
8.20656e-07
-0.000380134
-3.34622e-07
-0.00101336
-6.31686e-06
-0.00153934
-1.88228e-05
-0.00195352
3.17359e-07
-0.000380451
-1.95793e-06
-0.00101109
-9.52591e-06
-0.00153177
-1.80068e-07
-0.000380271
-3.57309e-06
-0.0010077
-0.00152264
-6.05072e-07
-0.000379666
-5.16921e-06
-0.00100313
-1.0608e-06
-0.000378606
-0.000377082
0.00034454
0.000345758
-7.59538e-07
0.000346518
0.000919712
-3.20469e-07
0.000346838
-3.93357e-06
0.000923325
0.00140163
1.26212e-07
0.000346712
-2.33382e-06
0.000925785
0.00140923
6.43147e-07
0.000346069
-7.20661e-07
0.000927149
-6.73068e-06
0.00141524
0.00180515
1.10626e-06
0.000344962
8.90373e-07
0.000927365
-3.51163e-06
0.00141964
-1.39264e-05
0.00181556
0.00211825
1.56079e-06
0.000343402
2.50124e-06
0.000926425
-2.31027e-07
0.00142237
-8.80039e-06
0.00182413
-2.39595e-05
0.0021334
0.00236093
2.01068e-06
0.000341391
4.10104e-06
0.000924334
2.97586e-06
0.0014235
-3.63714e-06
0.00183075
-1.68001e-05
0.00214657
0.00238057
2.45619e-06
0.000338935
5.69846e-06
0.000921092
6.23321e-06
0.00142296
1.57175e-06
0.00183541
-9.56421e-06
0.0021577
-2.72175e-05
0.00239822
0.00257204
2.89694e-06
0.000336038
7.28871e-06
0.0009167
9.48826e-06
0.00142076
6.78522e-06
0.00183811
-2.25103e-06
0.00216674
-1.78804e-05
0.00241385
-3.94308e-05
0.00259359
0.00272334
3.33144e-06
0.000332706
8.86703e-06
0.000911165
1.27392e-05
0.00141689
1.20306e-05
0.00183882
5.10453e-06
0.00217367
-8.43654e-06
0.00242739
-2.80349e-05
0.00261319
-5.26405e-05
0.00274794
0.00284841
3.75892e-06
0.000328947
1.04299e-05
0.000904494
1.59793e-05
0.00141134
1.72873e-05
0.00183751
1.25165e-05
0.00217844
1.12263e-06
0.00243879
-1.64874e-05
0.0026308
-3.92636e-05
0.00277072
-6.6032e-05
0.00287517
0.00295843
4.17801e-06
0.000324769
1.19736e-05
0.000896698
1.92015e-05
0.00140411
2.25463e-05
0.00183417
1.99672e-05
0.00218102
1.07396e-05
0.00244802
-4.80021e-06
0.00264634
-2.56954e-05
0.00279162
-5.07566e-05
0.00290024
-7.88921e-05
0.00298656
0.00306151
4.58717e-06
0.000320182
1.3494e-05
0.000887791
2.23983e-05
0.00139521
2.77971e-05
0.00182877
2.74469e-05
0.00218137
2.04497e-05
0.00245501
7.01714e-06
0.00265978
-1.19452e-05
0.00281058
-3.52543e-05
0.00292355
-6.17882e-05
0.0030131
-9.06658e-05
0.00309038
0.00316304
4.98502e-06
0.000315197
1.4987e-05
0.000877789
2.55624e-05
0.00138463
3.30293e-05
0.0018213
3.49427e-05
0.00217945
3.02234e-05
0.00245973
1.89543e-05
0.00267104
1.97951e-06
0.00282755
-1.95328e-05
0.00294506
-4.44281e-05
0.00303799
-7.17823e-05
0.00311774
-0.000100963
0.00319222
0.00326639
5.3703e-06
0.000309827
1.64485e-05
0.000866711
2.86858e-05
0.00137239
3.82315e-05
0.00181176
4.24405e-05
0.00217524
4.00475e-05
0.00246212
3.09984e-05
0.00268009
1.60632e-05
0.00284249
-3.6009e-06
0.00296472
-2.68185e-05
0.00306121
-5.26197e-05
0.00314354
-8.03259e-05
0.00321993
-0.000109534
0.00329559
0.00337359
5.74177e-06
0.000304085
1.78743e-05
0.000854579
3.17605e-05
0.00135851
4.33918e-05
0.00180012
4.9926e-05
0.00216871
4.99069e-05
0.00246214
4.31349e-05
0.00268687
3.02982e-05
0.00285533
1.25317e-05
0.00298249
-8.96707e-06
0.00308271
-3.31841e-05
0.00316776
-5.93926e-05
0.00324614
-8.7148e-05
0.00332335
-0.000116226
0.00340266
0.00348597
6.09825e-06
0.000297987
1.926e-05
0.000841417
3.47779e-05
0.00134299
4.84977e-05
0.0017864
5.73837e-05
0.00215982
5.97852e-05
0.00245974
5.53482e-05
0.0026913
4.46693e-05
0.002866
2.8854e-05
0.0029983
9.11774e-06
0.00310244
-1.34821e-05
0.00319036
-3.81686e-05
0.00327082
-6.44532e-05
0.00334963
-9.2078e-05
0.00343029
-0.000120937
0.00351483
0.0036045
6.43853e-06
0.000291548
2.06012e-05
0.000827254
3.77292e-05
0.00132586
5.35359e-05
0.0017706
6.47972e-05
0.00214856
6.96646e-05
0.00245488
6.76209e-05
0.00269335
5.91613e-05
0.00287446
4.53535e-05
0.00301211
2.74261e-05
0.00312037
6.47872e-06
0.0032113
-1.66601e-05
0.00329396
-4.1455e-05
0.00337443
-6.76111e-05
0.00345644
-9.49944e-05
0.00354221
-0.000123551
0.00363305
-0.000153237
0.00372973
0.00383244
6.76149e-06
0.000284787
2.18936e-05
0.000812122
4.06052e-05
0.00130715
5.84926e-05
0.00175271
7.21491e-05
0.0021349
7.95257e-05
0.0024475
7.99343e-05
0.00269294
7.37574e-05
0.00288064
6.20162e-05
0.00302385
4.59469e-05
0.00313644
2.66899e-05
0.00323056
5.12558e-06
0.00331553
-1.81597e-05
0.00339771
-4.28317e-05
0.00348112
-6.87269e-05
0.00356811
-9.57703e-05
0.0036601
-0.000123904
0.00375786
-0.000153047
0.00386158
0.00397071
7.06597e-06
0.000277721
2.31327e-05
0.000796055
4.33969e-05
0.00128689
6.33532e-05
0.00173275
7.94205e-05
0.00211884
8.9348e-05
0.00243757
9.22676e-05
0.00269002
8.84388e-05
0.00288447
7.88265e-05
0.00303346
6.46678e-05
0.0031506
4.71414e-05
0.00324809
2.71815e-05
0.00333549
5.42578e-06
0.00341947
-1.77469e-05
0.00350429
-4.2142e-05
0.0035925
-6.76624e-05
0.00368562
-9.42388e-05
0.00378444
-0.000121791
0.00388914
-0.000150242
0.00399916
0.0041128
-0.000179572
7.35087e-06
0.00027037
2.43141e-05
0.000779092
4.60945e-05
0.00126511
6.81026e-05
0.00171075
8.6592e-05
0.00210035
9.9109e-05
0.00242505
0.000104598
0.00268453
0.000103185
0.00288588
9.57667e-05
0.00304088
8.35746e-05
0.00316279
6.78224e-05
0.00326384
4.94981e-05
0.00335381
2.92947e-05
0.00343967
7.63597e-06
0.00352595
-1.52476e-05
0.00361539
-3.92365e-05
0.00370961
-6.42499e-05
0.00380945
-9.02102e-05
0.0039151
-0.000117052
0.004026
0.00414049
-0.000144747
7.61514e-06
0.000262755
2.54333e-05
0.000761274
4.86885e-05
0.00124185
7.27254e-05
0.00168671
9.36425e-05
0.00207943
0.000108785
0.00240991
0.000116902
0.00267641
0.000117973
0.00288481
0.000112817
0.00304604
0.000102651
0.00317296
8.87203e-05
0.00327777
7.20656e-05
0.00337047
5.34377e-05
0.0034583
3.33098e-05
0.00354608
1.19483e-05
0.00363675
-1.0502e-05
0.00373206
-3.39477e-05
0.00383289
-5.83145e-05
0.00393946
-8.35546e-05
0.00405124
0.00416654
-0.000109603
7.85775e-06
0.000254897
2.64861e-05
0.000742646
5.11691e-05
0.00121717
7.72052e-05
0.00166067
0.00010055
0.00205609
0.00011835
0.00239211
0.000129152
0.00266561
0.000132778
0.00288119
0.000129956
0.00304886
0.000121881
0.00318103
0.000109821
0.00328983
9.48729e-05
0.00338541
7.78457e-05
0.00347533
5.92651e-05
0.00356466
3.94374e-05
0.00365658
1.85325e-05
0.00375296
-3.34606e-06
0.00385477
-2.61134e-05
0.00396223
-4.9761e-05
0.00407489
0.00419094
-7.41639e-05
8.07775e-06
0.000246819
2.74681e-05
0.000723255
5.35266e-05
0.00119111
8.15255e-05
0.00163267
0.000107292
0.00203032
0.000127777
0.00237163
0.000141319
0.00265207
0.000147572
0.00287493
0.00014716
0.00304927
0.000141242
0.00318695
0.000131109
0.00329996
0.000117908
0.00339862
0.000102509
0.00349073
8.54932e-05
0.00358167
6.72105e-05
0.00367486
4.78587e-05
0.00377231
2.75562e-05
0.00387508
6.38044e-06
0.00398341
-1.56273e-05
0.0040969
0.00421382
-3.8505e-05
8.27427e-06
0.000238545
2.83753e-05
0.000703154
5.57511e-05
0.00116373
8.56695e-05
0.00160276
0.000113845
0.00200214
0.000137036
0.00234844
0.000153373
0.00263573
0.000162324
0.00286598
0.0001644
0.0030472
0.000160713
0.00319064
0.000152566
0.00330811
0.000141156
0.00341003
0.000127415
0.00350447
0.000111984
0.0035971
9.52584e-05
0.00369159
7.74664e-05
0.00379011
5.874e-05
0.0038938
3.91628e-05
0.00400298
1.86944e-05
0.00411736
0.00423584
-3.32616e-06
8.44652e-06
0.000230099
2.92038e-05
0.000682397
5.78332e-05
0.0011351
8.962e-05
0.00157097
0.000120183
0.00197158
0.000146098
0.00232252
0.000165279
0.00261655
0.000177003
0.00285426
0.000181648
0.00304255
0.000180268
0.00319202
0.000174172
0.00331421
0.000164601
0.0034196
0.000152553
0.00351652
0.000138728
0.00361093
0.000123571
0.00370674
0.000107347
0.00380633
9.02026e-05
0.00391095
7.22202e-05
0.00402097
5.34296e-05
0.00413616
0.0042555
3.37716e-05
8.59379e-06
0.000221505
2.99499e-05
0.000661041
5.97634e-05
0.00110529
9.33599e-05
0.00153737
0.000126281
0.00193866
0.00015493
0.00229387
0.000177002
0.00259448
0.000191572
0.00283969
0.00019887
0.00303525
0.000199879
0.00319101
0.000195904
0.00331818
0.000188226
0.00342727
0.000177907
0.00352684
0.000165711
0.00362312
0.000152139
0.00372031
0.000137491
0.00382098
0.000121939
0.0039265
0.000105575
0.00403733
8.84531e-05
0.00415328
0.0042734
7.05483e-05
8.71551e-06
0.000212789
3.06103e-05
0.000639146
6.15326e-05
0.00107437
9.6872e-05
0.00150203
0.000132114
0.00190342
0.000163499
0.00226249
0.000188504
0.00256947
0.000205991
0.0028222
0.00021603
0.00302522
0.000219515
0.00318752
0.000217736
0.00331996
0.000212011
0.003433
0.000203462
0.00353539
0.000192923
0.00363366
0.00018095
0.00373229
0.000167887
0.00383404
0.000153932
0.00394045
0.000139191
0.00405207
0.000123715
0.00416875
0.00428962
0.000107499
8.8112e-06
0.000203978
3.11819e-05
0.000616775
6.31323e-05
0.00104242
0.000100139
0.00146503
0.000137654
0.0018659
0.000171769
0.00222837
0.000199744
0.0025415
0.000220219
0.00280173
0.000233087
0.00301235
0.000239141
0.00318147
0.00023964
0.00331946
0.000235933
0.00343671
0.000229201
0.00354212
0.000220347
0.00364252
0.000209991
0.00374264
0.000198521
0.00384551
0.000186165
0.00395281
0.000173045
0.00406519
0.000159206
0.00418259
0.00430418
0.000144647
8.88053e-06
0.000195098
3.16619e-05
0.000593994
6.45544e-05
0.00100953
0.000103145
0.00142644
0.000142875
0.00182617
0.000179704
0.00219154
0.00021068
0.00251052
0.000234211
0.00277819
0.000249999
0.00299656
0.000258718
0.00317275
0.000261583
0.0033166
0.000259965
0.00343832
0.000255102
0.00354698
0.000247969
0.00364965
0.000239248
0.00375136
0.00022938
0.00385538
0.000218626
0.00396356
0.000207122
0.0040767
0.00019492
0.00419479
0.00431709
0.000182008
8.9233e-06
0.000186174
3.20483e-05
0.000570869
6.57914e-05
0.000975783
0.000105874
0.00138635
0.000147751
0.0017843
0.000187268
0.00215203
0.000221265
0.00247652
0.000247917
0.00275154
0.000266718
0.00297776
0.000278202
0.00316127
0.00028353
0.00331127
0.000284079
0.00343777
0.000281144
0.00354992
0.000275769
0.00365502
0.000268707
0.00375843
0.000260453
0.00386363
0.000251302
0.00397271
0.000241414
0.00408658
0.000230846
0.00420536
0.00432836
0.000219582
8.93946e-06
0.000177235
3.23392e-05
0.000547469
6.68368e-05
0.000941285
0.00010831
0.00134488
0.000152254