/*--------------------------------*- C++ -*----------------------------------*\
  =========                 |
  \\      /  F ield         | OpenFOAM: The Open Source CFD Toolbox
   \\    /   O peration     | Website:  https://openfoam.org
    \\  /    A nd           | Version:  7
     \\/     M anipulation  |
\*---------------------------------------------------------------------------*/
FoamFile
{
    version     2.0;
    format      ascii;
    class       volVectorField;
    location    "180";
    object      U;
}
// * * * * * * * * * * * * * * * * * * * * * * * * * * * * * * * * * * * * * //

dimensions      [0 1 -1 0 0 0 0];

internalField   nonuniform List<vector> 
4575
(
(0.033006 -0.0058896 3.86805e-20)
(0.12185 -0.0145106 4.05813e-20)
(0.233953 -0.0137757 1.51369e-19)
(0.0370447 -0.00596662 4.53192e-20)
(0.133599 -0.013949 1.65639e-19)
(0.252968 -0.0117045 1.30589e-19)
(0.39062 -0.00203748 3.64587e-20)
(0.540802 0.014342 3.39999e-19)
(0.0412662 -0.00592012 -2.04839e-19)
(0.145746 -0.0130218 -7.42028e-20)
(0.272436 -0.00905278 -2.42448e-19)
(0.416419 0.00281893 -1.32983e-19)
(0.57142 0.0215949 -6.85233e-20)
(0.729618 0.0456129 -2.1493e-19)
(0.882484 0.0725966 -1.3398e-19)
(1.02199 0.100058 2.39425e-19)
(0.045662 -0.00573927 6.74855e-20)
(0.158259 -0.0117052 -1.1247e-19)
(0.292294 -0.00579393 1.89781e-19)
(0.442461 0.00844451 8.84976e-20)
(0.601964 0.0297022 -1.26444e-19)
(0.762532 0.0559963 1.5493e-19)
(0.915413 0.0847706 3.85489e-20)
(1.0527 0.113361 -6.92914e-20)
(1.16855 0.139383 8.30752e-20)
(1.25998 0.16108 -6.44611e-20)
(1.32688 0.177508 -1.8118e-19)
(1.37155 0.18851 -1.78262e-20)
(0.0502225 -0.0054136 -3.35032e-20)
(0.171104 -0.00997709 1.82454e-20)
(0.312478 -0.00190466 -1.7265e-19)
(0.468647 0.0148546 1.10609e-19)
(0.632313 0.0386641 1.03042e-19)
(0.794798 0.0672131 -1.46325e-19)
(0.94721 0.0976768 6.7141e-20)
(1.08186 0.127242 -1.30194e-19)
(1.19344 0.153517 -1.84557e-19)
(1.27968 0.174862 6.64528e-20)
(1.34122 0.190519 1.21812e-20)
(1.38095 0.200534 1.02796e-19)
(1.403 0.205534 1.60091e-19)
(1.41186 0.206459 -7.69207e-21)
(1.41165 0.204323 2.7362e-20)
(0.0549362 -0.0049331 -3.74048e-20)
(0.18424 -0.00781705 -4.68931e-20)
(0.332916 0.0026349 1.82374e-19)
(0.494879 0.0220596 -2.26819e-20)
(0.662346 0.0484752 1.03622e-21)
(0.826293 0.0792404 -9.91014e-20)
(0.977774 0.111278 -1.75442e-20)
(1.1094 0.141656 6.98421e-20)
(1.21648 0.168013 2.37846e-19)
(1.2975 0.188856 -7.60469e-20)
(1.3538 0.203632 1.30167e-20)
(1.38881 0.212592 4.11449e-20)
(1.40698 0.216529 -8.00145e-20)
(1.4129 0.216489 -5.15062e-20)
(1.41061 0.213537 1.36754e-20)
(1.40334 0.208599 6.87458e-20)
(1.39334 0.202394 -1.7127e-20)
(1.38209 0.195453 -1.07072e-21)
(1.37034 0.188097 6.20551e-20)
(0.0597905 -0.00428838 6.51281e-20)
(0.197626 -0.00520694 1.30849e-19)
(0.353536 0.00784089 8.98812e-20)
(0.521054 0.0300648 -4.91511e-20)
(0.691946 0.0591246 1.81692e-19)
(0.856902 0.0920502 1.07199e-19)
(1.00701 0.125532 -1.60144e-19)
(1.13529 0.156557 -5.56953e-20)
(1.23769 0.182829 8.57444e-22)
(1.31348 0.203028 -4.60661e-20)
(1.36468 0.216822 -1.32784e-19)
(1.39522 0.224669 2.19982e-20)
(1.40979 0.227518 2.41592e-22)
(1.41304 0.226512 -1.38352e-19)
(1.40892 0.22275 6.33397e-20)
(1.40046 0.217158 -3.40714e-20)
(1.38976 0.210432 -1.507e-19)
(1.37811 0.203071 7.29798e-20)
(1.36615 0.195347 -1.54996e-19)
(1.35413 0.187261 6.77421e-20)
(0.0647713 -0.00347071 -2.28731e-20)
(0.211216 -0.00213093 -5.62683e-20)
(0.374261 0.0137255 -9.35798e-20)
(0.547072 0.0388708 -4.50449e-21)
(0.720999 0.0705962 -8.6956e-21)
(0.886519 0.10561 -1.01183e-19)
(1.03485 0.140399 2.32817e-20)
(1.15947 0.1719 2.17508e-20)
(1.25708 0.197922 -4.49242e-20)
(1.32767 0.217345 3.66966e-21)
(1.37395 0.230067 6.99267e-20)
(1.40027 0.236752 -9.22387e-21)
(1.41152 0.238497 5.3141e-20)
(1.41236 0.236523 2.36819e-20)
(1.40661 0.231961 -1.30648e-19)
(1.39713 0.225723 9.9483e-21)
(1.38584 0.218478 7.98908e-20)
(1.37387 0.210696 -1.91252e-20)
(1.36176 0.2026 3.50614e-21)
(1.34967 0.194291 -1.32447e-20)
(0.0698633 -0.00247218 -2.09042e-20)
(0.224965 0.0014243 -1.99426e-20)
(0.395016 0.0202969 -3.52987e-20)
(0.572833 0.0484726 -2.32028e-20)
(0.749396 0.0828689 -6.04256e-20)
(0.915046 0.119885 6.98448e-20)
(1.06121 0.155831 1.37946e-19)
(1.18194 0.187638 4.79806e-20)
(1.27466 0.213252 2.45055e-20)
(1.34013 0.231776 -5.82493e-20)
(1.38169 0.243347 -5.99913e-22)
(1.40404 0.24883 3.76519e-20)
(1.41225 0.249457 -4.83261e-20)
(1.41092 0.246521 1.85384e-20)
(1.40374 0.241166 6.21023e-20)
(1.39339 0.234289 -2.15601e-20)
(1.38162 0.226529 -3.82057e-20)
(1.36939 0.218323 -3.54749e-20)
(1.35717 0.209851 1.26847e-19)
(1.34503 0.201308 4.49309e-20)
(0.0750501 -0.00128574 -3.72265e-20)
(0.238822 0.00546937 4.40321e-20)
(0.41572 0.027559 -9.99272e-21)
(0.598237 0.0588607 3.1453e-20)
(0.777033 0.0959168 -2.81437e-20)
(0.942392 0.134835 -1.71611e-20)
(1.08605 0.171783 -6.6976e-20)
(1.20267 0.203725 7.81532e-21)
(1.29045 0.228779 1.88585e-20)
(1.35092 0.246291 4.22295e-20)
(1.38796 0.256642 -1.64389e-20)
(1.4066 0.26089 -1.28797e-20)
(1.41203 0.260393 1.18418e-20)
(1.40877 0.2565 -2.08609e-20)
(1.40035 0.250361 4.7476e-20)
(1.38926 0.242851 3.15504e-20)
(1.37709 0.234579 -5.44307e-21)
(1.36467 0.225945 -3.56531e-21)
(1.35237 0.217092 -3.41899e-20)
(1.34021 0.208307 -4.32499e-20)
(0.0803139 9.47045e-05 8.0138e-21)
(0.252737 0.010012 -1.37403e-20)
(0.436294 0.0355113 9.37142e-21)
(0.623186 0.0700204 -1.28435e-20)
(0.803811 0.109709 -4.91157e-20)
(0.968479 0.150417 2.26715e-20)
(1.10932 0.188206 1.10358e-20)
(1.22166 0.220116 -5.21664e-20)
(1.3045 0.244466 -3.27824e-20)
(1.3601 0.260863 -3.12428e-21)
(1.39284 0.269933 -4.55024e-20)
(1.40804 0.272922 4.69647e-20)
(1.41094 0.271299 -8.26285e-23)
(1.40595 0.266456 -6.26008e-21)
(1.39646 0.259542 -1.20039e-20)
(1.38475 0.251406 5.90655e-21)
(1.37226 0.24262 4.09714e-21)
(1.35971 0.233554 -1.65489e-21)
(1.34737 0.224317 -1.25859e-20)
(1.33521 0.215279 1.55217e-20)
(0.0856364 0.00167416 2.67137e-21)
(0.266657 0.0150571 9.04534e-21)
(0.45666 0.0441492 5.03182e-21)
(0.647587 0.0819321 -2.33352e-21)
(0.829638 0.124212 3.2407e-20)
(0.993235 0.166586 -7.21266e-21)
(1.13097 0.205054 1.14221e-20)
(1.23891 0.236766 2.51886e-20)
(1.31685 0.260277 -4.52977e-21)
(1.36772 0.275466 1.12537e-21)
(1.3964 0.283205 1.24928e-20)
(1.40842 0.284915 -6.65671e-21)
(1.40902 0.282166 8.65946e-21)
(1.40252 0.276383 1.55433e-21)
(1.3921 0.268703 -1.64067e-20)
(1.37988 0.259944 7.90241e-22)
(1.36715 0.250647 2.13725e-20)
(1.3545 0.241144 -4.49034e-21)
(1.34216 0.231518 6.6431e-21)
(1.33002 0.222218 -7.53392e-21)
(0.0909984 0.00345653 1.0912e-21)
(0.28053 0.0206062 1.33235e-20)
(0.476739 0.0534637 7.18428e-21)
(0.671349 0.0945719 -1.45163e-21)
(0.85443 0.139387 2.98697e-20)
(1.0166 0.183295 -8.40441e-21)
(1.15099 0.222275 1.56846e-20)
(1.25443 0.25363 2.10052e-20)
(1.32753 0.276175 -4.32435e-21)
(1.37386 0.290073 9.68905e-22)
(1.39871 0.296439 1.41838e-20)
(1.4078 0.296859 -5.71421e-21)
(1.40634 0.292988 5.6684e-21)
(1.3985 0.286274 -1.39838e-21)
(1.38729 0.277836 -1.34302e-20)
(1.37466 0.268459 -3.93385e-22)
(1.36175 0.258649 2.12828e-20)
(1.34906 0.248704 -4.19675e-21)
(1.33674 0.238685 7.87733e-21)
(1.32463 0.229114 -8.54574e-21)
(0.0963802 0.00544459 9.53908e-21)
(0.294302 0.0266581 -1.71147e-20)
(0.496454 0.0634416 8.68245e-21)
(0.694385 0.107911 -6.9769e-21)
(0.878108 0.155192 -4.72912e-20)
(1.03852 0.200495 1.91356e-20)
(1.16936 0.23982 8.7263e-21)
(1.26825 0.270665 -5.92858e-20)
(1.33659 0.292127 -2.48136e-20)
(1.37857 0.304661 -1.93676e-23)
(1.39983 0.309619 -3.82313e-20)
(1.40624 0.308742 3.19292e-20)
(1.40293 0.303756 -7.18901e-21)
(1.39393 0.296121 4.52142e-21)
(1.38205 0.286934 -1.77151e-20)
(1.3691 0.276942 1.34302e-20)
(1.35606 0.266618 8.65645e-21)
(1.34337 0.256227 -1.49645e-21)
(1.3311 0.24581 -1.70317e-20)
(1.31905 0.235959 1.57272e-20)
(0.101761 0.00763982 -2.05907e-20)
(0.307919 0.0332082 -9.19615e-21)
(0.515729 0.0740654 -1.33875e-20)
(0.716613 0.121918 4.56846e-20)
(0.900601 0.171582 2.11223e-22)
(1.05895 0.218134 -2.4048e-20)
(1.18606 0.25764 -9.75649e-20)
(1.28039 0.287828 9.46458e-21)
(1.34408 0.308099 1.0927e-20)
(1.3819 0.319206 4.85266e-20)
(1.39983 0.32273 7.19301e-21)
(1.40378 0.320552 -4.08415e-20)
(1.39883 0.31446 3.84445e-20)
(1.38882 0.305916 -1.5496e-20)
(1.37641 0.295987 5.86935e-20)
(1.36321 0.285383 -5.27087e-21)
(1.3501 0.274544 3.10506e-21)
(1.33743 0.263702 2.6326e-21)
(1.32525 0.252884 -4.56323e-20)
(1.31328 0.242745 -2.77967e-20)
(0.107119 0.0100424 -7.76266e-21)
(0.321327 0.0402488 -4.42059e-20)
(0.53449 0.0853137 3.47642e-20)
(0.737956 0.136556 -4.39075e-20)
(0.921847 0.18851 -7.85929e-20)
(1.07785 0.236159 6.82635e-20)
(1.2011 0.275685 1.1182e-19)
(1.29087 0.305077 3.98028e-20)
(1.35004 0.32406 2.75238e-20)
(1.38393 0.333685 -7.87707e-20)
(1.39875 0.335754 6.01342e-20)
(1.40048 0.332279 7.01538e-21)
(1.39407 0.325091 -7.60241e-20)
(1.38321 0.315648 2.95589e-20)
(1.37035 0.304985 1.05699e-19)
(1.35698 0.293772 -7.24936e-20)
(1.34385 0.282416 -2.08022e-20)
(1.33125 0.271119 -2.01621e-20)
(1.31917 0.259895 9.30065e-20)
(1.3073 0.249461 5.37929e-20)
(0.112434 0.0126513 5.38654e-20)
(0.334475 0.047769 -8.95585e-20)
(0.552666 0.097161 -1.29845e-19)
(0.758342 0.151784 5.82683e-21)
(0.941788 0.205925 -2.31624e-20)
(1.0952 0.254519 -9.36989e-20)
(1.21448 0.293906 -1.57245e-20)
(1.29972 0.32237 4.75851e-20)
(1.35453 0.339978 -7.63338e-20)
(1.38469 0.348076 6.22199e-20)
(1.39665 0.348677 7.22047e-20)
(1.39637 0.343908 -4.52896e-20)
(1.38869 0.335638 1.84112e-20)
(1.37711 0.325308 9.39017e-20)
(1.36391 0.313918 -1.25146e-19)
(1.35042 0.302098 2.2061e-20)
(1.33732 0.290223 6.00802e-20)
(1.32482 0.278467 -1.82341e-20)
(1.31287 0.266835 -1.90799e-20)
(1.30112 0.256099 -3.20849e-21)
(0.117685 0.0154641 7.92922e-20)
(0.347309 0.0557548 1.44267e-19)
(0.570192 0.109578 7.627e-20)
(0.777704 0.167559 -9.02418e-20)
(0.960376 0.223774 2.34229e-19)
(1.11098 0.273158 3.58662e-20)
(1.2262 0.312252 -9.85522e-20)
(1.30698 0.339668 -7.07056e-20)
(1.3576 0.355821 -5.65148e-20)
(1.38425 0.362355 1.86233e-20)
(1.39357 0.361481 -6.31698e-20)
(1.3915 0.355427 2.17083e-21)
(1.38271 0.346088 -4.28488e-20)
(1.37054 0.334883 -5.8407e-20)
(1.35708 0.322772 -9.99806e-21)
(1.34354 0.310348 -6.28774e-21)
(1.33051 0.297954 -1.11154e-19)
(1.31814 0.285735 8.43175e-20)
(1.30635 0.273691 -1.28286e-19)
(1.29474 0.262649 -7.59423e-20)
(0.122851 0.0184771 -9.61592e-20)
(0.359781 0.0641895 -3.8714e-20)
(0.587002 0.122533 1.71363e-19)
(0.795983 0.183836 4.33547e-20)
(0.977569 0.242005 -1.4738e-19)
(1.12516 0.292023 -8.50231e-20)
(1.23629 0.330676 -2.81832e-20)
(1.31268 0.356931 1.81269e-19)
(1.35928 0.371561 1.29111e-19)
(1.38266 0.376501 -4.42997e-20)
(1.38957 0.374149 -2.58195e-20)
(1.38589 0.366823 6.44418e-20)
(1.37616 0.356428 -7.06901e-20)
(1.3635 0.34436 3.25911e-20)
(1.34987 0.331537 1.44412e-20)
(1.33634 0.31851 -1.78739e-20)
(1.32342 0.305596 1.35992e-19)
(1.31121 0.292911 -5.7449e-20)
(1.2996 0.280453 1.16211e-19)
(1.28814 0.2691 -4.20916e-20)
(0.12791 0.0216853 -5.39666e-20)
(0.37184 0.0730531 -9.75795e-20)
(0.603036 0.135989 -1.53988e-19)
(0.813124 0.200565 9.24186e-20)
(0.993332 0.260561 5.04247e-20)
(1.13775 0.311058 -7.16174e-20)
(1.24475 0.34913 1.1847e-19)
(1.31687 0.374119 -1.81978e-19)
(1.35964 0.387167 -1.92962e-19)
(1.37996 0.390491 1.16085e-19)
(1.38468 0.386665 4.33696e-20)
(1.37959 0.37808 -4.80995e-20)
(1.36906 0.366647 7.25696e-20)
(1.35602 0.353728 5.7348e-20)
(1.34229 0.340198 -4.21858e-20)
(1.32882 0.326571 -1.45617e-20)
(1.31604 0.313136 -1.04274e-19)
(1.30402 0.299983 2.1746e-20)
(1.29262 0.287109 -8.97767e-20)
(1.28135 0.275441 -1.52437e-20)
(0.132842 0.0250826 4.48857e-20)
(0.383441 0.0823233 -7.65235e-20)
(0.61824 0.149909 1.39036e-19)
(0.829078 0.217696 2.33951e-19)
(1.00764 0.279387 -3.34465e-19)
(1.14875 0.330209 2.92895e-19)
(1.25163 0.367565 7.83112e-20)
(1.31959 0.391195 -1.13094e-19)
(1.35871 0.40261 1.33256e-19)
(1.3762 0.404304 7.87815e-20)
(1.37894 0.399011 9.76594e-20)
(1.37262 0.389183 -1.68718e-19)
(1.36142 0.376728 -3.52567e-20)
(1.34811 0.362971 8.35578e-20)
(1.33434 0.348742 3.17306e-20)
(1.32097 0.334518 1.47986e-19)
(1.30837 0.320562 1.86236e-19)
(1.29657 0.30694 -4.57943e-20)
(1.2854 0.293644 8.0296e-20)
(1.27435 0.281661 9.20395e-20)
(0.137628 0.0286613 -1.28808e-20)
(0.394539 0.091975 -1.77555e-19)
(0.63256 0.16425 -2.42853e-19)
(0.843803 0.235175 -3.15389e-19)
(1.02046 0.298424 -3.06174e-20)
(1.15815 0.349422 1.14625e-19)
(1.25693 0.385934 -2.18049e-20)
(1.32087 0.40812 3.80569e-20)
(1.35655 0.417862 -5.88555e-20)
(1.37143 0.417918 9.88221e-20)
(1.37238 0.411169 -1.50162e-19)
(1.365 0.400117 1.96255e-19)
(1.35326 0.386658 1.1272e-19)
(1.33977 0.372075 5.20591e-20)
(1.32602 0.357154 -7.71148e-20)
(1.31281 0.342337 -8.17711e-20)
(1.30042 0.327862 -7.87503e-20)
(1.28887 0.313768 5.74422e-21)
(1.27796 0.300045 1.06056e-19)
(1.26714 0.287751 -1.12398e-19)
(0.142247 0.0324128 -2.3111e-20)
(0.405092 0.101981 1.38413e-19)
(0.645951 0.178968 1.73219e-19)
(0.857262 0.252948 -2.69471e-20)
(1.0318 0.317615 8.02142e-20)
(1.16596 0.368641 2.15355e-20)
(1.26069 0.404192 -1.15679e-19)
(1.32075 0.42486 9.14455e-20)
(1.35321 0.432895 8.54972e-20)
(1.36568 0.43131 -1.48599e-19)
(1.36505 0.42312 2.39333e-19)
(1.35675 0.410865 -1.99632e-19)
(1.3446 0.39642 1.1538e-19)
(1.331 0.381025 -1.68357e-19)
(1.31735 0.365421 2.48611e-19)
(1.30432 0.350015 -1.57936e-19)
(1.29218 0.335022 -4.66695e-20)
(1.2809 0.320455 -6.29941e-20)
(1.27027 0.306301 -1.33393e-19)
(1.25968 0.293704 1.67985e-21)
(0.146681 0.0363274 1.66171e-19)
(0.415062 0.112311 1.73036e-19)
(0.658369 0.194018 -2.48677e-19)
(0.869425 0.270959 -1.50676e-19)
(1.04162 0.336901 2.22231e-19)
(1.1722 0.387814 -8.80998e-20)
(1.26294 0.422293 1.2858e-19)
(1.31929 0.441376 5.51982e-20)
(1.34871 0.44768 -1.28166e-19)
(1.35899 0.444458 -3.17899e-19)
(1.35697 0.434847 -5.6169e-20)
(1.34791 0.42141 -1.19147e-19)
(1.33545 0.405999 -1.76551e-19)
(1.32183 0.389805 1.4263e-20)
(1.30832 0.373527 -1.74491e-20)
(1.29552 0.357537 -1.83168e-20)
(1.28366 0.342031 1.45954e-19)
(1.27267 0.326996 1.05998e-19)
(1.26234 0.312417 1.07962e-20)
(1.25194 0.29951 6.30591e-20)
(0.150913 0.0403942 -4.00785e-20)
(0.424411 0.122933 3.0702e-19)
(0.669778 0.209352 1.18854e-19)
(0.880266 0.28915 2.40278e-19)
(1.04994 0.356225 7.77743e-20)
(1.1769 0.406887 2.93999e-20)
(1.26373 0.440193 -1.87586e-19)
(1.31652 0.457634 -6.04027e-20)
(1.34311 0.462189 2.93692e-20)
(1.35141 0.457341 2.36588e-19)
(1.34817 0.446329 -7.7259e-20)
(1.33849 0.431735 9.53668e-20)
(1.32583 0.415377 2.04188e-19)
(1.31226 0.3984 4.65801e-20)
(1.29894 0.381456 -4.03187e-20)
(1.28641 0.364888 5.52006e-20)
(1.27485 0.348873 1.0663e-19)
(1.2642 0.333377 4.99972e-20)
(1.2542 0.318412 1.2596e-19)
(1.24397 0.305154 9.87784e-20)
(0.154924 0.0446012 -1.04567e-19)
(0.433106 0.133815 -1.57361e-19)
(0.680144 0.224919 9.95129e-20)
(0.889768 0.307463 3.32964e-20)
(1.05676 0.375527 6.61779e-20)
(1.18006 0.425808 -2.68317e-19)
(1.26307 0.457848 9.71929e-20)
(1.31248 0.4736 -2.09415e-19)
(1.33646 0.476396 -1.16441e-19)
(1.34296 0.469935 1.357e-19)
(1.33867 0.457547 -1.42325e-20)
(1.32851 0.441822 8.97345e-21)
(1.31574 0.424538 -2.49253e-19)
(1.30229 0.406792 -1.01213e-19)
(1.28921 0.389192 8.51957e-20)
(1.27699 0.372054 -1.48108e-19)
(1.26576 0.355532 -7.97026e-20)
(1.25547 0.33957 -7.98744e-20)
(1.24582 0.324256 -1.42592e-19)
(1.23586 0.310658 -3.36472e-19)
(0.158701 0.0489357 6.09924e-20)
(0.441118 0.14492 -7.39846e-20)
(0.689439 0.24067 -4.03335e-19)
(0.897915 0.325841 2.1663e-19)
(1.06207 0.39475 -2.68694e-19)
(1.18171 0.444524 -3.8184e-20)
(1.26102 0.475214 -3.67133e-19)
(1.30723 0.489239 3.90489e-19)
(1.32878 0.490273 2.22712e-19)
(1.33369 0.482218 -1.27577e-20)
(1.32851 0.468482 8.0308e-20)
(1.31799 0.451652 -1.01605e-19)
(1.3052 0.433465 -8.51604e-21)
(1.29194 0.414965 4.68087e-20)
(1.27914 0.396721 -4.91976e-20)
(1.26726 0.379019 9.46409e-20)
(1.2564 0.361996 -1.27858e-19)
(1.24649 0.345579 -1.13997e-19)
(1.2372 0.329903 6.43024e-20)
(1.2276 0.315984 8.94965e-20)
(0.162227 0.0533838 1.39393e-19)
(0.448418 0.156213 1.37435e-19)
(0.69764 0.256551 1.05671e-19)
(0.904699 0.344224 -2.68264e-21)
(1.06589 0.413837 -6.99564e-20)
(1.18189 0.462986 4.7125e-19)
(1.25761 0.492251 2.66345e-19)
(1.3008 0.504517 1.80998e-19)
(1.32013 0.503794 2.57313e-19)
(1.32362 0.494167 3.24302e-20)
(1.31771 0.479114 -2.15425e-19)
(1.30694 0.461207 -2.42769e-20)
(1.29422 0.442138 -4.80464e-20)
(1.2812 0.422902 -1.56347e-19)
(1.26874 0.404025 -5.9766e-20)
(1.25723 0.385769 -8.28384e-20)
(1.24676 0.368251 2.61373e-19)
(1.23725 0.351387 -4.11317e-21)
(1.22835 0.335351 7.63093e-20)
(1.21913 0.321114 6.24751e-20)
(0.165489 0.0579313 -4.69311e-20)
(0.454985 0.167655 -7.98685e-20)
(0.704729 0.272511 -1.73021e-19)
(0.910118 0.362554 -2.899e-20)
(1.06824 0.432732 -2.86764e-19)
(1.18062 0.481143 -2.05062e-19)
(1.25288 0.508917 6.80332e-20)
(1.29323 0.519403 -4.95559e-19)
(1.31053 0.516931 -2.68716e-19)
(1.3128 0.505761 6.57022e-20)
(1.30629 0.489422 -3.55944e-20)
(1.29539 0.470468 1.97296e-19)
(1.28282 0.450542 2.71366e-19)
(1.2701 0.430586 6.88064e-20)
(1.25801 0.411089 1.89661e-19)
(1.24689 0.392287 -1.01246e-19)
(1.23684 0.374284 1.42547e-19)
(1.22777 0.356981 7.97264e-20)
(1.21929 0.340588 7.0955e-20)
(1.21046 0.32604 -1.38195e-19)
(0.168475 0.0625629 7.04838e-20)
(0.460796 0.179207 -8.33323e-21)
(0.71069 0.288497 -2.68841e-19)
(0.914172 0.380773 -1.4463e-22)
(1.06914 0.451377 6.45482e-19)
(1.17793 0.498947 1.29347e-19)
(1.24687 0.525173 9.78144e-20)
(1.28457 0.533864 2.88132e-19)
(1.30004 0.52966 -2.33418e-19)
(1.30124 0.516977 -2.51754e-19)
(1.29428 0.499386 -4.07617e-21)
(1.28335 0.479416 -1.82703e-19)
(1.271 0.458656 -1.01896e-19)
(1.25863 0.438 2.77717e-19)
(1.24695 0.417897 -7.29401e-20)
(1.23627 0.398561 3.48352e-21)
(1.22665 0.38008 -1.02762e-19)
(1.21804 0.362346 -1.61109e-19)
(1.21001 0.345605 1.1566e-20)
(1.20159 0.330751 1.60865e-19)
(0.171173 0.0672627 -3.392e-19)
(0.465836 0.19083 2.0731e-19)
(0.715516 0.304454 4.62488e-19)
(0.916868 0.398823 1.45417e-19)
(1.0686 0.469719 -7.62114e-19)
(1.17387 0.516352 -3.14967e-19)
(1.23963 0.54098 -2.47508e-19)
(1.27486 0.547868 -9.0555e-20)
(1.28868 0.541953 3.08555e-19)
(1.28898 0.527793 3.25172e-20)
(1.28171 0.508987 -6.74663e-20)
(1.27084 0.488032 1.192e-19)
(1.25878 0.466465 1.79965e-20)
(1.24681 0.445127 -3.34217e-19)
(1.23558 0.424433 1.03599e-19)
(1.22535 0.404574 1.39025e-19)
(1.2162 0.385625 6.92208e-20)
(1.20807 0.36747 9.31782e-20)
(1.20051 0.350389 -1.6904e-19)
(1.19252 0.33524 -8.5515e-20)
(0.173575 0.0720146 -2.35038e-20)
(0.47009 0.202483 1.04858e-19)
(0.7192 0.32033 5.29282e-20)
(0.918216 0.416646 1.55947e-19)
(1.06666 0.487704 4.26154e-19)
(1.16848 0.53331 -2.78892e-19)
(1.2312 0.556299 -1.8149e-20)
(1.26414 0.561387 2.70021e-19)
(1.2765 0.553787 -3.30433e-19)
(1.27606 0.538186 1.08241e-19)
(1.26858 0.518203 2.82527e-19)
(1.25787 0.496297 6.46689e-20)
(1.24617 0.473949 -1.45454e-19)
(1.23465 0.451951 2.4486e-19)
(1.22389 0.430681 -2.90268e-19)
(1.21415 0.410312 1.20165e-20)
(1.20549 0.390907 -6.94052e-20)
(1.19787 0.37234 1.29111e-19)
(1.1908 0.35493 1.14321e-19)
(0.175671 0.0768017 4.40328e-20)
(0.473548 0.214127 1.68652e-19)
(0.721742 0.336071 1.66787e-19)
(0.918231 0.434187 -1.04856e-19)
(1.06335 0.50528 9.53721e-21)
(1.16179 0.549777 2.59165e-19)
(1.22163 0.571096 4.62225e-19)
(1.25246 0.574389 -4.63698e-20)
(1.26352 0.565136 4.45254e-20)
(1.26249 0.548135 -1.37048e-19)
(1.25493 0.527015 -2.91949e-19)
(1.24446 0.504192 4.73743e-20)
(1.23318 0.48109 1.69393e-19)
(1.22215 0.458454 -3.45003e-20)
(1.21191 0.436627 -3.28173e-20)
(1.20268 0.415762 -1.18956e-19)
(1.19453 0.395911 -2.1908e-20)
(1.18743 0.376945 -4.70659e-20)
(0.177454 0.0816069 -1.53094e-19)
(0.476203 0.225719 -3.86905e-19)
(0.723146 0.351623 -5.74287e-19)
(0.916931 0.451391 1.07474e-20)
(1.05869 0.522396 -3.16195e-21)
(1.15384 0.56571 -2.36984e-19)
(1.21095 0.585335 1.29864e-19)
(1.23985 0.586847 -1.39065e-19)
(1.2498 0.575975 2.68403e-19)
(1.24831 0.557618 2.71353e-19)
(1.24078 0.535403 1.22837e-19)
(1.23064 0.511699 -3.29449e-20)
(1.21983 0.487872 4.86614e-20)
(1.20934 0.46462 -1.24219e-19)
(1.19964 0.442254 2.14572e-19)
(1.19095 0.420909 -1.00265e-19)
(0.17892 0.086413 1.66293e-19)
(0.478051 0.23722 5.242e-19)
(0.723419 0.366936 2.06506e-19)
(0.91434 0.468202 -4.03543e-20)
(1.05273 0.539003 -2.26448e-19)
(1.14468 0.581067 -4.92467e-20)
(1.19922 0.598981 -6.15532e-20)
(1.22637 0.598732 -1.95199e-20)
(1.23535 0.586282 -7.83808e-20)
(1.23355 0.566614 -2.67377e-19)
(1.22615 0.543347 -2.24244e-19)
(1.2164 0.518798 1.62279e-19)
(1.20612 0.494276 -2.36518e-19)
(1.19621 0.470433 -1.36671e-20)
(1.18709 0.447548 6.56719e-20)
(0.180062 0.0912022 1.64467e-20)
(0.479091 0.248588 3.46115e-20)
(0.722572 0.381958 4.77198e-19)
(0.910483 0.48457 -2.68557e-19)
(1.0455 0.555053 6.3632e-19)
(1.13435 0.595808 2.89756e-19)
(1.18648 0.612001 -3.94023e-19)
(1.21204 0.610018 -3.66581e-20)
(1.22022 0.596032 -3.23e-19)
(1.21823 0.575102 -8.10197e-20)
(1.21106 0.550828 8.76025e-20)
(1.20178 0.525472 1.26617e-19)
(1.19209 0.500286 2.43337e-19)
(1.18279 0.475876 2.90162e-20)
(0.180879 0.0959571 1.34256e-19)
(0.479326 0.259784 -6.33557e-19)
(0.720619 0.396637 -1.40771e-19)
(0.905388 0.500442 -1.07277e-19)
(1.03704 0.570501 -4.00684e-19)
(1.1229 0.609893 -3.95423e-19)
(1.17279 0.624366 -1.25177e-19)
(1.19692 0.620679 -1.60925e-19)
(1.20445 0.605204 4.5689e-19)
(1.20239 0.583061 1.57983e-20)
(1.19553 0.557826 -3.01975e-19)
(1.1868 0.531702 -4.2357e-19)
(1.17773 0.505884 2.03239e-19)
(0.181369 0.10066 1.09217e-20)
(0.478761 0.270767 9.31191e-20)
(0.717581 0.410926 -2.8958e-19)
(0.899089 0.51577 1.70412e-19)
(1.02739 0.585304 1.91001e-20)
(1.11038 0.623286 4.97931e-19)
(1.15817 0.636041 1.95568e-19)
(1.18105 0.63069 3.14297e-19)
(1.18806 0.613776 -2.0773e-19)
(1.18605 0.590473 3.80865e-19)
(1.1796 0.564323 2.52537e-19)
(1.17146 0.537471 5.26082e-20)
(0.181532 0.105294 -2.74435e-19)
(0.477404 0.281499 6.48975e-19)
(0.713477 0.424775 3.43309e-19)
(0.891621 0.530506 1.26576e-19)
(1.01661 0.599418 -6.77127e-20)
(1.09685 0.635962 -4.1573e-19)
(1.14267 0.646995 6.10664e-20)
(1.16446 0.640024 -5.72891e-20)
(1.1711 0.621726 -2.20651e-19)
(1.16924 0.597318 -2.66787e-19)
(1.16327 0.570302 1.48319e-19)
(0.181368 0.109842 -6.02093e-20)
(0.475265 0.291941 -1.70535e-19)
(0.708332 0.438139 -3.94857e-19)
(0.883023 0.544602 -2.05486e-19)
(1.00474 0.612798 -2.42453e-19)
(1.08234 0.647882 2.14994e-19)
(1.12635 0.657216 -8.82418e-20)
(1.1472 0.648655 5.60688e-20)
(1.1536 0.629034 -3.71483e-20)
(1.15199 0.603576 -1.29331e-19)
(0.18088 0.114287 5.61289e-19)
(0.472358 0.302057 2.16251e-20)
(0.702174 0.450972 -1.76016e-19)
(0.873334 0.558016 1.67584e-19)
(0.991824 0.625412 -2.96122e-20)
(1.06688 0.659002 -7.9537e-20)
(1.10926 0.666673 -1.91822e-19)
(1.12931 0.65657 2.6827e-20)
(1.13559 0.635682 2.37757e-19)
(0.180071 0.118613 -1.25456e-19)
(0.468696 0.31181 1.47001e-19)
(0.695034 0.463229 3.89623e-20)
(0.862601 0.570708 3.60684e-19)
(0.977902 0.637223 -5.11962e-20)
(1.05056 0.669302 -2.36877e-19)
(1.09145 0.675334 4.30239e-19)
(1.11083 0.663747 1.49328e-20)
(0.178945 0.122806 -5.32149e-19)
(0.4643 0.321167 -1.33936e-20)
(0.686947 0.47487 3.39311e-19)
(0.850861 0.582636 -3.75272e-20)
(0.96303 0.648197 5.35971e-19)
(1.03341 0.678754 -1.78419e-21)
(1.07295 0.683178 -4.65444e-19)
(0.177508 0.126849 3.1967e-19)
(0.459191 0.330094 -2.62077e-19)
(0.677955 0.485861 -4.02839e-19)
(0.838147 0.593756 -6.31855e-20)
(0.947264 0.658301 -3.58534e-19)
(1.0155 0.687331 1.61851e-19)
(0.175768 0.130728 -1.26146e-19)
(0.453391 0.338552 1.72241e-19)
(0.66808 0.496163 -5.4447e-20)
(0.824522 0.604045 -6.69594e-20)
(0.930662 0.667503 1.30518e-20)
(0.173727 0.134426 -2.06709e-19)
(0.446922 0.346516 -2.07737e-19)
(0.65736 0.505728 4.53113e-19)
(0.810044 0.61347 1.34154e-19)
(0.913274 0.67578 3.40617e-20)
(0.171388 0.137921 2.57214e-19)
(0.439821 0.353962 4.07851e-19)
(0.645847 0.514531 -1.03253e-19)
(0.794757 0.621995 -1.04797e-19)
(0.168763 0.141183 -1.80362e-19)
(0.432127 0.360855 -3.25442e-19)
(0.633583 0.522548 -1.55026e-19)
(0.165885 0.144205 1.86102e-19)
(0.423856 0.367153 3.44051e-19)
(0.620608 0.529749 1.49628e-19)
(0.162769 0.146995 -9.83658e-20)
(0.41503 0.372838 7.72012e-21)
(0.159413 0.149538 9.9635e-20)
(0.155827 0.151821 2.93794e-20)
(0.142348 -0.138814 -5.19777e-20)
(0.145553 -0.136676 9.32041e-21)
(0.14853 -0.134288 -7.78717e-20)
(0.380355 -0.342221 -1.53544e-19)
(0.151276 -0.131666 1.40617e-19)
(0.388194 -0.336875 1.01415e-19)
(0.570729 -0.488595 -2.03947e-20)
(0.153785 -0.128814 -9.79104e-20)
(0.395482 -0.330936 -2.68016e-19)
(0.58227 -0.48186 -1.03299e-19)
(0.156033 -0.125728 1.52338e-19)
(0.402202 -0.324435 2.27945e-19)
(0.593094 -0.474339 -2.32109e-20)
(0.733143 -0.57674 -5.05636e-20)
(0.157995 -0.122431 -1.79903e-19)
(0.408326 -0.317414 -6.89488e-20)
(0.603163 -0.466058 1.22199e-19)
(0.746691 -0.568797 9.54102e-20)
(0.845745 -0.630284 5.86592e-20)
(0.15967 -0.118949 4.62807e-20)
(0.413815 -0.309896 -4.10899e-20)
(0.612428 -0.457041 1.09797e-19)
(0.759422 -0.55999 -1.43775e-19)
(0.861242 -0.622673 -9.15297e-21)
(0.926618 -0.652053 7.88652e-20)
(0.161055 -0.1153 3.48429e-19)
(0.418644 -0.301907 -2.00758e-19)
(0.62085 -0.44733 -2.68012e-19)
(0.771279 -0.55035 -1.11711e-19)
(0.875933 -0.614162 -1.50099e-19)
(0.943326 -0.645129 -4.66472e-21)
(0.162145 -0.111499 -1.85186e-19)
(0.422791 -0.293482 -9.49012e-21)
(0.628402 -0.436963 1.4103e-19)
(0.782204 -0.539901 1.67978e-20)
(0.889764 -0.604782 3.02768e-19)
(0.959291 -0.637334 -2.38114e-20)
(1.00016 -0.645099 1.90618e-20)
(0.162934 -0.107559 -7.59379e-20)
(0.426236 -0.284655 3.27952e-20)
(0.635046 -0.425976 6.03245e-20)
(0.79216 -0.528686 1.37398e-19)
(0.902678 -0.594563 -8.28977e-20)
(0.974461 -0.628692 2.95126e-20)
(1.01676 -0.638136 2.01542e-19)
(1.03861 -0.630345 -1.95372e-20)
(0.163416 -0.103496 3.86465e-19)
(0.42896 -0.275458 -9.912e-20)
(0.640748 -0.414407 -1.27011e-19)
(0.801108 -0.516743 6.96454e-20)
(0.914623 -0.583538 3.81794e-20)
(0.988784 -0.61923 -6.96316e-20)
(1.03266 -0.630384 -1.34309e-20)
(1.05529 -0.624153 -3.59911e-20)
(1.06445 -0.606963 3.63704e-20)
(0.16359 -0.0993252 -1.71863e-19)
(0.430949 -0.265927 1.95187e-20)
(0.645477 -0.402301 -1.96587e-19)
(0.809005 -0.504113 -2.49106e-19)
(0.925556 -0.571743 -9.53453e-20)
(1.0022 -0.608975 -6.16613e-21)
(1.0478 -0.621865 1.11614e-19)
(1.07137 -0.617247 -7.68293e-20)
(1.0808 -0.601398 2.35382e-20)
(1.08211 -0.57929 1.32272e-19)
(0.163453 -0.0950638 -1.81712e-19)
(0.432191 -0.2561 3.89094e-19)
(0.649207 -0.389702 2.27902e-19)
(0.815811 -0.490837 9.74158e-20)
(0.93543 -0.559212 -3.53848e-20)
(1.01467 -0.597957 -2.01923e-19)
(1.06214 -0.612606 -1.1289e-19)
(1.0868 -0.609647 -4.99921e-20)
(1.09664 -0.5952 -5.85708e-20)
(1.09784 -0.5742 -1.98448e-19)
(1.09466 -0.550128 1.00383e-19)
(0.163004 -0.0907281 3.30968e-20)
(0.432676 -0.246012 -5.28436e-20)
(0.651913 -0.376654 4.04228e-20)
(0.821487 -0.47696 -9.68904e-20)
(0.944198 -0.545985 1.94309e-19)
(1.02614 -0.586209 3.1353e-19)
(1.07563 -0.602628 9.06872e-20)
(1.10153 -0.601373 2.15947e-19)
(1.11191 -0.588385 -1.06681e-19)
(1.11311 -0.568553 2.21544e-19)
(1.10959 -0.545388 4.79005e-20)
(1.10409 -0.521118 1.73253e-19)
(0.162243 -0.0863353 -1.17802e-19)
(0.432396 -0.235702 -2.61831e-19)
(0.653577 -0.363205 -1.98475e-19)
(0.826 -0.462529 5.81895e-20)
(0.951815 -0.532103 -2.9235e-19)
(1.03657 -0.573764 -3.27716e-19)
(1.08821 -0.591959 -3.47951e-20)
(1.11552 -0.592449 -7.91522e-20)
(1.12658 -0.580975 2.5049e-19)
(1.12791 -0.562366 -5.26258e-20)
(1.12412 -0.540159 -1.39486e-19)
(1.11815 -0.516641 -2.10881e-19)
(1.11162 -0.493117 -1.16906e-19)
(0.161173 -0.0819027 -9.4357e-20)
(0.431347 -0.225211 -7.34018e-20)
(0.654179 -0.349404 3.03789e-19)
(0.829318 -0.447592 -1.80111e-19)
(0.958239 -0.517609 4.35456e-19)
(1.04589 -0.560656 1.679e-19)
(1.09986 -0.580629 -9.95688e-20)
(1.12873 -0.582897 -1.52688e-19)
(1.14063 -0.572989 -2.08441e-19)
(1.1422 -0.555658 8.29468e-20)
(1.13824 -0.534458 1.27588e-20)
(1.13185 -0.511733 6.6775e-20)
(1.12478 -0.48885 1.33978e-19)
(1.11797 -0.466513 2.57218e-20)
(0.159796 -0.0774476 1.86973e-19)
(0.429528 -0.214576 2.9326e-19)
(0.653708 -0.335299 1.39916e-20)
(0.831415 -0.432199 1.6589e-19)
(0.96343 -0.502546 -3.81281e-19)
(1.05408 -0.546922 8.79337e-20)
(1.11051 -0.568665 -5.57812e-20)
(1.14111 -0.572742 -1.17469e-20)
(1.154 -0.564447 -8.11041e-20)
(1.15595 -0.548446 -1.48586e-19)
(1.15192 -0.528303 -3.47439e-20)
(1.14518 -0.506412 6.91582e-20)
(1.13764 -0.484203 -1.94368e-19)
(1.13028 -0.462429 4.55294e-20)
(1.12362 -0.441446 -8.08017e-20)
(0.158119 -0.0729874 -3.34274e-20)
(0.42694 -0.203839 -4.51032e-19)
(0.652153 -0.320941 -3.38066e-19)
(0.832265 -0.416401 -2.04256e-20)
(0.967352 -0.486961 6.99209e-20)
(1.06109 -0.5326 -1.23913e-19)
(1.12013 -0.556099 -3.45948e-21)
(1.15263 -0.562007 3.12121e-20)
(1.16667 -0.55537 4.1905e-20)
(1.16912 -0.540751 2.27185e-19)
(1.16514 -0.521711 8.33365e-20)
(1.15813 -0.500694 -1.66309e-20)
(1.15016 -0.479191 1.8503e-20)
(1.14231 -0.458007 -2.2209e-20)
(1.13514 -0.437533 9.15761e-20)
(1.12889 -0.417949 3.45889e-20)
(0.156145 -0.068539 6.23704e-20)
(0.423589 -0.193039 2.41526e-19)
(0.649509 -0.306382 1.4384e-19)
(0.831848 -0.40025 -2.65372e-19)
(0.969969 -0.470901 5.27455e-20)
(1.06686 -0.51773 2.96441e-19)
(1.12866 -0.542963 1.48725e-19)
(1.16323 -0.550719 1.64481e-20)
(1.17859 -0.545779 1.47251e-19)
(1.1817 -0.53259 -2.6972e-19)
(1.17786 -0.5147 -6.77135e-20)
(1.17068 -0.494597 -2.55546e-20)
(1.16234 -0.473831 1.38578e-19)
(1.15404 -0.453261 -4.00468e-20)
(1.14638 -0.433317 -4.84572e-22)
(1.13966 -0.414199 -5.6233e-20)
(1.13397 -0.39599 -1.74632e-20)
(1.12926 -0.37859 -8.26626e-20)
(0.153883 -0.0641193 -5.8148e-20)
(0.419483 -0.182217 -3.51034e-20)
(0.645775 -0.291672 -8.86261e-20)
(0.830147 -0.383801 2.75365e-19)
(0.971251 -0.454415 1.79585e-19)
(1.07136 -0.502353 -5.06442e-20)
(1.13606 -0.529289 -8.07103e-21)
(1.17288 -0.538905 1.69489e-19)
(1.18974 -0.535698 -2.40844e-19)
(1.19365 -0.523984 1.2744e-19)
(1.19008 -0.507289 1.17164e-19)