/*--------------------------------*- C++ -*----------------------------------*\
  =========                 |
  \\      /  F ield         | OpenFOAM: The Open Source CFD Toolbox
   \\    /   O peration     | Website:  https://openfoam.org
    \\  /    A nd           | Version:  7
     \\/     M anipulation  |
\*---------------------------------------------------------------------------*/
FoamFile
{
    version     2.0;
    format      ascii;
    class       surfaceScalarField;
    location    "220";
    object      phi;
}
// * * * * * * * * * * * * * * * * * * * * * * * * * * * * * * * * * * * * * //

dimensions      [0 3 -1 0 0 0 0];

internalField   nonuniform List<scalar> 
14027
(
-0.00178092
-0.00087101
-0.00173293
-0.000882241
-0.00168448
-0.000893182
-0.000854949
-0.00160309
-0.0016356
-0.00090383
-0.000864872
-0.00155474
-0.00158629
-0.000914183
-0.000874507
-0.00150597
-0.00153656
-0.000924236
-0.00088385
-0.00145681
-0.00148642
-0.000933988
-0.000843344
-0.00137963
-0.0008929
-0.00140725
-0.00143589
-0.000943434
-0.000851719
-0.00133065
-0.000901653
-0.00135732
-0.00138497
-0.000952573
-0.000859808
-0.00128131
-0.000910109
-0.00130702
-0.00133368
-0.000961402
-0.000867609
-0.00123162
-0.000918265
-0.00125636
-0.00128202
-0.000969919
-0.000825093
-0.00115885
-0.00087512
-0.00118159
-0.000926118
-0.00120537
-0.00123002
-0.000978121
-0.000831989
-0.00110943
-0.00088234
-0.00113124
-0.000933667
-0.00115404
-0.00117768
-0.000986005
-0.000838603
-0.00105971
-0.000889265
-0.00108058
-0.00094091
-0.00110239
-0.00112502
-0.000993571
-0.000844935
-0.00100969
-0.000895897
-0.00102961
-0.000947845
-0.00105045
-0.00107205
-0.00100082
-0.000850984
-0.000959392
-0.000902231
-0.000978366
-0.00095447
-0.000998207
-0.00101878
-0.00100774
-0.00080618
-0.00089162
-0.000856748
-0.000908825
-0.000908268
-0.000926846
-0.000960785
-0.00094569
-0.00096523
-0.00101433
-0.000811402
-0.00084171
-0.000862225
-0.000858001
-0.000914006
-0.000875066
-0.000966787
-0.000892909
-0.000911411
-0.00102061
-0.00081635
-0.000791562
-0.000867416
-0.000806935
-0.000919443
-0.000823039
-0.000972474
-0.000839877
-0.000857337
-0.00102655
-0.000821024
-0.000741187
-0.000872319
-0.00075564
-0.000924578
-0.00077078
-0.000977847
-0.000786608
-0.000803022
-0.00103216
-0.000825421
-0.0006906
-0.000876932
-0.000704129
-0.000929411
-0.000718301
-0.000982903
-0.000733117
-0.00074848
-0.00103744
-0.000829542
-0.000639813
-0.000881256
-0.000652416
-0.00093394
-0.000665617
-0.00098764
-0.000679416
-0.000693725
-0.0010424
-0.000833386
-0.00058884
-0.000885288
-0.000600514
-0.000938164
-0.000612741
-0.000992059
-0.000625521
-0.000638771
-0.00104701
-0.000785805
-0.000527445
-0.000836951
-0.000537694
-0.000889028
-0.000548437
-0.000942082
-0.000559687
-0.000996159
-0.000571444
-0.000583634
-0.0010513
-0.000788933
-0.000477029
-0.000840238
-0.000486389
-0.000892476
-0.000496198
-0.000945694
-0.000506469
-0.000999937
-0.000517202
-0.000528327
-0.00105524
-0.000791794
-0.00042647
-0.000843245
-0.000434938
-0.000895631
-0.000443812
-0.000948998
-0.000453102
-0.00100339
-0.000462806
-0.000472866
-0.00105885
-0.000794389
-0.00037578
-0.000845972
-0.000383355
-0.000898492
-0.000391292
-0.000951995
-0.000399599
-0.00100653
-0.000408274
-0.000417265
-0.00106213
-0.000796717
-0.000324973
-0.000848418
-0.000331654
-0.000901058
-0.000338652
-0.000954683
-0.000345974
-0.00100934
-0.000353617
-0.000361538
-0.00106507
-0.000798779
-0.000274063
-0.000850584
-0.000279849
-0.00090333
-0.000285906
-0.000957062
-0.000292242
-0.00101183
-0.000298852
-0.000305701
-0.00106766
-0.000800572
-0.000223062
-0.000852469
-0.000227952
-0.000905306
-0.000233069
-0.000959131
-0.000238417
-0.00101399
-0.000243993
-0.000249768
-0.00106992
-0.000802099
-0.000171986
-0.000854072
-0.000175979
-0.000906987
-0.000180154
-0.000960891
-0.000184513
-0.00101583
-0.000189054
-0.000193754
-0.00107184
-0.000803357
-0.000120847
-0.000855393
-0.000123943
-0.000908372
-0.000127175
-0.00096234
-0.000130545
-0.00101734
-0.00013405
-0.000137675
-0.00107342
-0.000804347
-6.96595e-05
-0.000856433
-7.18577e-05
-0.000909461
-7.41472e-05
-0.000963479
-7.65275e-05
-0.00101853
-7.89958e-05
-8.1544e-05
-0.00107466
-0.000805069
-1.84366e-05
-0.00085719
-1.97371e-05
-0.000910254
-2.10837e-05
-0.000964307
-2.24742e-05
-0.0010194
-2.3906e-05
-2.5378e-05
-0.00107556
-0.000805524
3.28077e-05
-0.000857666
3.24049e-05
-0.00091075
3.20011e-05
-0.000964825
3.16001e-05
-0.00101994
3.12047e-05
3.08071e-05
-0.00107612
-0.00080571
8.40598e-05
-0.000857859
8.45543e-05
-0.000910951
8.5093e-05
-0.000965032
8.56812e-05
-0.00102015
8.63218e-05
8.69993e-05
-0.00107634
-0.000805628
0.000135306
-0.000857771
0.000136697
-0.000910856
0.000138178
-0.000964929
0.000139755
-0.00102004
0.000141431
0.000143183
-0.00107622
-0.000805278
0.000186533
-0.0008574
0.00018882
-0.000910464
0.000191242
-0.000964516
0.000193806
-0.0010196
0.000196517
0.000199343
-0.00107576
-0.00080466
0.000237726
-0.000856749
0.000240908
-0.000909777
0.00024427
-0.000963792
0.000247821
-0.00101884
0.000251565
0.000255464
-0.00107496
-0.000803775
0.000288872
-0.000855816
0.000292949
-0.000908795
0.000297249
-0.000962759
0.000301786
-0.00101776
0.000306561
0.000311531
-0.00107382
-0.000802623
0.000339958
-0.000854602
0.000344927
-0.000907517
0.000350165
-0.000961417
0.000355685
-0.00101635
0.000361491
0.000367529
-0.00107234
-0.000801204
0.000390969
-0.000853107
0.00039683
-0.000905946
0.000403003
-0.000959766
0.000409505
-0.00101461
0.000416339
0.000423444
-0.00107053
-0.000799519
0.000441893
-0.000851333
0.000448643
-0.00090408
0.00045575
-0.000957806
0.000463232
-0.00101256
0.000471091
0.00047926
-0.00106837
-0.000797568
0.000492716
-0.000849278
0.000500353
-0.00090192
0.000508392
-0.000955539
0.000516851
-0.00101018
0.000525733
0.000534964
-0.00106588
-0.000795352
0.000543424
-0.000846945
0.000551947
-0.000899468
0.000560915
-0.000952965
0.000570348
-0.00100748
0.00058025
0.00059054
-0.00106306
-0.000792871
0.000594004
-0.000844334
0.00060341
-0.000896723
0.000613304
-0.000950085
0.000623709
-0.00100446
0.000634629
0.000645973
-0.0010599
-0.000790125
-0.000841445
0.000654729
-0.000893688
0.000665548
-0.000946899
0.00067692
-0.00100112
0.000688854
0.00070125
-0.0010564
-0.000838279
0.000705891
-0.000890362
0.00071763
-0.000943409
0.000729968
-0.000997467
0.000742912
0.000756355
-0.00105257
-0.000834837
0.000756883
-0.000886746
0.000769539
-0.000939616
0.000782838
-0.000993493
0.000796788
0.000811275
-0.00104841
-0.00083112
0.000807691
-0.000882842
0.000821261
-0.000935521
0.000835518
-0.000989202
0.00085047
0.000865995
-0.00104392
-0.000827129
0.000858301
-0.00087865
0.000872782
-0.000931124
0.000887992
-0.000984596
0.000903942
0.000920502
-0.0010391
-0.000822864
0.000908702
-0.000874172
0.000924089
-0.000926428
0.000940248
-0.000979677
0.000957191
0.000974781
-0.00103396
-0.000818328
0.00095888
-0.000869408
0.00097517
-0.000921433
0.000992273
-0.000974446
0.0010102
0.00102882
-0.00102848
-0.00081352
-0.000864361
0.00102601
-0.000916141
0.00104405
-0.000968904
0.00106297
0.0010826
-0.00102269
-0.000859031
0.0010766
-0.000910554
0.00109558
-0.000963054
0.00111547
0.00113611
-0.00101657
-0.00085342
0.00112692
-0.000904672
0.00114683
-0.000956896
0.00116769
0.00118934
-0.00101013
-0.000847529
0.00117696
-0.000898498
0.0011978
-0.000950433
0.00121963
0.00124228
-0.00100337
-0.000841359
0.00122672
-0.000892032
0.00124847
-0.000943666
0.00127126
0.00129491
-0.000996294
-0.000834913
-0.000885278
0.00129884
-0.000936597
0.00132258
0.00134721
-0.000988904
-0.000878237
0.00134888
-0.00092923
0.00137357
0.00139919
-0.000981203
-0.00087091
0.0013986
-0.000921564
0.00142423
0.00145082
-0.000973192
-0.000863299
0.00144797
-0.000913604
0.00147453
0.00150209
-0.000964874
-0.000855407
-0.00090535
0.00152448
0.00155299
-0.000956252
-0.000896806
0.00157405
0.00160351
-0.000947328
-0.000887975
0.00162323
0.00165364
-0.000938105
-0.000878857
0.00167203
0.00170337
-0.000928587
-0.000869457
0.00175269
-0.000918776
0.00180159
-0.000908675
0.00185006
-0.000898289
-0.00088762
0.0044822
2.15656e-05
-1.97984e-05
0.00447716
6.18605e-05
-5.68266e-05
0.00446932
0.000101254
-9.34051e-05
0.00445889
0.000140993
-0.000130571
0.00444616
0.00018246
-0.000169728
0.0044313
0.000226131
-0.000211267
0.00441447
0.000272292
-0.00025546
0.00439581
0.000321016
-0.000302361
0.00437547
0.000372267
-0.000351926
0.00435359
0.000426023
-0.000404146
0.00433034
0.0004822
-0.000458945
0.00430591
0.000540777
-0.000516344
0.00428052
0.000601682
-0.000576294
0.00425447
0.000664887
-0.000638841
0.0042281
0.000730311
-0.000703936
0.00420183
0.000797856
-0.000771592
0.00417615
0.000867376
-0.000841698
0.00415169
0.000938606
-0.000914145
0.00412909
0.00101129
-0.000988686
0.00410923
0.00108484
-0.00106497
0.00409289
0.00115894
-0.0011426
0.00408128
0.00123239
-0.00122078
0.0040752
0.00130521
-0.00129912
0.00407639
0.00137469
-0.00137589
0.00408505
0.00144303
-0.00145169
0.00410485
0.00150197
-0.00152177
0.00156543
-0.00159296
0.00456702
2.33051e-05
0.00456203
6.6851e-05
0.00455426
0.000109025
0.00454395
0.000151297
0.00453139
0.000195025
0.00451676
0.000240761
0.00450024
0.000288804
0.00448202
0.000339242
0.00446224
0.000392048
0.00444109
0.000447174
0.00441875
0.000504533
0.00439548
0.000564049
0.00437153
0.000625632
0.00434725
0.000689167
0.00432301
0.000754549
0.00429932
0.000821552
0.00427668
0.000890016
0.00425579
0.000959493
0.00423732
0.00102976
0.00422219
0.00109997
0.00421115
0.00116998
0.00420545
0.00123809
0.00420569
0.00130496
0.00421372
0.00136666
0.00422937
0.00142739
0.00425614
0.0014752
0.0015297
0.00465344
2.50206e-05
0.00464853
7.1765e-05
0.00464087
0.000116679
0.00463074
0.000161426
0.00461842
0.000207351
0.00460411
0.000255068
0.00458802
0.000304893
0.00457034
0.000356921
0.00455126
0.000411133
0.00453098
0.000467453
0.00450972
0.000525787
0.00448777
0.000585999
0.00446542
0.000647982
0.00444306
0.000711532
0.00442109
0.000776517
0.00440005
0.000842588
0.0043805
0.000909575
0.00436313
0.000976856
0.00434863
0.00104426
0.00433793
0.00111067
0.00433173
0.00117617
0.00433123
0.00123859
0.00433694
0.00129925
0.00435049
0.00135311
0.0043717
0.00140619
0.00440291
0.00144399
0.00149015
0.0047415
2.67065e-05
0.00473668
7.65845e-05
0.00472918
0.000124184
0.00471927
0.000171332
0.00470724
0.000219376
0.00469333
0.000268977
0.00467776
0.00032047
0.00466073
0.000373952
0.00464245
0.000429408
0.00462317
0.000486734
0.00460313
0.000545824
0.00458264
0.000606487
0.00456204
0.00066859
0.00454172
0.000731845
0.00452215
0.000796095
0.00450386
0.000860875
0.00448743
0.000926007
0.00447357
0.000990713
0.00446295
0.00105488
0.00445645
0.00111717
0.00445474
0.00117788
0.00445889
0.00123444
0.00446936
0.00128879
0.00448743
0.00133504
0.00451298
0.00138064
0.00454728
0.00140969
0.0014478
0.00483123
2.83578e-05
0.00482652
8.1294e-05
0.00481919
0.000131511
0.00480955
0.000180979
0.00479787
0.000231051
0.00478442
0.000282427
0.00476943
0.000335461
0.00475313
0.000390249
0.00473576
0.000446777
0.00471759
0.000504912
0.00469888
0.000564533
0.00467997
0.000625394
0.00466122
0.000687338
0.00464307
0.000749997
0.00462598
0.000813189
0.00461051
0.000876346
0.00459723
0.000939286
0.00458684
0.0010011
0.00457999
0.00106174
0.0045775
0.00111966
0.00457997
0.00117541
0.00458832
0.00122608
0.00460296
0.00127415
0.00462479
0.0013132
0.00465382
0.00135161
0.00469061
0.0013729
0.00140329
0.00492266
2.99691e-05
0.00491808
8.58789e-05
0.00491095
0.000138637
0.0049016
0.00019033
0.00489032
0.000242329
0.00487738
0.000295363
0.00486304
0.000349802
0.00484755
0.000405738
0.00483117
0.000463157
0.00481419
0.000521898
0.0047969
0.000581821
0.00477966
0.000642629
0.00476286
0.00070414
0.00474695
0.000765912
0.00473239
0.000827743
0.00471977
0.000888973
0.00470963
0.000949426
0.00470265
0.00100808
0.00469943
0.00106496
0.00470071
0.00111837
0.00470705
0.00116908
0.00471918
0.00121395
0.00473744
0.00125589
0.00476245
0.00128819
0.00479426
0.0013198
0.00483298
0.00133418
0.00135749
0.00501582
3.15353e-05
0.00501138
9.03247e-05
0.00500448
0.000145536
0.00499546
0.000199355
0.00498461
0.000253171
0.00497224
0.000307735
0.00495861
0.000363435
0.00494399
0.000420355
0.00492867
0.00047848
0.00491295
0.000537618
0.00489716
0.000597614
0.00488166
0.00065812
0.00486687
0.000718932
0.00485324
0.000779543
0.00484125
0.000839734
0.00483146
0.000898765
0.00482441
0.000956479
0.00482073
0.00101176
0.00482097
0.00106472
0.00482579
0.00111355
0.00483565
0.00115922
0.00485115
0.00119846
0.00487255
0.00123449
0.00490021
0.00126053
0.00493421
0.0012858
0.00497428
0.00129411
0.00131105
0.00511076
3.30509e-05
0.00510646
9.46167e-05
0.00509981
0.000152185
0.00509115
0.000208021
0.00508078
0.000263535
0.00506902
0.000319497
0.00505615
0.000376307
0.00504246
0.000434042
0.00502826
0.000492684
0.00501386
0.000552011
0.00499963
0.000611853
0.00498593
0.000671816
0.00497319
0.000731677
0.00496186
0.000790868
0.00495243
0.000849165
0.00494543
0.000905763
0.00494138
0.000960529
0.00494086
0.00101228
0.00494437
0.00106121
0.00495246
0.00110546
0.00496552
0.00114615
0.00498399
0.00117998
0.00500809
0.00121039
0.00503792
0.0012307
0.00507358
0.00125014
0.00511455
0.00125314
0.00126441
0.00520749
3.45106e-05
0.00520336
9.87405e-05
0.00519699
0.00015856
0.00518871
0.000216297
0.00517886
0.000273386
0.00516775
0.000330606
0.00515569
0.000388371
0.00514298
0.000446748
0.00512995
0.000505717
0.00511693
0.000565026
0.00510429
0.000624493
0.00509243
0.000683681
0.00508175
0.000742352
0.00507273
0.000799891
0.00506583
0.00085607
0.00506155
0.000910036
0.0050604
0.000961687
0.00506287
0.0010098
0.00506943
0.00105466
0.00508051
0.00109438
0.00509645
0.00113021
0.00511752
0.00115891
0.00514388
0.00118403
0.00517548
0.0011991
0.00521237
0.00121325
0.00525387
0.00121163
0.00121791
0.00530605
3.59092e-05
0.00530211
0.000102682
0.00529603
0.000164638
0.00528817
0.000224155
0.00527887
0.000282686
0.00526846
0.00034102
0.00525725
0.000399581
0.00524557
0.000458427
0.00523375
0.000517533
0.00522216
0.000576622
0.00521115
0.000635501
0.00520114
0.000693695
0.00519253
0.000750957
0.00518579
0.000806632
0.00518136
0.0008605
0.00517972
0.000911674
0.00518132
0.000960088
0.00518661
0.00100451
0.00519598
0.00104529
0.00520978
0.00108058
0.00522826
0.00111173
0.00525157
0.0011356
0.00527982
0.00115579
0.0053128
0.00116612
0.00535055
0.0011755
0.0053923
0.00116989
0.0011718
0.00540648
3.72413e-05
0.00540274
0.000106427
0.00539698
0.000170398
0.00538957
0.000231564
0.00538085
0.000291401
0.00537117
0.000350702
0.00536085
0.000409898
0.00535024
0.000469038
0.00533968
0.000528095
0.00532954
0.000586768
0.00532018
0.000644855
0.00531203
0.000701851
0.00530548
0.000757505
0.00530098
0.000811133
0.00529895
0.000862528
0.00529984
0.000910786
0.00530404
0.000955882
0.00531196
0.000996595
0.0053239
0.00103335
0.00534013
0.00106435
0.00536083
0.00109102
0.00538605
0.00111038
0.00541583
0.00112601
0.00544987
0.00113208
0.00548817
0.0011372
0.00552988
0.00112818
0.00112629
0.00550882
3.85022e-05
0.00550528
0.000109962
0.00549986
0.000175816
0.00549293
0.000238499
0.00548483
0.0002995
0.00547592
0.000359616
0.00546653
0.000419285
0.00545702
0.000478546
0.00544774
0.000537372
0.00543907
0.00059544
0.00543138
0.000652544
0.00542508
0.000708155
0.00542056
0.000762024
0.00541824
0.000813449
0.00541853
0.000862239
0.00542182
0.000907496
0.00542847
0.000949233
0.0054388
0.000986265
0.00545307
0.00101907
0.00547146
0.00104596
0.00549409
0.00106839
0.0055209
0.00108357
0.00555189
0.00109502
0.00558668
0.00109729
0.00562525
0.00109863
0.00566673
0.0010867
0.00108155
0.00561309
3.96868e-05
0.00560978
0.000113275
0.00560472
0.000180874
0.00559828
0.000244932
0.00559083
0.000306952
0.00558272
0.00036773
0.00557429
0.00042771
0.00556592
0.000486923
0.00555795
0.00054534
0.00555076
0.000602625
0.00554474
0.000658569
0.00554027
0.000712627
0.00553773
0.000764555
0.00553754
0.000813648
0.00554004
0.000859736
0.0055456
0.000901939
0.00555452
0.000940311
0.00556706
0.000973725
0.00558342
0.00100271
0.0056037
0.00102568
0.00562797
0.00104413
0.00565608
0.00105545
0.005688
0.0010631
0.00572328
0.00106201
0.00576189
0.00106002
0.00580295
0.00104564
0.00103771
0.00571934
4.07907e-05
0.00571626
0.000116353
0.00571158
0.000185553
0.00570567
0.000250841
0.00569889
0.000313732
0.00569161
0.000375017
0.00568417
0.000435147
0.00567695
0.000494146
0.0056703
0.000551986
0.00566461
0.000608319
0.00566024
0.000662939
0.00565757
0.000715295
0.00565697
0.000765151
0.00565881
0.00081181
0.00566342
0.000855128
0.0056711
0.000894258
0.00568212
0.000929293
0.00569666
0.00095918
0.00571488
0.00098449
0.0057368
0.00100376
0.00576244
0.0010185
0.00579159
0.0010263
0.00582417
0.00103052
0.00585972
0.00102646
0.00589818
0.00102156
0.00593866
0.00100516
0.000994876
0.0058276
4.18096e-05
0.00582477
0.000119184
0.00582048
0.000189835
0.00581512
0.000256205
0.00580904
0.000319814
0.0058026
0.000381452
0.00579618
0.000441574
0.00579012
0.000500198
0.00578481
0.000557299
0.0057806
0.000612526
0.00577787
0.000665675
0.00577696
0.000716199
0.00577824
0.000763875
0.00578202
0.000808026
0.00578862
0.000848534
0.00579827
0.000884601
0.00581121
0.000916357
0.00582756
0.000942834
0.00584741
0.000964639
0.00587073
0.000980442
0.00589749
0.000991741
0.00592744
0.000996344
0.00596047
0.000997491
0.00599608
0.000990838
0.00603421
0.000983433
0.00607401
0.000965359
0.000953112
0.00593791
4.27396e-05
0.00593533
0.00012176
0.00593146
0.000193704
0.00592666
0.000261004
0.0059213
0.000325179
0.00591573
0.000387017
0.00591033
0.000446974
0.00590546
0.000505069
0.00590148
0.000561281
0.00589875
0.000615259
0.00589762
0.000666807
0.00589843
0.00071539
0.0059015
0.0007608
0.00590713
0.000802394
0.00591559
0.00084008
0.00592707
0.000873119
0.00594175
0.00090168
0.00595969
0.000924885
0.00598096
0.000943371
0.00600546
0.000955943
0.00603312
0.000964085
0.00606366
0.000965806
0.00609693
0.000964217
0.00613245
0.000955321
0.00617012
0.000945761
0.00620913
0.000926346
0.000912472
0.00605031
4.35772e-05
0.006048
0.000124069
0.00604455
0.000197147
0.00604034
0.000265221
0.0060357
0.00032981
0.00603103
0.000391695
0.00602666
0.000451338
0.00602297
0.000508758
0.00602032
0.000563939
0.00601904
0.000616539
0.00601947
0.000666373
0.00602194
0.000712924
0.00602673
0.000756008
0.0060341
0.000795018
0.00604429
0.000829895
0.00605744
0.000859967
0.00607369
0.000885437
0.00609305
0.000905524
0.00611553
0.00092089
0.006141
0.000930473
0.00616935
0.000935733
0.00620028
0.000934874
0.00623363
0.00093087
0.0062689
0.00092005
0.006306
0.000908659
0.00634416
0.00088819
0.000872991
0.00616483
4.43192e-05
0.00616279
0.000126105
0.00615979
0.000200151
0.00615617
0.000268844
0.00615228
0.000333693
0.0061485
0.000395478
0.00614518
0.00045466
0.00614267
0.000511266
0.00614132
0.000565287
0.00614147
0.000616395
0.00614342
0.000664418
0.00614748
0.000708869
0.0061539
0.000749585
0.00616291
0.000786008
0.00617469
0.000818112
0.00618936
0.000845295
0.006207
0.000867797
0.00622759
0.000884934
0.0062511
0.000897386
0.00627735
0.000904221
0.00630621
0.00090687
0.00633737
0.000903717
0.00637064
0.000897596
0.00640555
0.000885144
0.00644199
0.000872217
0.00647923
0.000850948
0.000834689
0.00628152
4.4963e-05
0.00627977
0.000127859
0.00627721
0.000202708
0.00627419
0.000271861
0.00627107
0.000336819
0.00626819
0.000398358
0.0062659
0.000456941
0.00626457
0.000512604
0.00626451
0.000565348
0.00626604
0.000614864
0.00626946
0.000660998
0.00627503
0.000703298
0.00628299
0.000741626
0.00629352
0.000775479
0.00630676
0.000804864
0.0063228
0.000829257
0.00634167
0.000848927
0.00636332
0.000863289
0.00638767
0.000873037
0.00641453
0.000877362
0.00644374
0.00087766
0.00647497
0.000872483
0.00650804
0.000864524
0.00654248
0.000850706
0.00657819
0.000836506
0.00661448
0.000814658
0.000797573
0.00640042
4.55065e-05
0.00639895
0.000129328
0.00639685
0.000204809
0.00639444
0.000274266
0.00639208
0.000339184
0.0063901
0.000400335
0.00638886
0.000458188
0.00638867
0.000512788
0.00638987
0.00056415
0.00639274
0.000611989
0.00639757
0.000656173
0.00640458
0.000696288
0.00641398
0.000732228
0.00642591
0.000763546
0.00644049
0.000790286
0.00645775
0.000811998
0.00647769
0.000828984
0.00650023
0.000840752
0.00652526
0.000848008
0.00655256
0.000850056
0.00658197
0.00084825
0.00661315
0.000841304
0.00664591
0.000831763
0.0066798
0.000816818
0.00671472
0.000801582
0.00675003
0.000779351
0.000761644
0.00652156
4.59479e-05
0.00652039
0.000130506
0.00651875
0.000206449
0.00651696
0.000276053
0.00651536
0.000340785
0.00651428
0.000401414
0.00651405
0.000458412
0.006515
0.00051184
0.00651742
0.000561729
0.00652159
0.000607821
0.00652776
0.000650009
0.00653612
0.000687924
0.00654685
0.000721492
0.00656007
0.000750328
0.00657585
0.000774509
0.00659419
0.000793662
0.00661505
0.00080812
0.00663832
0.000817479
0.00666388
0.00082245
0.00669149
0.000822444
0.00672097
0.000818773
0.00675198
0.000810292
0.00678434
0.000799405
0.00681761
0.00078355
0.0068517
0.000767491
0.00688601
0.000745044
0.000726894
0.006645
4.62862e-05
0.00664412
0.000131391
0.00664294
0.000207627
0.00664177
0.000277222
0.00664093
0.000341625
0.00664074
0.000401604
0.00664152
0.000457632
0.00664357
0.00050979
0.00664717
0.000558125
0.00665258
0.000602415
0.00666001
0.000642578
0.00666964
0.000678294
0.00668161
0.000709522
0.006696
0.000735941
0.00671285
0.000757663
0.00673212
0.000774389
0.00675376
0.000786479
0.00677763
0.000793612
0.00680357
0.000796503
0.00683136
0.000794658
0.00686079
0.000789343
0.00689154
0.000779546
0.00692341
0.00076753
0.006956
0.000750957
0.00698923
0.000734263
0.00702253
0.000711748
0.000693309
0.00677077
4.65207e-05
0.00677018
0.000131982
0.00676946
0.00020834
0.00676891
0.000277775
0.00676882
0.000341712
0.00676951
0.000400917
0.00677127
0.000455869
0.00677439
0.00050667
0.00677913
0.000553385
0.00678572
0.000595831
0.00679434
0.000633955
0.00680515
0.000667487
0.00681825
0.000696423
0.00683369
0.000720502
0.00685147
0.000739874
0.00687155
0.000754311
0.00689384
0.000764195
0.00691816
0.000769285
0.00694437
0.000770293
0.00697222
0.000766815
0.0070015
0.000760065
0.00703189
0.000749152
0.00706322
0.000736201
0.00709509
0.000719085
0.00712743
0.000701923
0.00715971
0.000679466
0.000660874
0.00689891
4.66516e-05
0.00689862
0.00013228
0.00689836
0.000208592
0.00689842
0.000277718
0.00689908
0.000341057
0.00690062
0.000399373
0.00690334
0.000453152
0.00690749
0.000502519
0.00691331
0.000547561
0.00692101
0.000588135
0.00693075
0.000624219
0.00694264
0.000655596
0.00695676
0.000682298
0.00697314
0.000704127
0.00699174
0.000721266
0.0070125
0.000733554
0.0070353
0.000741396
0.00705996
0.000744621
0.00708632
0.000743936
0.00711412
0.000739017
0.00714316
0.000731027
0.00717313
0.000719183
0.00720385
0.000705476
0.00723497
0.000687971
0.0072664
0.000670488
0.00729767
0.000648198
0.00062957
0.00702948
4.66793e-05
0.00702947
0.000132286
0.00702968
0.000208388
0.00703034
0.00027706
0.00703172
0.000339674
0.0070341
0.000396994
0.00703774
0.000449513
0.00704288
0.00049738
0.00704973
0.000540708
0.00705847
0.000579394
0.00706924
0.000613451
0.00708212
0.000642714
0.00709716
0.000667252
0.00711436
0.000686928
0.00713367
0.000701956
0.00715499
0.000712239
0.00717818
0.000718201
0.00720307
0.000719734
0.00722947
0.000717538
0.00725713
0.00071136
0.00728584
0.000702309
0.00731533
0.000689701
0.0073454
0.000675398
0.00737573
0.000657641
0.00740625
0.000639969
0.00743651
0.000617938
0.000599374
0.00716251
4.66049e-05
0.00716279
0.000132004
0.00716345
0.000207734
0.0071647
0.000275812
0.00716679
0.000337582
0.00716997
0.000393808
0.0071745
0.000444989
0.00718058
0.000491302
0.0071884
0.000532887
0.00719811
0.000569682
0.00720983
0.000601735
0.00722361
0.000628936
0.00723947
0.000651389
0.00725738
0.000669013
0.00727728
0.000682056
0.00729904
0.000690479
0.00732252
0.000694719
0.00734753
0.000694728
0.00737388
0.000691193
0.00740131
0.000683925
0.00742964
0.00067398
0.00745858
0.000660761
0.00748797
0.000646006
0.0075175
0.000628118
0.00754709
0.00061037
0.00757635
0.000588678
0.000570266
0.00729806
4.64302e-05
0.00729862
0.000131439
0.00729971
0.000206641
0.00730154
0.00027399
0.00730432
0.000334803
0.00730828
0.000389844
0.00731365
0.00043962
0.00732062
0.000484336
0.00732934
0.000524158
0.00733996
0.00055907
0.00735254
0.000589155
0.00736712
0.000614354
0.0073837
0.000634807
0.00740222
0.00065049
0.0074226
0.000661676
0.0074447
0.00066838
0.00746837
0.000671053
0.0074934
0.000669698
0.0075196
0.000664986
0.00754674
0.000656786
0.00757462
0.000646099
0.00760298
0.000632407
0.00763165
0.00061733
0.00766035
0.000599418
0.00768903
0.000581693
0.0077173
0.000560408
0.000542221
0.00743616
4.61572e-05
0.007437
0.000130599
0.00743852
0.000205119
0.0074409
0.000271612
0.00744434
0.000331364
0.00744905
0.000385137
0.00745522
0.000433449
0.00746302
0.000476535
0.00747259
0.000514588
0.00748402
0.000547635
0.00749738
0.000575796
0.00751268
0.000599061
0.00752988
0.000617606
0.00754891
0.000631458
0.00756967
0.000640915
0.00759201
0.000646042
0.00761576
0.000647298
0.00764073
0.00064473
0.00766672
0.000638994
0.0076935
0.000630008
0.00772088
0.000618718
0.00774861
0.000604678
0.00777655
0.000589394
0.00780441
0.000571551
0.00783217
0.000553938
0.00785946
0.000533115
0.000515217
0.00757687
4.57889e-05
0.00757798
0.00012949
0.00757991
0.000203184
0.00758283
0.000268699
0.0075869
0.000327291
0.00759231
0.000379724
0.00759924
0.000426525
0.00760781
0.000467957
0.00761816
0.000504243
0.00763034
0.000535453
0.0076444
0.000561741
0.00766031
0.000583147
0.00767804
0.00059988
0.00769748
0.000612014
0.00771852
0.000619871
0.00774101
0.000623557
0.00776477
0.000623539
0.0077896
0.000619902
0.0078153
0.000613285
0.00784167
0.000603646
0.0078685
0.000591882
0.00789557
0.000577606
0.00792275
0.000562216
0.00794978
0.000544525
0.00797662
0.000527098
0.00800295
0.000506785
0.00048923
0.00772024
4.53283e-05
0.0077216
0.000128123
0.00772394
0.00020085
0.00772736
0.000265274
0.00773204
0.000322618
0.00773811
0.000373646
0.00774574
0.000418897
0.00775504
0.000458661
0.00776609
0.000493191
0.00777894
0.000522599
0.00779361
0.000547074
0.00781006
0.000566702
0.00782822
0.000581721
0.00784798
0.000592251
0.00786922
0.000598633
0.00789176
0.000601012
0.00791545
0.000599856
0.00794006
0.000595286
0.00796543
0.00058792
0.00799132
0.000577752
0.00801758
0.000565627
0.00804397
0.000551215
0.00807037
0.000535812
0.00809655
0.000518342
0.00812248
0.000501168
0.00814787
0.000481402
0.000464236
0.00786631
4.47792e-05
0.00786792
0.000126509
0.00787064
0.000198137
0.00787455
0.000261362
0.00787979
0.000317377
0.00788649
0.000366946
0.00789477
0.000410615
0.00790472
0.000448707
0.00791641
0.0004815
0.00792986
0.00050915
0.00794506
0.000531876
0.00796195
0.000549809
0.00798046
0.000563216
0.00800045
0.000572255
0.0080218
0.000577284
0.00804433
0.000578484
0.00806787
0.00057632
0.00809221
0.000570944
0.00811718
0.000562951
0.00814256
0.000552367
0.0081682
0.000539986
0.00819389
0.000525528
0.00821951
0.000510191
0.00824485
0.000493005
0.00826988
0.000476139
0.00829433
0.000456952
0.000440211
0.00801514
4.41456e-05
0.00801699
0.000124659
0.00802006
0.000195063
0.00802443
0.000256992
0.0080302
0.000311606
0.00803748
0.000359667
0.00804636
0.000401735
0.00805691
0.000438157
0.00806917
0.000469241
0.00808314
0.00049518
0.00809879
0.000516228
0.00811605
0.000532552
0.00813481
0.000544448
0.00815496
0.000552108
0.00817634
0.000555905
0.00819878
0.000556046
0.0082221
0.000552998
0.00824611
0.000546933
0.00827064
0.000538427
0.00829547
0.000527528
0.00832047
0.000514985
0.00834544
0.00050056
0.00837027
0.00048536
0.00839477
0.00046851
0.00841891
0.000452
0.00844244
0.000433416
0.000417133
0.00816677
4.34321e-05
0.00816885
0.000122586
0.00817226
0.00019165
0.00817706
0.000252192
0.00818332
0.000305341
0.00819113
0.000351857
0.00820056
0.000392309
0.00821164
0.000427072
0.0082244
0.000456481
0.00823882
0.000480765
0.00825484
0.000500206
0.00827238
0.000515011
0.00829134
0.000525496
0.00831156
0.000531886
0.0083329
0.000534565
0.00835518
0.000533766
0.00837823
0.000529948
0.00840186
0.000523304
0.0084259
0.000514387
0.00845016
0.000503268
0.0084745
0.000490646
0.00849873
0.000476324
0.00852277
0.000461323
0.00854643
0.000444853
0.00856969
0.00042874
0.00859232
0.000410778
0.000394977
0.00832127
4.26434e-05
0.00832355
0.000120304
0.00832728
0.000187921
0.00833248
0.000246994
0.0083392
0.000298622
0.00834749
0.000343562
0.00835741
0.000382394
0.00836897
0.000415515
0.00838216
0.000443287
0.00839695
0.000465974
0.00841327
0.000483885
0.00843102
0.000497259
0.00845008
0.000506434
0.00847031
0.000511661
0.00849154
0.000513333
0.0085136
0.000511702
0.00853633
0.000507222
0.00855953
0.000500101
0.00858305
0.000490868
0.00860671
0.000479611
0.00863037
0.000466987
0.00865386
0.000452829
0.00867711
0.00043808
0.00869993
0.000422028
0.00872233
0.000406345
0.00874408
0.000389019
0.000373721
0.00847868
4.17848e-05
0.00848116
0.000117827
0.00848518
0.000183898
0.00849075
0.00024143
0.00849788
0.00029149
0.00850661
0.000334831
0.00851696
0.000372043
0.00852893
0.000403547
0.00854249
0.000429728
0.00855758
0.00045088
0.00857413
0.000467337
0.00859202
0.00047937
0.00861112
0.000487332
0.00863128
0.000491499
0.00865235
0.000492269
0.00867414
0.00048991
0.00869649
0.000484868
0.00871923
0.000477363
0.0087422
0.000467899
0.00876523
0.000456581
0.0087882
0.00044402
0.00881095
0.000430081
0.0088334
0.00041563
0.0088554
0.000400027
0.00887694
0.000384802
0.00889784
0.000368121
0.000353341
0.00863907
4.08615e-05
0.00864172
0.000115172
0.00864601
0.000179607
0.00865191
0.000235533
0.00865941
0.000283985
0.00866853
0.000325713
0.00867926
0.000361313
0.00869158
0.000391229
0.00870544
0.000415866
0.00872077
0.000435548
0.00873748
0.000450631
0.00875544
0.00046141
0.00877452
0.000468256
0.00879456
0.000471461
0.0088154
0.000471429
0.00883687
0.000468438
0.00885881
0.000462927
0.00888105
0.000455123
0.00890344
0.000445507
0.00892583
0.000434195
0.00894809
0.000421756
0.00897009
0.000408082
0.00899175
0.000393968
0.00901294
0.000378841
0.00903364
0.000364096
0.0090537
0.000348065