/*--------------------------------*- C++ -*----------------------------------*\
  =========                 |
  \\      /  F ield         | OpenFOAM: The Open Source CFD Toolbox
   \\    /   O peration     | Website:  https://openfoam.org
    \\  /    A nd           | Version:  7
     \\/     M anipulation  |
\*---------------------------------------------------------------------------*/
FoamFile
{
    version     2.0;
    format      ascii;
    class       volVectorField;
    location    "220";
    object      U;
}
// * * * * * * * * * * * * * * * * * * * * * * * * * * * * * * * * * * * * * //

dimensions      [0 1 -1 0 0 0 0];

internalField   nonuniform List<vector> 
7156
(
(0.805605 0.276046 1.42318e-19)
(0.798598 0.270203 -1.54988e-19)
(0.791736 0.264158 7.90861e-20)
(0.773302 0.270273 -2.33401e-19)
(0.785025 0.257914 -6.37449e-21)
(0.766421 0.263531 -2.17556e-19)
(0.77847 0.251475 2.36662e-19)
(0.759706 0.25659 3.57443e-19)
(0.772076 0.244845 1.75813e-19)
(0.753162 0.249454 1.95311e-19)
(0.765848 0.238028 -4.47149e-19)
(0.733046 0.253806 -3.02997e-19)
(0.746795 0.242127 -1.92004e-19)
(0.759791 0.231028 3.15332e-19)
(0.726536 0.245943 6.50598e-19)
(0.74061 0.234613 -5.51243e-20)
(0.753911 0.223849 -9.08966e-20)
(0.720223 0.237889 -1.62148e-19)
(0.734613 0.226918 -1.43272e-19)
(0.748213 0.216497 1.91798e-19)
(0.714113 0.229649 -2.25205e-19)
(0.72881 0.219046 -3.192e-20)
(0.742701 0.208976 -4.40988e-19)
(0.692747 0.23192 3.99503e-19)
(0.708212 0.221227 7.86358e-20)
(0.723206 0.211003 1.80963e-19)
(0.73738 0.201292 5.22197e-20)
(0.686741 0.222927 -1.69379e-20)
(0.702526 0.212631 8.89065e-20)
(0.717806 0.202794 -2.18113e-19)
(0.732255 0.193449 8.26018e-20)
(0.680966 0.213756 -1.73642e-19)
(0.697059 0.203866 -1.03683e-19)
(0.712615 0.194424 -5.67214e-20)
(0.727332 0.185454 2.22876e-19)
(0.675428 0.204412 -4.70039e-20)
(0.691817 0.194939 -6.57467e-21)
(0.707639 0.1859 2.6926e-20)
(0.722613 0.177312 -7.13065e-20)
(0.670132 0.194902 1.74539e-19)
(0.686806 0.185854 2.15842e-19)
(0.702881 0.177227 1.36405e-19)
(0.718104 0.169029 1.8151e-19)
(0.64735 0.194319 -1.58262e-19)
(0.665084 0.185234 -1.54772e-19)
(0.68203 0.17662 6.39027e-20)
(0.698348 0.168413 -1.96758e-19)
(0.71381 0.160612 -1.4936e-19)
(0.642281 0.184033 2.54224e-19)
(0.660289 0.175414 9.25324e-20)
(0.677493 0.167243 -4.13077e-20)
(0.694043 0.159462 4.08113e-20)
(0.709733 0.152065 1.40466e-19)
(0.637483 0.173594 -3.02698e-19)
(0.65575 0.165449 -6.4673e-20)
(0.673201 0.15773 -6.05231e-20)
(0.68997 0.150382 -8.32184e-20)
(0.705878 0.143396 -2.38332e-19)
(0.632961 0.16301 -6.80999e-20)
(0.651474 0.155348 -5.52064e-21)
(0.669158 0.148087 2.05716e-19)
(0.686134 0.141181 -2.1728e-20)
(0.702248 0.134611 -4.29845e-22)
(0.628719 0.152289 4.36686e-19)
(0.647464 0.145118 1.6155e-19)
(0.665367 0.138323 -2.55955e-19)
(0.682539 0.131863 2.66927e-19)
(0.698848 0.125717 3.80241e-20)
(0.624763 0.141439 -2.42008e-19)
(0.643725 0.134766 -1.17091e-19)
(0.661833 0.128444 1.7008e-19)
(0.679187 0.122437 -6.04201e-20)
(0.695679 0.116721 6.41534e-20)
(0.621096 0.130469 6.90218e-20)
(0.64026 0.124302 1.57935e-19)
(0.658559 0.118459 -1.7101e-19)
(0.676083 0.112911 -7.56899e-20)
(0.692747 0.107629 3.15207e-20)
(0.597443 0.125359 -4.47593e-20)
(0.617722 0.119388 -1.00035e-19)
(0.637073 0.113732 -9.43365e-20)
(0.655549 0.108375 7.15341e-20)
(0.67323 0.10329 -1.31516e-19)
(0.690052 0.098448 -4.32527e-20)
(0.594184 0.113629 -1.27735e-19)
(0.614645 0.108204 7.9489e-20)
(0.634168 0.103065 9.06826e-21)
(0.652806 0.0981995 5.60996e-20)
(0.670631 0.0935827 4.60094e-20)
(0.687599 0.089186 1.76572e-20)
(0.591242 0.1018 1.41751e-20)
(0.611868 0.0969255 1.49989e-19)
(0.631547 0.0923103 6.3111e-20)
(0.650332 0.0879408 -1.60122e-19)
(0.668288 0.0837967 4.77899e-21)
(0.68539 0.0798496 8.83617e-21)
(0.58862 0.0898802 8.77271e-20)
(0.609394 0.0855625 -1.42445e-20)
(0.629214 0.0814754 1.77493e-20)
(0.648131 0.0776069 -1.54186e-20)
(0.666205 0.0739396 -4.36113e-20)
(0.683426 0.0704462 -1.68159e-20)
(0.58632 0.0778799 -6.36172e-21)
(0.607226 0.0741237 -7.41075e-20)
(0.627171 0.0705692 -5.43889e-20)
(0.646205 0.0672059 4.48174e-20)
(0.664383 0.0640191 5.60993e-20)
(0.68171 0.0609832 4.07012e-20)
(0.584346 0.0658088 -1.14699e-19)
(0.605366 0.0626183 1.49219e-20)
(0.625419 0.0596005 -2.39856e-20)
(0.644556 0.0567461 1.19285e-19)
(0.662825 0.054043 -3.46256e-20)
(0.680244 0.051468 -2.13199e-20)
(0.5827 0.0536767 9.78508e-21)
(0.603817 0.0510556 -1.25492e-19)
(0.623963 0.048578 1.24121e-20)
(0.643186 0.0462359 -8.70656e-20)
(0.661531 0.0440192 4.99616e-20)
(0.67903 0.0419081 4.5627e-20)
(0.581383 0.0414935 6.89684e-20)
(0.602581 0.039445 7.56763e-20)
(0.622802 0.0375106 -3.18848e-20)
(0.642096 0.0356835 -4.89864e-20)
(0.660505 0.0339557 -3.46725e-20)
(0.678069 0.032311 8.15158e-20)
(0.580397 0.0292691 -3.08393e-21)
(0.601658 0.027796 -2.70755e-20)
(0.621939 0.0264072 4.06631e-20)
(0.641289 0.0250975 2.4342e-21)
(0.659747 0.0238606 -2.10054e-20)
(0.677361 0.0226844 1.52411e-20)
(0.579745 0.0170137 -6.74959e-20)
(0.601051 0.0161179 -5.66084e-21)
(0.621375 0.0152768 1.40725e-21)
(0.640765 0.0144863 2.80016e-20)
(0.659259 0.013742 1.96303e-20)
(0.676909 0.0130356 -1.12943e-20)
(0.579426 0.00473736 2.65055e-20)
(0.600761 0.00442049 -6.9827e-21)
(0.62111 0.00412845 3.70945e-20)
(0.640524 0.00385849 -2.84237e-20)
(0.65904 0.00360782 -9.43119e-21)
(0.676712 0.00337267 -2.70654e-21)
(0.579441 -0.00754985 -1.53999e-21)
(0.600787 -0.00728682 -6.69177e-21)
(0.621146 -0.00702885 -1.27897e-20)
(0.640569 -0.00677737 -3.15103e-21)
(0.659092 -0.00653349 2.14697e-21)
(0.676771 -0.00629608 -7.52042e-21)
(0.579792 -0.0198377 -2.36729e-21)
(0.601131 -0.0189944 -5.4668e-21)
(0.621483 -0.018186 -1.14568e-20)
(0.640898 -0.0174127 -3.40893e-21)
(0.659415 -0.0166739 8.27792e-22)
(0.677088 -0.0159634 -3.63046e-21)
(0.580477 -0.0321162 2.5352e-20)
(0.601792 -0.0306926 3.36878e-21)
(0.62212 -0.029334 2.80205e-20)
(0.641512 -0.028039 -2.48648e-20)
(0.660009 -0.0268054 -8.03398e-21)
(0.677661 -0.0256225 -1.09119e-20)
(0.581497 -0.0443749 -3.97162e-20)
(0.60277 -0.042372 1.31134e-20)
(0.623057 -0.0404637 -5.25153e-20)
(0.642411 -0.0386477 6.17546e-20)
(0.660874 -0.0369198 1.27587e-20)
(0.67849 -0.035265 -7.47665e-21)
(0.582852 -0.056604 2.93409e-20)
(0.604064 -0.0540228 -2.66006e-20)
(0.624295 -0.0515661 1.87384e-20)
(0.643594 -0.0492302 1.73725e-20)
(0.662008 -0.0470089 -1.0181e-20)
(0.679575 -0.0448832 -2.04233e-20)
(0.584539 -0.0687931 4.12973e-20)
(0.605675 -0.0656355 8.1392e-20)
(0.625831 -0.0626321 -5.81235e-20)
(0.64506 -0.0597779 6.83216e-21)
(0.663413 -0.0570645 -1.43984e-20)
(0.680916 -0.0544693 -1.49759e-20)
(0.586558 -0.0809322 -3.09337e-20)
(0.6076 -0.0772006 -6.85749e-20)
(0.627666 -0.0736528 -1.61598e-21)
(0.646809 -0.0702824 -8.70085e-20)
(0.665086 -0.0670786 5.57488e-20)
(0.68251 -0.0640158 8.00004e-20)
(0.588908 -0.0930114 -1.36331e-19)
(0.609837 -0.0887087 4.82887e-20)
(0.629797 -0.0846191 1.71533e-20)
(0.648838 -0.0807351 1.02403e-19)
(0.667026 -0.0770432 -6.81858e-20)
(0.684358 -0.073515 -3.3851e-20)
(0.591586 -0.105021 1.76167e-20)
(0.612387 -0.10015 -8.60872e-20)
(0.632223 -0.0955223 -1.84498e-20)
(0.651148 -0.0911276 7.06362e-21)
(0.669231 -0.0869501 9.0669e-20)
(0.686458 -0.0829592 3.33016e-20)
(0.59459 -0.11695 1.47631e-19)
(0.615245 -0.111516 -6.5355e-20)
(0.634942 -0.106353 7.63462e-20)
(0.653734 -0.101452 -7.65808e-20)
(0.671701 -0.0967914 4.64499e-21)
(0.688808 -0.092341 -4.49333e-20)
(0.597918 -0.128789 5.83122e-20)
(0.61841 -0.122796 6.84112e-20)
(0.637952 -0.117104 1.07074e-20)
(0.656596 -0.111699 2.58439e-21)
(0.674432 -0.106559 -6.72326e-20)
(0.691406 -0.101653 -1.70306e-20)
(0.601567 -0.14053 -1.30418e-19)
(0.621879 -0.133983 -4.60649e-20)
(0.64125 -0.127764 3.91825e-20)
(0.659732 -0.121861 5.90481e-20)
(0.677424 -0.116246 1.01788e-19)
(0.694251 -0.110887 2.92403e-20)
(0.605534 -0.152161 1.76362e-19)
(0.62565 -0.145066 -1.05744e-19)
(0.644834 -0.138327 -1.29826e-19)
(0.663138 -0.13193 -9.94681e-21)
(0.680672 -0.125844 -1.00471e-19)
(0.697339 -0.120037 -4.43196e-20)
(0.629718 -0.156036 9.32359e-20)
(0.648699 -0.148783 9.89915e-20)
(0.666811 -0.141898 -2.27929e-19)
(0.684175 -0.135345 -9.09047e-21)
(0.70067 -0.129095 4.12319e-21)
(0.634081 -0.166885 -2.33747e-19)
(0.652844 -0.159124 -8.10841e-20)
(0.670749 -0.151757 1.51258e-19)
(0.687929 -0.144742 -1.74602e-20)
(0.704239 -0.138054 -7.32858e-20)
(0.638734 -0.177605 3.04854e-19)
(0.657265 -0.169342 1.2979e-19)
(0.674948 -0.161499 -1.64985e-19)
(0.691932 -0.154027 1.6682e-19)
(0.708045 -0.146907 8.06018e-20)
(0.643674 -0.188186 -5.22845e-20)
(0.661957 -0.179429 -5.71178e-21)
(0.679405 -0.171116 1.73924e-19)
(0.696179 -0.163194 -5.47286e-20)
(0.712083 -0.155646 -1.28438e-19)
(0.648895 -0.19862 -2.40007e-19)
(0.666917 -0.189376 -8.80121e-20)
(0.684116 -0.180602 -2.93581e-20)
(0.700668 -0.172235 -1.18264e-19)
(0.716351 -0.164266 6.21292e-21)
(0.654395 -0.208899 2.8916e-19)
(0.67214 -0.199177 1.29716e-19)
(0.689076 -0.189948 -4.282e-20)
(0.705394 -0.181142 9.98694e-20)
(0.720846 -0.172759 1.14187e-19)
(0.660167 -0.219015 -8.26287e-20)
(0.677621 -0.208823 -1.38418e-19)
(0.694282 -0.199147 4.70986e-20)
(0.710354 -0.18991 -2.17345e-19)
(0.725563 -0.181118 -1.7517e-19)
(0.683357 -0.218306 2.01809e-19)
(0.699728 -0.208193 1.1814e-19)
(0.715542 -0.198532 2.00115e-19)
(0.730498 -0.189338 1.94519e-19)
(0.689342 -0.227621 -1.30865e-19)
(0.705411 -0.217078 1.36979e-19)
(0.720956 -0.207001 -5.69114e-20)
(0.735649 -0.197412 -1.2065e-19)
(0.69557 -0.236759 -3.29086e-19)
(0.711326 -0.225796 -1.33899e-19)
(0.726589 -0.21531 3.93609e-20)
(0.74101 -0.205334 1.25265e-19)
(0.702037 -0.245714 2.59666e-20)
(0.717467 -0.23434 -1.9206e-19)
(0.732438 -0.223453 -4.38454e-20)
(0.746577 -0.213097 2.86447e-20)
(0.708737 -0.254478 1.17872e-20)
(0.723829 -0.242704 2.96396e-20)
(0.738497 -0.231425 3.81471e-19)
(0.752346 -0.220696 -6.24361e-20)
(0.730407 -0.250882 -1.8376e-20)
(0.744761 -0.23922 -1.88094e-20)
(0.758313 -0.228126 -2.72233e-19)
(0.737194 -0.258868 -2.81337e-19)
(0.751225 -0.246832 -7.46297e-20)
(0.764471 -0.23538 1.86589e-19)
(0.744187 -0.266657 5.21007e-19)
(0.757884 -0.254256 -7.61682e-20)
(0.770817 -0.242454 -4.99472e-20)
(0.751378 -0.274243 -2.07653e-19)
(0.764733 -0.261486 -1.80057e-19)
(0.777346 -0.249343 2.00178e-19)
(0.771764 -0.268518 9.52427e-20)
(0.784052 -0.25604 -3.15147e-19)
(0.778974 -0.275348 1.99961e-19)
(0.790931 -0.262543 1.09464e-19)
(0.786356 -0.28197 -3.55527e-20)
(0.797977 -0.268846 9.59056e-20)
(0.793904 -0.288381 1.49489e-20)
(0.805186 -0.274946 -7.48925e-20)
(0.812551 -0.280838 -5.4851e-20)
(0.820068 -0.286519 -1.24997e-19)
(0.827732 -0.291985 3.84651e-21)
(0.999984 0.000994076 0)
(0.999227 0.00299532 0)
(0.997774 0.0051626 0)
(0.995731 0.00756759 0)
(0.993141 0.0103133 0)
(0.990062 0.0134604 0)
(0.986522 0.0170681 0)
(0.982566 0.0211883 0)
(0.978212 0.0258703 0)
(0.973505 0.0311695 0)
(0.968465 0.0371405 0)
(0.963147 0.0438492 0)
(0.957579 0.0513605 0)
(0.951841 0.0597525 0)
(0.945974 0.0691002 0)
(0.940099 0.0794895 0)
(0.934269 0.0909991 0)
(0.928673 0.103712 0)
(0.923362 0.117697 0)
(0.918631 0.133015 0)
(0.914483 0.14971 0)
(0.911411 0.167779 0)
(0.909223 0.187248 0)
(0.908848 0.207951 0)
(0.909482 0.230029 0)
(0.913207 0.252724 0)
(0.91736 0.277388 0)
(0.999985 0.00107579 0)
(0.999249 0.00324252 0)
(0.997838 0.00556596 0)
(0.995852 0.00812858 0)
(0.99334 0.01103 0)
(0.990361 0.0143344 0)
(0.986947 0.0181009 0)
(0.983144 0.0223813 0)
(0.978979 0.0272246 0)
(0.974499 0.0326836 0)
(0.969731 0.0388109 0)
(0.964739 0.0456661 0)
(0.959557 0.0533103 0)
(0.954275 0.06181 0)
(0.948942 0.0712334 0)
(0.943692 0.0816478 0)
(0.938581 0.0931225 0)
(0.933815 0.10571 0)
(0.92944 0.119474 0)
(0.925776 0.134422 0)
(0.922791 0.150607 0)
(0.921025 0.167934 0)
(0.92019 0.186497 0)
(0.921324 0.2059 0)
(0.923364 0.226616 0)
(0.928727 0.247088 0)
(0.933934 0.270061 -1.66021e-28)
(0.999986 0.00115772 0)
(0.999274 0.00349017 0)
(0.99791 0.00597147 0)
(0.995991 0.0086937 0)
(0.99357 0.0117537 0)
(0.990706 0.0152186 0)
(0.987434 0.0191473 0)
(0.983805 0.0235914 0)
(0.979849 0.0285996 0)
(0.975619 0.0342211 0)
(0.971148 0.0405069 0)
(0.966505 0.0475094 0)
(0.961729 0.0552853 0)
(0.956922 0.0638889 0)
(0.952133 0.073381 0)
(0.947509 0.0838088 0)
(0.943104 0.0952321 0)
(0.939137 0.107672 0)
(0.935641 0.121183 0)
(0.932953 0.135722 0)
(0.931006 0.151354 0)
(0.930368 0.167883 0)
(0.930666 0.185487 0)
(0.933001 0.203537 0)
(0.936128 0.222822 0)
(0.942575 0.241158 0)
(0.948511 0.262172 0)
(0.999986 0.00123916 0)
(0.9993 0.00373536 0)
(0.997987 0.00637304 0)
(0.996143 0.0092518 0)
(0.993821 0.0124669 0)
(0.991083 0.0160874 0)
(0.987967 0.0201725 0)
(0.984526 0.0247729 0)
(0.980796 0.0299366 0)
(0.976834 0.0357097 0)
(0.972677 0.0421405 0)
(0.968401 0.0492748 0)
(0.964049 0.0571643 0)
(0.95973 0.0658519 0)
(0.955495 0.0753906 0)
(0.951498 0.0858093 0)
(0.947791 0.0971581 0)
(0.944598 0.10943 0)
(0.941939 0.122672 0)
(0.940157 0.136797 0)
(0.939156 0.15188 0)
(0.939504 0.167644 0)
(0.940779 0.184335 0)
(0.944066 0.201157 0)
(0.948071 0.219112 0)
(0.955193 0.235693 0)
(0.961768 0.254924 0)
(0.999986 0.00131914 0)
(0.999327 0.00397548 0)
(0.998069 0.00676592 0)
(0.996304 0.00979609 0)
(0.994087 0.0131603 0)
(0.991483 0.0169286 0)
(0.988532 0.0211602 0)
(0.985291 0.0259047 0)
(0.981798 0.0312089 0)
(0.978116 0.0371151 0)
(0.974286 0.0436686 0)
(0.970389 0.0509082 0)
(0.966472 0.0588801 0)
(0.962648 0.0676156 0)
(0.95897 0.0771596 0)
(0.955595 0.0875233 0)
(0.952571 0.0987474 0)
(0.950124 0.110799 0)
(0.948261 0.123719 0)
(0.947319 0.13738 0)
(0.947183 0.151868 0)
(0.948394 0.166841 0)
(0.95052 0.182601 0)
(0.95456 0.198237 0)
(0.959285 0.214892 0)
(0.966833 0.229916 0)
(0.97393 0.24749 0)
(0.999987 0.0013973 0)
(0.999356 0.00420952 0)
(0.998155 0.00714841 0)
(0.996472 0.0103244 0)
(0.994366 0.0138309 0)
(0.991902 0.0177387 0)
(0.989122 0.0221065 0)
(0.986089 0.0269822 0)
(0.982841 0.032411 0)
(0.979448 0.0384312 0)
(0.975953 0.0450842 0)
(0.972441 0.0524017 0)
(0.968963 0.0604237 0)
(0.965633 0.0691698 0)
(0.962507 0.0786766 0)
(0.95974 0.0889384 0)
(0.957379 0.0999865 0)
(0.955641 0.111764 0)
(0.954529 0.124306 0)
(0.954357 0.137453 0)
(0.955005 0.151298 0)
(0.956965 0.165451 0)
(0.959823 0.180255 0)
(0.964458 0.194728 0)
(0.969758 0.210103 0)
(0.977565 0.223682 0)
(0.985021 0.239668 0)
(0.999987 0.0014734 0)
(0.999386 0.00443687 0)
(0.998244 0.00751946 0)
(0.996647 0.0108352 0)
(0.994656 0.0144771 0)
(0.992336 0.0185155 0)
(0.989734 0.0230087 0)
(0.986913 0.0280025 0)
(0.983917 0.0335399 0)
(0.980817 0.0396549 0)
(0.97766 0.0463846 0)
(0.974535 0.0537533 0)
(0.971494 0.0617944 0)
(0.968653 0.0705162 0)
(0.966067 0.079947 0)
(0.963889 0.0900647 0)
(0.962162 0.100892 0)
(0.961092 0.112351 0)
(0.960678 0.124473 0)
(0.961203 0.137068 0)
(0.962553 0.150241 0)
(0.965157 0.163562 0)
(0.968635 0.177409 0)
(0.973736 0.190763 0)
(0.979478 0.2049 0)
(0.987416 0.217145 0)
(0.995083 0.231631 0)
(0.999988 0.00154721 0)
(0.999418 0.00465683 0)
(0.998336 0.00787791 0)
(0.996828 0.0113271 0)
(0.994954 0.0150966 0)
(0.992783 0.0192564 0)
(0.990362 0.0238637 0)
(0.987758 0.0289618 0)
(0.985017 0.0345915 0)
(0.982213 0.0407816 0)
(0.979395 0.0475653 0)
(0.976655 0.0549588 0)
(0.974045 0.0629893 0)
(0.971682 0.0716536 0)
(0.969619 0.0809723 0)
(0.968003 0.0909081 0)
(0.966878 0.101477 0)
(0.966428 0.11258 0)
(0.966655 0.124248 0)
(0.967807 0.136268 0)
(0.969776 0.148751 0)
(0.972927 0.161246 0)
(0.976919 0.174152 0)
(0.982378 0.186443 0)
(0.988444 0.199402 0)
(0.996415 0.210428 0)
(1.00418 0.223526 0)
(0.999989 0.00161846 0)
(0.99945 0.00486868 0)
(0.998431 0.00822249 0)
(0.997014 0.0117981 0)
(0.995262 0.0156872 0)
(0.993242 0.0199585 0)
(0.991006 0.024668 0)
(0.98862 0.0298564 0)
(0.986136 0.0355614 0)
(0.983627 0.0418072 0)
(0.981147 0.048622 0)
(0.978785 0.0560145 0)
(0.976599 0.0640053 0)
(0.974697 0.0725808 0)
(0.973137 0.0817538 0)
(0.972054 0.0914736 0)
(0.971491 0.101749 0)
(0.971614 0.112467 0)
(0.972423 0.123655 0)
(0.974129 0.135083 0)
(0.976637 0.146871 0)
(0.980246 0.158556 0)
(0.984656 0.170547 0)
(0.990376 0.181832 0)
(0.996668 0.193682 2.30751e-28)
(1.0046 0.2036 -2.41951e-28)
(1.01238 0.215426 0)
(0.999989 0.0016869 0)
(0.999483 0.00507171 0)
(0.998529 0.00855196 0)
(0.997205 0.0122467 0)
(0.995576 0.0162467 0)
(0.99371 0.0206192 0)
(0.991661 0.0254187 0)
(0.989496 0.0306828 0)
(0.987268 0.0364463 0)
(0.985053 0.042728 0)
(0.982906 0.0495515 0)
(0.980915 0.0569179 0)
(0.979138 0.0648415 0)
(0.977681 0.0732987 0)
(0.976599 0.0822953 0)
(0.976016 0.0917687 0)
(0.975975 0.101723 0)
(0.976618 0.112031 0)
(0.977949 0.122719 0)
(0.980141 0.133549 0)
(0.98311 0.144642 0)
(0.987094 0.155537 0)
(0.991833 0.166646 0)
(0.997734 0.176988 0)
(1.00417 0.1878 0)
(1.01199 0.196711 0)
(1.01972 0.207376 0)
(0.99999 0.00175229 0)
(0.999517 0.00526519 0)
(0.998629 0.00886513 0)
(0.9974 0.0126711 0)
(0.995896 0.0167729 0)
(0.994186 0.0212361 0)
(0.992324 0.026113 0)
(0.99038 0.0314382 0)
(0.988408 0.0372431 0)
(0.986483 0.0435413 0)
(0.984663 0.0503517 0)
(0.983032 0.0576679 0)
(0.981651 0.0654984 0)
(0.980617 0.07381 0)
(0.979986 0.0826028 0)
(0.979868 0.0918037 0)
(0.980305 0.101412 0)
(0.981419 0.111292 0)
(0.983211 0.121468 0)
(0.985823 0.131698 0)
(0.989178 0.142106 0)
(0.993463 0.152238 0)
(0.998453 0.162503 0)
(1.00446 0.171962 0)
(1.01097 0.181809 0)
(1.01864 0.189806 0)
(1.02627 0.199414 0)
(0.999991 0.00181438 0)
(0.999552 0.00544844 0)
(0.99873 0.00916083 0)
(0.997598 0.0130699 0)
(0.996221 0.0172641 0)
(0.994667 0.0218068 0)
(0.992994 0.0267485 0)
(0.991269 0.0321199 0)
(0.98955 0.0379494 0)
(0.98791 0.0442451 0)
(0.986408 0.0510213 0)
(0.985126 0.0582645 0)
(0.984123 0.0659776 0)
(0.98349 0.0741194 0)
(0.983281 0.082684 0)
(0.983593 0.0915904 0)
(0.984465 0.100834 0)
(0.985998 0.110273 0)
(0.988193 0.11993 0)
(0.991162 0.129566 0)
(0.994835 0.139302 0)
(0.999353 0.148702 0)
(1.00452 0.158165 0)
(1.01058 0.166802 0)
(1.01709 0.175755 0)
(1.02458 0.182924 0)
(1.03206 0.191573 0)
(0.999991 0.00187292 0)
(0.999587 0.00562079 0)
(0.998833 0.00943798 0)
(0.997798 0.0134415 0)
(0.996549 0.0177184 0)
(0.995152 0.0223295 0)
(0.993666 0.0273229 0)
(0.992159 0.0327259 0)
(0.990689 0.0385632 0)
(0.989328 0.0448381 0)
(0.988135 0.0515599 0)
(0.987187 0.0587088 0)
(0.986544 0.0662824 0)
(0.986287 0.0742323 0)
(0.986469 0.0825478 0)
(0.987174 0.0911419 0)
(0.988437 0.100006 0)
(0.990341 0.108996 0)
(0.992884 0.118135 0)
(0.99615 0.127186 0)
(1.00008 0.13627 0)
(1.00477 0.144971 0)
(1.01006 0.153676 0)
(1.01611 0.161549 1.0239e-28)
(1.02258 0.169679 -1.0738e-28)
(1.02986 0.176099 9.29662e-29)
(1.03715 0.183879 -9.74564e-29)
(0.999992 0.00192771 0)
(0.999623 0.00578161 0)
(0.998937 0.00969554 0)
(0.998 0.0137845 0)
(0.996878 0.018134 0)
(0.995638 0.0228021 0)
(0.994338 0.0278344 0)
(0.993046 0.0332544 0)
(0.991819 0.0390833 0)
(0.990729 0.0453195 0)
(0.989833 0.0519679 0)
(0.989204 0.0590028 0)
(0.988901 0.0664167 0)
(0.988995 0.0741558 0)
(0.989538 0.0822046 0)
(0.9906 0.0904721 0)
(0.992212 0.0989468 0)
(0.994437 0.107485 0)
(0.997277 0.116109 0)
(1.00079 0.124589 0)
(1.00491 0.133044 0)
(1.00972 0.141082 0)
(1.01508 0.149075 0)
(1.02109 0.156241 0)
(1.02747 0.163613 0)
(1.03451 0.169357 0)
(1.0416 0.176351 0)
(0.999993 0.00197853 0)
(0.999659 0.00593033 0)
(0.999041 0.00993254 0)
(0.998203 0.0140979 0)
(0.997208 0.0185097 0)
(0.996123 0.0232232 0)
(0.995007 0.0282814 0)
(0.993925 0.033704 0)
(0.992936 0.0395088 0)
(0.992107 0.0456894 0)
(0.991496 0.0522465 0)
(0.99117 0.0591493 0)
(0.991185 0.0663857 0)
(0.991605 0.0738974 0)
(0.992477 0.0816652 0)
(0.993859 0.0895958 0)
(0.995778 0.0976754 0)
(0.998281 0.105763 0)
(1.00137 0.113879 0)
(1.00507 0.121805 0)
(1.00934 0.129658 0)
(1.01422 0.137069 0)
(1.0196 0.144396 0)
(1.02553 0.150909 0)
(1.0318 0.157586 0)
(1.03858 0.16272 0)
(1.04545 0.169005 -1.01403e-28)
(0.999994 0.00202518 0)
(0.999695 0.00606638 0)
(0.999146 0.0101481 0)
(0.998405 0.0143803 0)
(0.997537 0.018844 0)
(0.996605 0.0235914 0)
(0.995669 0.0286626 0)
(0.994793 0.0340739 0)
(0.994034 0.0398394 0)
(0.993456 0.0459485 0)
(0.993116 0.0523977 0)
(0.993075 0.059152 0)
(0.993386 0.0661953 0)
(0.994106 0.0734659 0)
(0.995276 0.0809414 0)
(0.996942 0.0885281 0)
(0.999129 0.0962104 0)
(1.00187 0.103852 0)
(1.00515 0.111471 0)
(1.00901 0.118864 0)
(1.01338 0.126142 0)
(1.01829 0.132963 0)
(1.02365 0.139668 0)
(1.02947 0.145581 0)
(1.0356 0.151621 0)
(1.04212 0.156205 0)
(1.04875 0.16185 0)
(0.999995 0.00206749 0)
(0.999731 0.00618927 0)
(0.999249 0.0103415 0)
(0.998606 0.0146309 0)
(0.997862 0.0191358 0)
(0.997082 0.0239057 0)
(0.996322 0.0289773 0)
(0.995645 0.0343637 0)
(0.995108 0.0400754 -1.11661e-27)
(0.994769 0.046098 1.17278e-27)
(0.994686 0.0524242 0)
(0.994912 0.0590155 0)
(0.995498 0.0658522 0)
(0.99649 0.0728705 0)
(0.997927 0.0800455 0)
(0.999844 0.0872844 0)
(1.00226 0.0945705 0)
(1.00519 0.101773 0)
(1.00864 0.108911 0)
(1.0126 0.115791 0)
(1.01704 0.122524 0)
(1.02194 0.128791 0)
(1.02725 0.134918 0)
(1.03293 0.140279 0)
(1.03891 0.145738 0)
(1.04516 0.149828 0)
(1.05155 0.154894 0)
(0.999995 0.00210529 0)
(0.999767 0.00629857 0)
(0.999352 0.0105119 0)
(0.998804 0.0148487 0)
(0.998184 0.0193844 0)
(0.997551 0.0241651 0)
(0.996963 0.0292249 0)
(0.996478 0.0345733 0)
(0.996153 0.0402175 0)
(0.996042 0.0461397 0)
(0.9962 0.0523293 0)
(0.996674 0.0587448 0)
(0.997511 0.0653637 0)
(0.99875 0.072121 0)
(1.00042 0.0789901 0)
(1.00256 0.0858802 0)
(1.00517 0.092774 0)
(1.00826 0.0995478 0)
(1.01183 0.10622 0)
(1.01586 0.112612 0)
(1.02033 0.118829 0)
(1.0252 0.124579 0)
(1.03043 0.13017 0)
(1.03596 0.135024 0)
(1.04175 0.139953 0)
(1.04774 0.143597 0)
(1.05388 0.148141 0)
(0.999996 0.00213845 0)
(0.999803 0.0063939 0)
(0.999454 0.010659 0)
(0.999 0.0150331 0)
(0.9985 0.019589 0)
(0.99801 0.0243694 0)
(0.997588 0.0294053 0)
(0.997288 0.0347032 0)
(0.997165 0.040267 0)
(0.997269 0.0460762 0)
(0.997651 0.0521169 0)
(0.998355 0.0583458 0)
(0.99942 0.0647377 0)
(1.00088 0.0712277 0)
(1.00276 0.0777879 0)
(1.00508 0.0843306 0)
(1.00785 0.0908387 0)
(1.01107 0.0971957 0)
(1.01473 0.10342 0)
(1.0188 0.109347 0)
(1.02326 0.115079 0)
(1.02807 0.120346 0)
(1.0332 0.125441 0)
(1.03857 0.129832 0)
(1.04418 0.134278 0)
(1.0499 0.137521 0)
(1.05579 0.141595 0)
(0.999997 0.00216685 0)
(0.999837 0.00647495 0)
(0.999554 0.0107821 0)
(0.999192 0.0151837 0)
(0.998809 0.0197492 0)
(0.998458 0.0245182 0)
(0.998195 0.0295187 0)
(0.998072 0.0347543 0)
(0.99814 0.0402259 0)
(0.998446 0.0459105 0)
(0.999036 0.0517917 0)
(0.999949 0.0578246 0)
(1.00122 0.0639825 0)
(1.00288 0.0702011 0)
(1.00494 0.0764518 0)
(1.00742 0.0826509 0)
(1.01032 0.0887816 0)
(1.01363 0.0947356 0)
(1.01734 0.100531 0)
(1.02143 0.106018 0)
(1.02586 0.111294 0)
(1.03059 0.116112 0)
(1.0356 0.12075 0)
(1.0408 0.124717 0)
(1.0462 0.128722 0)
(1.05166 0.131606 0)
(1.0573 0.135255 0)
(0.999997 0.00219041 0)
(0.999872 0.00654148 0)
(0.999651 0.0108809 0)
(0.999379 0.0153001 0)
(0.999109 0.0198648 0)
(0.998893 0.0246118 0)
(0.998782 0.0295658 0)
(0.998826 0.0347279 0)
(0.999073 0.0400963 0)
(0.999567 0.0456461 6.01394e-28)
(1.00035 0.0513585 -6.31619e-28)
(1.00145 0.0571881 0)
(1.00291 0.0631068 0)
(1.00473 0.0690518 0)
(1.00695 0.0749946 0)
(1.00956 0.0808556 0)
(1.01256 0.0866192 0)
(1.01594 0.0921852 0)
(1.01968 0.0975725 0)
(1.02375 0.102643 0)
(1.02814 0.107492 0)
(1.03277 0.111894 0)
(1.03765 0.11611 0)
(1.04266 0.11969 0)
(1.04787 0.123295 -7.93964e-29)
(1.05307 0.125855 8.32484e-29)
(1.05846 0.129121 0)
(0.999998 0.00220906 0)
(0.999905 0.00659331 0)
(0.999746 0.0109553 0)
(0.999561 0.0153821 0)
(0.9994 0.0199358 0)
(0.999311 0.0246504 0)
(0.999346 0.0295474 0)
(0.999548 0.0346257 0)
(0.999963 0.039881 0)
(1.00063 0.0452869 0)
(1.00159 0.0508228 0)
(1.00286 0.0564433 0)
(1.00448 0.0621194 0)
(1.00645 0.0677906 0)
(1.0088 0.0734287 0)
(1.01151 0.078959 0)
(1.01458 0.0843672 0)
(1.018 0.0895612 0)
(1.02175 0.0945603 0)
(1.02579 0.0992396 0)
(1.03011 0.10369 0)
(1.03463 0.107706 0)
(1.03936 0.111534 0)
(1.04419 0.11476 0)
(1.04919 0.118002 0)
(1.05414 0.12027 0)
(1.05929 0.123191 0)
(0.999999 0.00222275 0)
(0.999937 0.00663037 0)
(0.999837 0.0110052 0)
(0.999736 0.0154297 0)
(0.999679 0.0199627 0)
(0.999713 0.0246347 0)
(0.999884 0.0294649 0)
(1.00023 0.0344499 0)
(1.00081 0.0395831 0)
(1.00163 0.0448373 0)
(1.00275 0.0501904 0)
(1.00417 0.0555975 0)
(1.00593 0.0610295 0)
(1.00803 0.0664282 0)
(1.01048 0.0717665 0)
(1.01327 0.0769748 0)
(1.0164 0.0820402 0)
(1.01983 0.0868787 0)
(1.02357 0.0915103 0)
(1.02756 0.0958219 0)
(1.03179 0.0999003 0)
(1.03619 0.10356 0)
(1.04077 0.107031 0)
(1.04541 0.109936 0)
(1.05021 0.112846 0)
(1.05492 0.114853 6.54165e-29)
(1.05983 0.117461 -6.85747e-29)
(0.999999 0.00223148 0)
(0.999968 0.00665263 0)
(0.999925 0.0110306 0)
(0.999904 0.0154433 0)
(0.999947 0.0199458 0)
(1.0001 0.0245659 0)
(1.0004 0.02932 0)
(1.00088 0.0342028 0)
(1.0016 0.0392062 0)
(1.00257 0.044302 0)
(1.00382 0.0494674 0)
(1.00538 0.0546584 0)
(1.00726 0.0598461 -7.93184e-28)
(1.00947 0.0649752 8.32908e-28)
(1.012 0.0700199 0)
(1.01485 0.074916 0)
(1.018 0.0796521 0)
(1.02144 0.0841523 0)
(1.02514 0.0884367 0)
(1.02906 0.092404 0)
(1.0332 0.0961367 0)
(1.03746 0.0994674 0)
(1.04189 0.102611 0)
(1.04634 0.105222 -3.51414e-29)
(1.05094 0.107832 3.68535e-29)
(1.05541 0.109604 0)
(1.06009 0.11193 0)
(1 0.00223526 0)
(0.999998 0.00666016 0)
(1.00001 0.0110317 0)
(1.00006 0.0154232 0)
(1.0002 0.0198859 0)
(1.00046 0.0244451 0)
(1.00088 0.0291145 0)
(1.00149 0.0338874 0)
(1.00234 0.038754 0)
(1.00344 0.043686 0)
(1.00482 0.0486601 0)
(1.00649 0.0536336 0)
(1.00848 0.0585782 0)
(1.01076 0.063442 0)
(1.01336 0.0682006 0)
(1.01624 0.0727951 0)
(1.01941 0.077216 0)
(1.02283 0.0813949 0)
(1.02648 0.0853525 0)
(1.03032 0.0889977 0)
(1.03435 0.0924097 0)
(1.03848 0.0954368 0)
(1.04274 0.0982799 0)
(1.04701 0.100624 0)
(1.0514 0.102962 0)
(1.05564 0.104522 0)
(1.0601 0.106594 -7.89063e-29)
(1 0.00223412 0)
(1.00003 0.00665311 0)
(1.00009 0.0110088 0)
(1.00022 0.01537 0)
(1.00044 0.0197841 0)
(1.0008 0.0242739 0)
(1.00133 0.0288506 0)
(1.00206 0.0335066 0)
(1.00303 0.0382306 0)
(1.00424 0.0429946 0)
(1.00573 0.0477749 0)
(1.00751 0.0525308 0)
(1.00957 0.0572349 0)
(1.01192 0.0618386 0)
(1.01456 0.0663195 0)
(1.01747 0.0706239 0)
(1.02063 0.074744 0)
(1.02401 0.0786188 0)
(1.0276 0.0822692 0)
(1.03135 0.0856141 0)
(1.03526 0.0887286 0)
(1.03925 0.0914762 0)
(1.04335 0.0940443 0)
(1.04743 0.0961456 0)
(1.05162 0.0982356 0)
(1.05565 0.0996061 0)
(1.05988 0.101448 0)
(1 0.00222814 0)
(1.00005 0.0066317 0)
(1.00017 0.0109624 0)
(1.00036 0.0152844 0)
(1.00067 0.0196415 0)
(1.00112 0.024054 0)
(1.00175 0.028531 0)
(1.00259 0.0330639 0)
(1.00366 0.0376404 0)
(1.00498 0.0422331 0)
(1.00656 0.0468185 0)
(1.00842 0.0513579 0)
(1.01055 0.0558249 0)
(1.01295 0.0601749 0)
(1.01561 0.0643872 0)
(1.01852 0.0684133 0)
(1.02166 0.0722473 0)
(1.02499 0.0758349 0)
(1.02851 0.0791973 0)
(1.03216 0.0822625 0)
(1.03595 0.0851018 0)
(1.03979 0.0875924 0)
(1.04373 0.0899088 0)
(1.04763 0.0917892 0)
(1.05162 0.0936547 0)
(1.05544 0.0948548 0)
(1.05946 0.0964887 0)
(1 0.00221741 0)
(1.00008 0.00659623 0)
(1.00024 0.010893 0)
(1.00049 0.0151674 0)
(1.00088 0.0194595 0)
(1.00142 0.0237874 0)
(1.00214 0.0281583 0)
(1.00308 0.0325627 0)
(1.00424 0.036988 0)
(1.00564 0.0414072 0)
(1.00731 0.0457976 0)
(1.00923 0.0501224 0)
(1.01141 0.054357 0)
(1.01384 0.0584603 0)
(1.01652 0.0624137 -8.09702e-28)
(1.01941 0.0661738 8.5013e-28)
(1.02252 0.0697363 0)
(1.02579 0.0730534 0)
(1.02923 0.0761464 0)
(1.03277 0.0789515 0)
(1.03643 0.0815365 0)
(1.04012 0.083791 0)
(1.0439 0.0858772 0)
(1.04762 0.0875569 0)
(1.05142 0.0892188 0)
(1.05503 0.0902661 0)
(1.05886 0.0917123 0)
(1 0.00220205 0)
(1.0001 0.00654708 0)
(1.0003 0.0108014 0)
(1.00062 0.01502 0)
(1.00107 0.0192397 0)
(1.00169 0.0234763 0)
(1.0025 0.0277354 0)
(1.00352 0.032007 0)
(1.00476 0.036278 0)
(1.00624 0.0405226 0)
(1.00797 0.0447186 0)
(1.00994 0.0488319 0)
(1.01216 0.0528395 0)
(1.01461 0.0567039 0)
(1.01728 0.0604086 0)
(1.02015 0.063915 0)
(1.02321 0.0672206 0)
(1.02642 0.0702834 0)
(1.02976 0.0731247 0)
(1.03319 0.0756885 0)
(1.03672 0.0780388 0)
(1.04026 0.0800766 0)
(1.04388 0.0819526 0)
(1.04742 0.08345 0)
(1.05104 0.0849275 0)
(1.05446 0.0858377 0)
(1.05808 0.0871145 0)
(1 0.0021822 0)
(1.00012 0.00648468 0)
(1.00036 0.0106883 0)
(1.00073 0.0148436 0)
(1.00125 0.0189839 0)
(1.00194 0.0231232 0)
(1.00283 0.0272655 0)
(1.00392 0.0314006 0)
(1.00523 0.0355152 0)
(1.00677 0.0395848 0)
(1.00855 0.0435883 0)
(1.01056 0.0474939 0)
(1.0128 0.0512805 0)
(1.01526 0.0549142 0)
(1.01791 0.0583807 0)
(1.02075 0.0616459 0)
(1.02375 0.0647089 0)
(1.02687 0.0675331 0)
(1.03012 0.0701399 0)
(1.03344 0.07248 0)
(1.03683 0.0746139 0)
(1.04023 0.0764531 0)
(1.04368 0.0781373 0)
(1.04705 0.0794694 0)
(1.05049 0.0807798 4.88724e-29)
(1.05372 0.0815672 -5.12428e-29)
(1.05716 0.0826912 0)
(1 0.00215802 0)
(1.00014 0.00640956 0)
(1.00042 0.0105546 0)