/*--------------------------------*- C++ -*----------------------------------*\
  =========                 |
  \\      /  F ield         | OpenFOAM: The Open Source CFD Toolbox
   \\    /   O peration     | Website:  https://openfoam.org
    \\  /    A nd           | Version:  7
     \\/     M anipulation  |
\*---------------------------------------------------------------------------*/
FoamFile
{
    version     2.0;
    format      ascii;
    class       volScalarField;
    location    "40";
    object      p;
}
// * * * * * * * * * * * * * * * * * * * * * * * * * * * * * * * * * * * * * //

dimensions      [0 2 -2 0 0 0 0];

internalField   nonuniform List<scalar> 
4575
(
-0.23433
-0.235304
-0.235884
-0.234371
-0.235343
-0.235921
-0.234453
-0.23542
-0.235995
-0.234574
-0.235534
-0.236104
-0.234734
-0.235684
-0.236249
-0.234934
-0.235872
-0.236429
-0.235171
-0.236095
-0.236644
-0.235446
-0.236354
-0.236893
-0.235757
-0.236647
-0.237175
-0.237632
-0.236103
-0.236975
-0.23749
-0.237934
-0.236484
-0.237335
-0.237837
-0.238268
-0.236899
-0.237728
-0.238215
-0.238631
-0.237346
-0.238152
-0.238623
-0.239024
-0.237825
-0.238607
-0.239062
-0.239445
-0.238335
-0.239092
-0.239529
-0.239895
-0.238875
-0.239606
-0.240025
-0.240371
-0.239445
-0.24015
-0.24055
-0.240875
-0.241131
-0.240043
-0.240722
-0.241102
-0.241405
-0.241638
-0.24067
-0.241322
-0.241681
-0.241962
-0.242169
-0.241325
-0.24195
-0.242287
-0.242544
-0.242725
-0.242009
-0.242605
-0.24292
-0.243152
-0.243305
-0.243382
-0.242721
-0.243289
-0.243581
-0.243785
-0.243909
-0.243954
-0.243461
-0.244001
-0.244268
-0.244445
-0.244537
-0.244548
-0.244231
-0.244742
-0.244984
-0.245131
-0.245189
-0.245164
-0.245031
-0.245513
-0.245727
-0.245843
-0.245866
-0.245802
-0.245665
-0.245863
-0.246314
-0.2465
-0.246583
-0.246568
-0.246463
-0.246282
-0.246726
-0.247146
-0.247303
-0.247351
-0.247296
-0.247148
-0.24692
-0.247624
-0.248012
-0.248137
-0.248148
-0.248051
-0.247856
-0.24758
-0.247235
-0.248558
-0.248911
-0.249004
-0.248975
-0.248833
-0.248589
-0.248261
-0.247862
-0.249529
-0.249848
-0.249905
-0.249834
-0.249644
-0.249348
-0.248964
-0.248509
-0.250541
-0.250823
-0.250843
-0.250726
-0.250485
-0.250133
-0.249691
-0.249175
-0.2486
-0.251596
-0.251838
-0.251818
-0.251654
-0.251358
-0.250946
-0.250442
-0.249863
-0.249223
-0.252697
-0.252897
-0.252835
-0.252618
-0.252264
-0.251789
-0.251219
-0.250572
-0.249865
-0.249106
-0.253847
-0.254003
-0.253895
-0.253623
-0.253206
-0.252664
-0.252023
-0.251304
-0.250526
-0.249698
-0.25505
-0.255159
-0.255001
-0.25467
-0.254186
-0.253572
-0.252856
-0.252061
-0.251208
-0.250306
-0.256311
-0.256368
-0.256158
-0.255763
-0.255207
-0.254516
-0.25372
-0.252845
-0.251911
-0.250932
-0.24991
-0.257633
-0.257635
-0.257368
-0.256905
-0.256272
-0.2555
-0.254619
-0.253658
-0.25264
-0.251579
-0.250478
-0.259022
-0.258964
-0.258635
-0.258099
-0.257385
-0.256525
-0.255554
-0.254503
-0.253396
-0.252248
-0.251066
-0.249843
-0.260482
-0.260359
-0.259964
-0.25935
-0.258549
-0.257597
-0.25653
-0.255384
-0.254182
-0.252944
-0.251677
-0.250375
-0.26202
-0.261826
-0.26136
-0.260662
-0.259768
-0.258718
-0.257551
-0.256304
-0.255004
-0.253671
-0.252314
-0.250931
-0.249505
-0.263641
-0.263369
-0.262827
-0.26204
-0.261047
-0.259894
-0.258621
-0.257268
-0.255866
-0.254434
-0.252985
-0.251516
-0.250017
-0.265351
-0.264995
-0.264371
-0.263488
-0.262391
-0.261128
-0.259745
-0.258282
-0.256772
-0.255238
-0.253693
-0.252137
-0.250563
-0.248956
-0.267158
-0.266709
-0.265996
-0.265011
-0.263804
-0.262427
-0.260928
-0.259351
-0.25773
-0.25609
-0.254445
-0.252799
-0.251148
-0.249482
-0.247802
-0.269067
-0.268516
-0.267709
-0.266616
-0.265293
-0.263796
-0.262176
-0.26048
-0.258744
-0.256995
-0.255248
-0.253509
-0.251776
-0.250047
-0.248328
-0.271087
-0.270424
-0.269515
-0.268308
-0.266862
-0.26524
-0.263495
-0.261676
-0.259822
-0.25796
-0.256108
-0.254273
-0.252454
-0.250652
-0.248879
-0.247221
-0.273222
-0.272439
-0.271421
-0.270092
-0.268518
-0.266765
-0.264891
-0.262946
-0.26097
-0.258993
-0.257033
-0.255097
-0.253185
-0.251301
-0.249455
-0.247734
-0.24608
-0.275481
-0.274566
-0.273431
-0.271975
-0.270267
-0.268378
-0.26637
-0.264295
-0.262195
-0.2601
-0.258028
-0.255986
-0.253974
-0.251993
-0.250051
-0.248228
-0.246447
-0.277871
-0.276812
-0.275553
-0.273962
-0.272113
-0.270085
-0.267939
-0.26573
-0.263503
-0.261287
-0.259099
-0.256945
-0.254822
-0.252728
-0.250666
-0.248699
-0.246737
-0.245613
-0.280398
-0.279182
-0.277792
-0.276059
-0.274064
-0.271891
-0.269603
-0.267259
-0.264902
-0.262561
-0.260252
-0.257977
-0.255731
-0.253506
-0.251295
-0.249145
-0.246952
-0.245406
-0.242152
-0.283068
-0.281684
-0.280154
-0.278273
-0.276126
-0.273803
-0.271371
-0.268887
-0.266396
-0.263926
-0.261489
-0.259085
-0.256701
-0.254323
-0.251934
-0.249562
-0.247094
-0.245089
-0.241499
-0.243163
-0.285889
-0.284322
-0.282645
-0.280608
-0.278304
-0.275827
-0.273246
-0.27062
-0.267992
-0.265388
-0.262816
-0.260269
-0.25773
-0.255176
-0.252579
-0.249948
-0.247167
-0.244679
-0.240742
-0.240992
-0.288864
-0.287101
-0.285269
-0.28307
-0.280604
-0.277969
-0.275237
-0.272465
-0.269695
-0.26695
-0.264233
-0.261531
-0.258817
-0.25606
-0.253223
-0.250299
-0.247173
-0.244191
-0.239899
-0.238902
-0.292001
-0.290028
-0.288032
-0.285666
-0.283032
-0.280235
-0.277348
-0.274426
-0.27151
-0.268616
-0.265742
-0.262867
-0.259956
-0.256969
-0.25386
-0.25061
-0.247112
-0.243635
-0.238983
-0.2369
-0.295302
-0.293106
-0.290939
-0.288398
-0.285592
-0.28263
-0.279584
-0.276508
-0.273439
-0.270387
-0.267342
-0.264275
-0.261142
-0.257895
-0.254482
-0.250878
-0.246985
-0.243016
-0.238003
-0.234983
-0.298773
-0.296339
-0.293994
-0.291273
-0.28829
-0.285159
-0.28195
-0.278715
-0.275485
-0.272263
-0.269031
-0.265749
-0.262367
-0.258829
-0.255082
-0.251097
-0.246791
-0.242338
-0.236965
-0.233139
-0.302416
-0.29973
-0.2972
-0.294293
-0.291129
-0.287826
-0.28445
-0.28105
-0.27765
-0.274244
-0.270805
-0.267284
-0.263623
-0.259763
-0.255651
-0.251261
-0.246528
-0.241602
-0.235872
-0.231354
-0.306233
-0.303283
-0.30056
-0.297463
-0.294114
-0.290634
-0.287086
-0.283514
-0.279932
-0.276326
-0.272658
-0.26887
-0.264899
-0.260685
-0.256179
-0.251363
-0.246194
-0.240807
-0.234725
-0.229611
-0.310226
-0.306998
-0.304076
-0.300785
-0.297247
-0.293586
-0.289862
-0.286108
-0.282331
-0.278505
-0.274582
-0.270497
-0.266183
-0.261583
-0.256657
-0.251398
-0.245785
-0.239949
-0.233522
-0.227891
-0.314395
-0.310876
-0.307751
-0.30426
-0.30053
-0.296685
-0.292776
-0.28883
-0.284842
-0.280774
-0.276568
-0.272153
-0.267463
-0.262446
-0.257074
-0.251357
-0.245297
-0.239025
-0.23226
-0.226176
-0.318738
-0.314917
-0.311583
-0.30789
-0.303964
-0.299929
-0.295829
-0.291678
-0.287459
-0.283124
-0.278603
-0.273825
-0.268724
-0.263259
-0.25742
-0.251233
-0.244725
-0.238029
-0.230934
-0.224449
-0.323253
-0.319119
-0.315572
-0.311674
-0.307549
-0.303319
-0.299017
-0.294646
-0.290175
-0.285543
-0.280675
-0.275497
-0.269951
-0.264011
-0.257685
-0.25102
-0.244065
-0.236958
-0.22954
-0.222694
-0.327936
-0.32348
-0.319717
-0.31561
-0.311282
-0.306851
-0.302337
-0.297727
-0.292979
-0.288019
-0.282767
-0.277153
-0.271129
-0.264687
-0.257858
-0.250709
-0.243311
-0.235804
-0.228072
-0.220897
-0.332782
-0.327994
-0.324012
-0.319695
-0.315161
-0.310521
-0.30578
-0.300912
-0.295858
-0.290536
-0.284863
-0.278775
-0.272241
-0.265275
-0.25793
-0.250294
-0.242457
-0.234561
-0.226525
-0.219044
-0.337782
-0.332656
-0.328454
-0.323925
-0.31918
-0.314322
-0.30934
-0.304189
-0.298798
-0.293076
-0.286943
-0.280345
-0.273271
-0.26576
-0.25789
-0.249767
-0.241498
-0.233225
-0.224891
-0.217124
-0.342929
-0.337458
-0.333034
-0.328292
-0.323332
-0.318246
-0.313003
-0.307543
-0.301781
-0.295621
-0.288988
-0.281844
-0.274204
-0.266131
-0.257729
-0.249121
-0.240427
-0.231788
-0.223165
-0.215125
-0.34821
-0.342391
-0.337745
-0.332788
-0.327607
-0.32228
-0.316757
-0.310958
-0.304787
-0.298148
-0.290976
-0.283253
-0.275023
-0.266375
-0.257437
-0.248349
-0.239239
-0.230244
-0.22134
-0.213039
-0.353612
-0.347442
-0.342576
-0.337403
-0.331994
-0.326412
-0.320584
-0.314413
-0.307795
-0.300635
-0.292885
-0.284553
-0.275711
-0.266479
-0.257005
-0.247443
-0.237926
-0.228586
-0.21941
-0.210857
-0.35912
-0.352598
-0.347513
-0.342123
-0.336478
-0.330625
-0.324465
-0.317887
-0.31078
-0.303058
-0.294693
-0.285724
-0.276253
-0.266431
-0.256424
-0.246395
-0.236482
-0.226808
-0.217367
-0.208569
-0.346932
-0.341043
-0.334899
-0.328379
-0.321356
-0.313718
-0.305392
-0.296377
-0.286746
-0.276634
-0.266219
-0.255684
-0.245199
-0.234901
-0.224903
-0.215206
-0.20617
-0.339214
-0.332301
-0.324793
-0.31658
-0.307611
-0.297915
-0.287601
-0.27684
-0.265832
-0.254777
-0.243847
-0.233176
-0.222864
-0.21292
-0.203652
-0.31934
-0.309689
-0.299283
-0.28827
-0.276855
-0.265259
-0.253694
-0.24233
-0.231298
-0.220685
-0.210502
-0.201008
-0.276665
-0.264489
-0.252425
-0.240642
-0.229262
-0.218358
-0.207946
-0.198232
-0.238774
-0.227059
-0.215877
-0.205244
-0.195317
-0.192258
-0.192216
-0.238727
-0.227013
-0.215832
-0.2052
-0.195274
-0.288683
-0.276613
-0.264439
-0.252376
-0.240594
-0.229215
-0.218312
-0.207901
-0.198188
-0.319284
-0.309634
-0.299229
-0.288217
-0.276803
-0.265209
-0.253644
-0.242282
-0.231251
-0.220639
-0.210457
-0.200964
-0.339155
-0.332243
-0.324736
-0.316524
-0.307556
-0.297861
-0.287547
-0.276787
-0.265781
-0.254727
-0.243798
-0.233128
-0.222817
-0.212874
-0.203607
-0.346873
-0.340985
-0.334841
-0.328321
-0.321299
-0.313661
-0.305337
-0.296323
-0.286692
-0.276582
-0.266167
-0.255633
-0.245149
-0.234853
-0.224855
-0.215159
-0.206124
-0.359061
-0.35254
-0.347454
-0.342064
-0.33642
-0.330567
-0.324408
-0.317831
-0.310724
-0.303003
-0.294638
-0.28567
-0.2762
-0.266379
-0.256373
-0.246345
-0.236433
-0.22676
-0.21732
-0.208523
-0.353553
-0.347383
-0.342517
-0.337345
-0.331936
-0.326355
-0.320527
-0.314357
-0.307738
-0.30058
-0.29283
-0.284499
-0.275658
-0.266426
-0.256953
-0.247392
-0.237876
-0.228537
-0.219361
-0.210809
-0.348151
-0.342332
-0.337687
-0.332731
-0.32755
-0.322223
-0.3167
-0.310901
-0.304731
-0.298092
-0.290921
-0.283199
-0.274969
-0.266322
-0.257385
-0.248298
-0.239188
-0.230194
-0.221291
-0.212991
-0.34287
-0.3374
-0.332976
-0.328235
-0.323275
-0.318189
-0.312946
-0.307487
-0.301725
-0.295565
-0.288933
-0.28179
-0.27415
-0.266078
-0.257676
-0.24907
-0.240376
-0.231737
-0.223115
-0.215076
-0.337724
-0.332598
-0.328396
-0.323868
-0.319123
-0.314266
-0.309283
-0.304133
-0.298742
-0.293021
-0.286888
-0.280291
-0.273218
-0.265707
-0.257837
-0.249715
-0.241446
-0.233174
-0.22484
-0.217074
-0.332724
-0.327936
-0.323955
-0.319638
-0.315105
-0.310465
-0.305724
-0.300857
-0.295802
-0.290481
-0.284808
-0.27872
-0.272187
-0.265221
-0.257877
-0.250241
-0.242404
-0.234509
-0.226473
-0.218993
-0.327879
-0.323422
-0.31966
-0.315554
-0.311226
-0.306795
-0.302281
-0.297672
-0.292923
-0.287964
-0.282713
-0.277098
-0.271074
-0.264633
-0.257805
-0.250656
-0.243257
-0.235751
-0.22802
-0.220845
-0.323196
-0.319062
-0.315516
-0.311618
-0.307493
-0.303264
-0.298962
-0.294591
-0.29012
-0.285488
-0.28062
-0.275442
-0.269896
-0.263956
-0.257631
-0.250966
-0.244011
-0.236904
-0.229487
-0.222641
-0.318681
-0.31486
-0.311527
-0.307834
-0.303909
-0.299874
-0.295774
-0.291623
-0.287404
-0.283069
-0.278549
-0.27377
-0.268669
-0.263205
-0.257366
-0.251179
-0.244671
-0.237975
-0.23088
-0.224395
-0.314338
-0.31082
-0.307695
-0.304205
-0.300475
-0.29663
-0.292721
-0.288776
-0.284787
-0.280719
-0.276513
-0.272099
-0.267408
-0.262391
-0.257019
-0.251301
-0.245242
-0.23897
-0.232204
-0.226121
-0.31017
-0.306942
-0.304021
-0.300729
-0.297192
-0.293532
-0.289807
-0.286054
-0.282277
-0.278451
-0.274528
-0.270443
-0.266129
-0.261528
-0.256602
-0.251342
-0.245729
-0.239893
-0.233466
-0.227835
-0.306177
-0.303227
-0.300504
-0.297408
-0.294059
-0.290579
-0.287032
-0.28346
-0.279878
-0.276272
-0.272604
-0.268816
-0.264844
-0.26063
-0.256124
-0.251307
-0.246137
-0.24075
-0.234668
-0.229554
-0.30236
-0.299675
-0.297144
-0.294238
-0.291075
-0.287771
-0.284396
-0.280996
-0.277596
-0.27419
-0.270751
-0.26723
-0.263568
-0.259708
-0.255595
-0.251204
-0.246471
-0.241545
-0.235814
-0.231296
-0.298718
-0.296284
-0.293939
-0.291218
-0.288235
-0.285105
-0.281896
-0.278662
-0.275432
-0.27221
-0.268977
-0.265695
-0.262313
-0.258774
-0.255026
-0.25104
-0.246733
-0.24228
-0.236906
-0.23308
-0.295247
-0.293051
-0.290884
-0.288344
-0.285538
-0.282577
-0.27953
-0.276455
-0.273386
-0.270334
-0.267288
-0.264221
-0.261087
-0.257839
-0.254426
-0.25082
-0.246926
-0.242956
-0.237942
-0.234922
-0.291946
-0.289973
-0.287978
-0.285611
-0.282978
-0.280182
-0.277294
-0.274373
-0.271457
-0.268563
-0.265689
-0.262813
-0.259901
-0.256913
-0.253803
-0.250552
-0.247053
-0.243574
-0.238921
-0.236838
-0.28881
-0.287047
-0.285215
-0.283017
-0.28055
-0.277916
-0.275184
-0.272412
-0.269643
-0.266897
-0.26418
-0.261477
-0.258762
-0.256004
-0.253166
-0.25024
-0.247113
-0.24413
-0.239836
-0.238839
-0.285834
-0.284267
-0.282591
-0.280554
-0.278251
-0.275774
-0.273194
-0.270568
-0.26794
-0.265335
-0.262763
-0.260216
-0.257676
-0.25512
-0.252521
-0.249889
-0.247107
-0.244617
-0.240679
-0.240927
-0.283014
-0.28163
-0.2801
-0.278219
-0.276073
-0.27375
-0.271318
-0.268835
-0.266344
-0.263874
-0.261436
-0.259031
-0.256646
-0.254267
-0.251877
-0.249503
-0.247033
-0.245026
-0.241435
-0.243098
-0.280344
-0.279128
-0.277739
-0.276006
-0.274011
-0.271838
-0.269551
-0.267207
-0.26485
-0.262508
-0.260199
-0.257923
-0.255676
-0.25345
-0.251237
-0.249085
-0.24689
-0.245342
-0.242086
-0.277817
-0.276758
-0.2755
-0.273909
-0.27206
-0.270032
-0.267886
-0.265678
-0.263451
-0.261235
-0.259047
-0.256891
-0.254767
-0.252672
-0.250608
-0.248639
-0.246674
-0.245548
-0.275427
-0.274512
-0.273378
-0.271922
-0.270214
-0.268326
-0.266318
-0.264243
-0.262143
-0.260048
-0.257976
-0.255932
-0.253919
-0.251936
-0.249993
-0.248167
-0.246384
-0.273168
-0.272385
-0.271367
-0.270039
-0.268466
-0.266713
-0.264839
-0.262894
-0.260918
-0.258941
-0.256981
-0.255043
-0.25313
-0.251244
-0.249396
-0.247673
-0.246017
-0.271032
-0.270371
-0.269462
-0.268255
-0.26681
-0.265188
-0.263443
-0.261624
-0.25977
-0.257908
-0.256056
-0.254219
-0.252399
-0.250595
-0.24882
-0.24716
-0.269013
-0.268463
-0.267655
-0.266563
-0.26524
-0.263744
-0.262124
-0.260428
-0.258692
-0.256943
-0.255195
-0.253455
-0.251721
-0.24999
-0.248268
-0.267104
-0.266655
-0.265943
-0.264958
-0.263752
-0.262375
-0.260876
-0.259299
-0.257678
-0.256037
-0.254392
-0.252745
-0.251092
-0.249425
-0.247742
-0.265297
-0.264941
-0.264317
-0.263435
-0.262338
-0.261076
-0.259693
-0.25823
-0.25672
-0.255186
-0.253639
-0.252083
-0.250507
-0.248899
-0.263586
-0.263315
-0.262774
-0.261987
-0.260995
-0.259841
-0.258569
-0.257217
-0.255814
-0.254382
-0.252931
-0.251462
-0.249961
-0.261965
-0.261772
-0.261307
-0.260609
-0.259716
-0.258666
-0.257499
-0.256252
-0.254952
-0.253619
-0.252261
-0.250876
-0.249449
-0.260427
-0.260305
-0.259911
-0.259297
-0.258496
-0.257544
-0.256478
-0.255332
-0.25413
-0.252892
-0.251623
-0.25032
-0.258967
-0.25891
-0.258582
-0.258046
-0.257333
-0.256473
-0.255502
-0.254451
-0.253343
-0.252195
-0.251012
-0.249788
-0.257578
-0.257581
-0.257314
-0.256852
-0.25622
-0.255448
-0.254567
-0.253606
-0.252587
-0.251526
-0.250424
-0.256256
-0.256314
-0.256105
-0.25571
-0.255155
-0.254464
-0.253668
-0.252793
-0.251859
-0.250879
-0.249856
-0.254996
-0.255105
-0.254948
-0.254618
-0.254134
-0.25352
-0.252804
-0.252009
-0.251155
-0.250253
-0.253792
-0.25395
-0.253842
-0.253571
-0.253154
-0.252612
-0.251971
-0.251252
-0.250474
-0.249645
-0.252642
-0.252844
-0.252782
-0.252566
-0.252212
-0.251738
-0.251167
-0.25052
-0.249813
-0.251542
-0.251785
-0.251766
-0.251602
-0.251306
-0.250895
-0.250391
-0.249811
-0.249171
-0.250487
-0.25077
-0.250791
-0.250675
-0.250434
-0.250082
-0.24964
-0.249124
-0.248548
-0.249476
-0.249796
-0.249854
-0.249783
-0.249594
-0.249297
-0.248914
-0.248458
-0.248505
-0.24886
-0.248954
-0.248925
-0.248783
-0.248539
-0.248211
-0.247812
-0.247572
-0.247961
-0.248087
-0.248098
-0.248002
-0.247807
-0.24753
-0.247185
-0.246675
-0.247096
-0.247254
-0.247302
-0.247248
-0.247099
-0.246871
-0.245812
-0.246265
-0.246452
-0.246535
-0.246521
-0.246415
-0.246234
-0.244982
-0.245465
-0.24568
-0.245796
-0.245819
-0.245755
-0.245617
-0.244183
-0.244695
-0.244937
-0.245085
-0.245143
-0.245118
-0.243414
-0.243955
-0.244223
-0.2444
-0.244492
-0.244503
-0.242675
-0.243244
-0.243536
-0.243742
-0.243865
-0.24391
-0.241964
-0.242562
-0.242877
-0.243109
-0.243262
-0.24334
-0.241282
-0.241908
-0.242246
-0.242503
-0.242684
-0.240629
-0.241281
-0.241641
-0.241922
-0.24213
-0.240003
-0.240683
-0.241063
-0.241367
-0.2416
-0.239407
-0.240113
-0.240513
-0.240839
-0.241095
-0.238839
-0.239571
-0.239991
-0.240337
-0.238301
-0.239059
-0.239496
-0.239862
-0.237793
-0.238575
-0.239031
-0.239414
-0.237316
-0.238123
-0.238594
-0.238995
-0.236871
-0.2377
-0.238188
-0.238604
-0.236459
-0.23731
-0.237812
-0.238243
-0.23608
-0.236952
-0.237467
-0.237912
-0.235735
-0.236627
-0.237154
-0.237611
-0.235427
-0.236336
-0.236875
-0.235155
-0.236079
-0.236628
-0.23492
-0.235858
-0.236416
-0.234723
-0.235673
-0.236238
-0.234565
-0.235525
-0.236096
-0.234446
-0.235413
-0.235989
-0.234367
-0.235339
-0.235918
-0.234328
-0.235303
-0.235883
-0.17954
-0.182714
-0.185762
-0.188688
-0.191494
-0.194185
-0.196763
-0.199231
-0.201591
-0.203844
-0.205994
-0.20804
-0.209986
-0.211833
-0.213584
-0.215242
-0.216813
-0.218302
-0.21972
-0.221079
-0.222396
-0.223692
-0.224994
-0.22634
-0.165831
-0.169044
-0.172158
-0.175178
-0.178106
-0.180946
-0.1837
-0.186372
-0.188966
-0.191486
-0.193936
-0.196321
-0.198646
-0.200918
-0.203145
-0.205334
-0.207497
-0.209646
-0.211794
-0.21396
-0.216161
-0.218419
-0.220755
-0.223193
-0.153533
-0.156735
-0.159861
-0.162914
-0.165896
-0.16881
-0.171658
-0.174445
-0.177173
-0.179846
-0.182466
-0.185039
-0.187567
-0.190056
-0.19251
-0.194933
-0.19733
-0.199706
-0.202067
-0.204418
-0.206762
-0.209107
-0.211455
-0.213815
-0.142587
-0.145731
-0.148815
-0.151841
-0.154812
-0.157728
-0.160593
-0.163407
-0.166174
-0.168895
-0.171572
-0.174207
-0.176802
-0.17936
-0.181883
-0.184374
-0.186834
-0.189267
-0.191677
-0.194068
-0.196445
-0.198815
-0.201184
-0.203565
-0.132764
-0.135823
-0.138834
-0.141799
-0.144721
-0.147599
-0.150437
-0.153234
-0.155994
-0.158717
-0.161405
-0.16406
-0.166683
-0.169277
-0.171844
-0.174385
-0.176904
-0.179403
-0.181886
-0.184354
-0.186812
-0.189264
-0.191714
-0.194165
-0.123951
-0.126904
-0.12982
-0.132701
-0.135546
-0.138358
-0.141138
-0.143886
-0.146605
-0.149295
-0.151957
-0.154593
-0.157205
-0.159792
-0.162358
-0.164903
-0.167428
-0.169935
-0.172425
-0.1749
-0.177361
-0.17981
-0.182248
-0.184677
-0.116015
-0.118852
-0.121659
-0.124438
-0.12719
-0.129916
-0.132616
-0.135291
-0.137943
-0.140573
-0.14318
-0.145767
-0.148333
-0.150881
-0.15341
-0.155921
-0.158416
-0.160896
-0.163361
-0.165812
-0.168251
-0.170679
-0.173097
-0.175507
-0.108864
-0.111576
-0.114266
-0.116933
-0.11958
-0.122205
-0.124811
-0.127398
-0.129967
-0.132518
-0.135052
-0.137569
-0.140071
-0.142559
-0.145032
-0.147491
-0.149938
-0.152372
-0.154795
-0.157207
-0.15961
-0.162002
-0.164386
-0.166762
-0.102406
-0.104991
-0.107559
-0.110109
-0.112643
-0.115161
-0.117664
-0.120152
-0.122626
-0.125087
-0.127535
-0.12997
-0.132393
-0.134806
-0.137207
-0.139598
-0.14198
-0.144352
-0.146715
-0.14907
-0.151416
-0.153756
-0.156088
-0.158413
-0.0965666
-0.099024
-0.101468
-0.103899
-0.106317
-0.108723
-0.111117
-0.113501
-0.115874
-0.118236
-0.120589
-0.122933
-0.125268
-0.127595
-0.129914
-0.132225
-0.134529
-0.136827
-0.139118
-0.141403
-0.143683
-0.145958
-0.148227
-0.150492
-0.0912787
-0.0936101
-0.095931
-0.098242
-0.100543
-0.102836
-0.10512
-0.107395
-0.109663
-0.111923
-0.114177
-0.116423
-0.118664
-0.120898
-0.123127
-0.125351
-0.127571
-0.129785
-0.131996
-0.134203
-0.136406
-0.138606
-0.140803
-0.142998
-0.086484
-0.0886922
-0.0908925
-0.0930854
-0.0952712
-0.0974503
-0.0996231
-0.10179
-0.103951
-0.106107
-0.108258
-0.110405
-0.112547
-0.114685
-0.11682
-0.118952
-0.121081
-0.123207
-0.12533
-0.127452
-0.129572
-0.13169
-0.133807
-0.135923
-0.0821294
-0.0842184
-0.0863015
-0.0883792
-0.0904516
-0.0925192
-0.0945824
-0.0966413
-0.0986964
-0.100748
-0.102796
-0.104842
-0.106884
-0.108925
-0.110963
-0.113
-0.115035
-0.117069
-0.119101
-0.121134
-0.123166
-0.125197
-0.127229
-0.129261
-0.0781709
-0.080145
-0.0821149
-0.0840808
-0.086043
-0.0880019
-0.0899576
-0.0919106
-0.0938611
-0.0958093
-0.0977556
-0.0997002
-0.101643
-0.103585
-0.105527
-0.107467
-0.109407
-0.111347
-0.113288
-0.115228
-0.117169
-0.119111
-0.121054
-0.122998
-0.0745667
-0.0764308
-0.0782919
-0.0801502
-0.0820061
-0.0838597
-0.0857113
-0.0875611
-0.0894095
-0.0912567
-0.0931029
-0.0949484
-0.0967933
-0.098638
-0.100483
-0.102328
-0.104173
-0.106019
-0.107866
-0.109714
-0.111563
-0.113414
-0.115266
-0.117121
-0.0712804
-0.0730397
-0.0747969
-0.0765522
-0.0783059
-0.0800582
-0.0818094
-0.0835596
-0.0853091
-0.0870582
-0.0888069
-0.0905556
-0.0923045
-0.0940538
-0.0958037
-0.0975543
-0.099306
-0.101059
-0.102813
-0.104569
-0.106327
-0.108087
-0.109849
-0.111613
-0.0682809
-0.0699404
-0.0715985
-0.0732554
-0.0749114
-0.0765666
-0.0782213
-0.0798757
-0.0815299
-0.0831842
-0.0848387
-0.0864937
-0.0881493
-0.0898058
-0.0914633
-0.0931219
-0.094782
-0.0964437
-0.0981071
-0.0997725
-0.10144
-0.10311
-0.104782
-0.106457
-0.0655403
-0.0671049
-0.0686687
-0.0702319
-0.0717947
-0.0733572
-0.0749196
-0.0764821
-0.0780449
-0.0796081
-0.0811719
-0.0827366
-0.0843021
-0.0858689
-0.0874369
-0.0890063
-0.0905774
-0.0921503
-0.0937252
-0.0953021
-0.0968814
-0.098463
-0.100047
-0.101634
-0.0645067
-0.0659811
-0.0674553
-0.0689295
-0.0704037
-0.0718782
-0.0733531
-0.0748285
-0.0763046
-0.0777816
-0.0792595
-0.0807386
-0.0822191
-0.0837009
-0.0851844
-0.0866696
-0.0881567
-0.0896458
-0.0911371
-0.0926307
-0.0941267
-0.0956254
-0.0971268
-0.0621237
-0.0635136
-0.0649035
-0.0662935
-0.0676839
-0.0690748
-0.0704662
-0.0718583
-0.0732514
-0.0746453
-0.0760405
-0.0774368
-0.0788346
-0.0802338
-0.0816347
-0.0830374
-0.0844419
-0.0858485
-0.0872572
-0.0886682
-0.0900816
-0.0914975
-0.092916
-0.0599356
-0.0612454
-0.0625555
-0.0638659
-0.0651768
-0.0664882
-0.0678004
-0.0691134
-0.0704273
-0.0717423
-0.0730585
-0.0743759
-0.0756947
-0.077015
-0.078337
-0.0796606
-0.0809861
-0.0823136
-0.0836431
-0.0849747
-0.0863087
-0.087645
-0.0889838
-0.0579248
-0.0591589
-0.0603935
-0.0616285
-0.062864
-0.0641003
-0.0653373
-0.0665751
-0.067814
-0.0690538
-0.0702949
-0.0715372
-0.0727808
-0.0740259
-0.0752726
-0.0765209
-0.0777709
-0.0790227
-0.0802765
-0.0815323
-0.0827902
-0.0840503
-0.0853126
-0.0865774
-0.0560744
-0.0572372
-0.0584004
-0.0595641
-0.0607285
-0.0618935
-0.0630594
-0.064226
-0.0653937
-0.0665623
-0.0677321
-0.0689031
-0.0700753
-0.0712489
-0.0724239
-0.0736005
-0.0747787
-0.0759585
-0.0771401
-0.0783236
-0.0795089
-0.0806963
-0.0818857
-0.0830772
-0.0543704
-0.0554658
-0.0565617
-0.0576582
-0.0587552
-0.0598529
-0.0609514
-0.0620508
-0.063151
-0.0642522
-0.0653544
-0.0664578
-0.0675623
-0.068668
-0.0697751
-0.0708836
-0.0719934
-0.0731049
-0.0742178
-0.0753325
-0.0764488
-0.0775669
-0.0786868
-0.0798087
-0.0527993
-0.0538312
-0.0548636
-0.0558966
-0.0569301
-0.0579643
-0.0589992
-0.0600349
-0.0610714
-0.0621088
-0.0631471
-0.0641865
-0.0652268
-0.0662683
-0.067311
-0.0683549
-0.0694001
-0.0704466
-0.0714945
-0.0725438
-0.0735947
-0.074647
-0.075701
-0.0767566
-0.0513499
-0.052322
-0.0532945
-0.0542675
-0.0552411
-0.0562153
-0.0571902
-0.0581657
-0.059142
-0.0601191
-0.061097
-0.0620758
-0.0630556
-0.0640363
-0.065018
-0.0660008
-0.0669847
-0.0679698
-0.068956
-0.0699435
-0.0709323
-0.0719224
-0.0729138
-0.0739067
-0.0500119
-0.0509276
-0.0518436
-0.0527602
-0.0536772
-0.0545948
-0.0555129
-0.0564317
-0.0573512
-0.0582713
-0.0591921
-0.0601138
-0.0610362
-0.0619594
-0.0628836
-0.0638086
-0.0647346
-0.0656615
-0.0665895
-0.0675185
-0.0684485
-0.0693797
-0.070312
-0.0712455
-0.0487755
-0.049638
-0.0505009
-0.0513641
-0.0522279
-0.0530921
-0.0539568
-0.054822
-0.0556878
-0.0565542
-0.0574212
-0.0582888
-0.0591572
-0.0600262
-0.0608959
-0.0617664
-0.0626377
-0.0635097
-0.0643826
-0.0652564
-0.066131
-0.0670065
-0.0678829
-0.0687603
-0.0476327
-0.048445
-0.0492577
-0.0500708
-0.0508843
-0.0516982
-0.0525125
-0.0533272
-0.0541424
-0.0549581
-0.0557743
-0.056591
-0.0574083
-0.0582261
-0.0590445
-0.0598635
-0.0606832
-0.0615035
-0.0623244
-0.063146
-0.0639683
-0.0647913
-0.0656149
-0.0664394
-0.0465755
-0.0473406
-0.0481061
-0.0488719
-0.049638
-0.0504045
-0.0511713
-0.0519384
-0.0527059
-0.0534738
-0.0542421
-0.0550108
-0.05578
-0.0565495
-0.0573196
-0.0580901
-0.058861
-0.0596325
-0.0604044
-0.0611768
-0.0619498
-0.0627233
-0.0634973
-0.0642718
-0.045597
-0.0463178
-0.0470388
-0.0477601
-0.0484816
-0.0492033
-0.0499254
-0.0506477
-0.0513702
-0.0520931
-0.0528163
-0.0535398
-0.0542636
-0.0549877
-0.0557121
-0.0564369
-0.057162
-0.0578874
-0.0586132
-0.0593393
-0.0600658
-0.0607926
-0.0615198
-0.0622474
-0.0446914
-0.0453704
-0.0460495
-0.0467288
-0.0474083
-0.0480879
-0.0487678
-0.0494478
-0.0501281
-0.0508086
-0.0514892
-0.0521701
-0.0528511
-0.0535324
-0.0542139
-0.0548956
-0.0555775
-0.0562596
-0.056942
-0.0576245
-0.0583072
-0.0589902
-0.0596733
-0.0603567
-0.0438533
-0.0444928
-0.0451324
-0.0457722
-0.046412
-0.0470521
-0.0476922
-0.0483325
-0.0489728
-0.0496133
-0.050254
-0.0508947
-0.0515355
-0.0521765
-0.0528175
-0.0534587
-0.0540999
-0.0547413
-0.0553827
-0.0560242
-0.0566658
-0.0573075
-0.0579492
-0.058591
-0.0430772
-0.0436795
-0.044282
-0.0448846
-0.0454872
-0.0460899
-0.0466926
-0.0472954
-0.0478982
-0.0485011
-0.0491041
-0.049707
-0.05031
-0.050913
-0.051516
-0.052119
-0.052722
-0.053325
-0.053928
-0.0545309
-0.0551338
-0.0557367
-0.0563395
-0.0569423
-0.0423588
-0.0429263
-0.0434937
-0.0440612
-0.0446288
-0.0451963
-0.0457638
-0.0463314
-0.0468989
-0.0474664
-0.0480338
-0.0486012
-0.0491686
-0.0497359
-0.0503031
-0.0508702
-0.0514372
-0.0520042
-0.052571
-0.0531377
-0.0537043
-0.0542707
-0.0548369
-0.055403
-0.0416939
-0.0422285
-0.042763
-0.0432976
-0.043832
-0.0443665
-0.0449009
-0.0454353
-0.0459695
-0.0465037
-0.0470378
-0.0475718
-0.0481056
-0.0486393
-0.0491729
-0.0497063
-0.0502395
-0.0507726
-0.0513055
-0.0518381
-0.0523705
-0.0529027
-0.0534346
-0.0539663
-0.0410789
-0.0415825
-0.0420861
-0.0425896
-0.043093
-0.0435963
-0.0440995
-0.0446027
-0.0451057
-0.0456085
-0.0461112
-0.0466138
-0.0471161
-0.0476183
-0.0481202
-0.048622
-0.0491235
-0.0496247
-0.0501256
-0.0506263
-0.0511267
-0.0516267
-0.0521264
-0.0526258
-0.0405102
-0.0409847
-0.0414591
-0.0419334
-0.0424076
-0.0428817
-0.0433556
-0.0438294
-0.044303
-0.0447764
-0.0452497
-0.0457227
-0.0461954
-0.0466679
-0.0471402
-0.0476122
-0.0480838
-0.0485552
-0.0490262
-0.0494969
-0.0499672
-0.0504371
-0.0509066
-0.0513757
-0.0399847
-0.0404318
-0.0408788
-0.0413257
-0.0417725
-0.042219
-0.0426654
-0.0431116
-0.0435576
-0.0440034
-0.044449
-0.0448942
-0.0453392
-0.0457839
-0.0462283
-0.0466723
-0.047116
-0.0475594
-0.0480023
-0.0484449
-0.048887
-0.0493287
-0.0497699
-0.0502106
-0.0394998
-0.0399211
-0.0403424
-0.0407635
-0.0411844
-0.0416052
-0.0420257
-0.042446
-0.0428661
-0.0432859
-0.0437055
-0.0441247
-0.0445436
-0.0449622
-0.0453804
-0.0457983
-0.0462158
-0.0466328
-0.0470495
-0.0474657
-0.0478814
-0.0482966
-0.0487114
-0.0491256
-0.0390527
-0.0394499
-0.039847
-0.0402439
-0.0406406