/*--------------------------------*- C++ -*----------------------------------*\
  =========                 |
  \\      /  F ield         | OpenFOAM: The Open Source CFD Toolbox
   \\    /   O peration     | Website:  https://openfoam.org
    \\  /    A nd           | Version:  7
     \\/     M anipulation  |
\*---------------------------------------------------------------------------*/
FoamFile
{
    version     2.0;
    format      ascii;
    class       surfaceScalarField;
    location    "40";
    object      phi;
}
// * * * * * * * * * * * * * * * * * * * * * * * * * * * * * * * * * * * * * //

dimensions      [0 3 -1 0 0 0 0];

internalField   nonuniform List<scalar> 
8842
(
-7.89838e-07
8.05785e-07
-1.59472e-08
-2.98312e-06
2.23517e-06
-4.18906e-08
3.55054e-06
-6.34207e-08
-7.87722e-07
1.59351e-06
-2.97531e-06
4.42276e-06
7.02867e-06
-7.8354e-07
2.37705e-06
-2.95987e-06
6.59909e-06
1.0489e-05
-7.77347e-07
3.15439e-06
-2.93698e-06
8.75872e-06
1.39228e-05
-7.69222e-07
3.92362e-06
-2.9069e-06
1.08964e-05
1.73218e-05
-7.59268e-07
4.68288e-06
-2.87e-06
1.30071e-05
2.06779e-05
-7.47612e-07
5.4305e-06
-2.82669e-06
1.50862e-05
2.39836e-05
-7.34396e-07
6.16489e-06
-2.77746e-06
1.71293e-05
2.72317e-05
-7.19778e-07
6.88467e-06
-2.72283e-06
1.91323e-05
-5.90686e-06
3.04157e-05
4.07145e-05
-7.03929e-07
7.5886e-06
-2.66339e-06
2.10918e-05
-5.77731e-06
3.35297e-05
4.48758e-05
-6.87024e-07
8.27562e-06
-2.59972e-06
2.30045e-05
-5.63812e-06
3.65681e-05
4.89329e-05
-6.69244e-07
8.94487e-06
-2.53241e-06
2.48677e-05
-5.49049e-06
3.95261e-05
5.28789e-05
-6.50765e-07
9.59563e-06
-2.46208e-06
2.6679e-05
-5.33558e-06
4.23996e-05
5.67074e-05
-6.31759e-07
1.02274e-05
-2.38927e-06
2.84365e-05
-5.17451e-06
4.51849e-05
6.04126e-05
-6.12387e-07
1.08398e-05
-2.31451e-06
3.01386e-05
-5.00829e-06
4.78787e-05
6.39894e-05
-5.92795e-07
1.14326e-05
-2.23828e-06
3.17841e-05
-4.83784e-06
5.04782e-05
6.74331e-05
-5.73112e-07
1.20057e-05
-2.16099e-06
3.3372e-05
-4.66391e-06
5.29811e-05
-7.9702e-06
7.07394e-05
8.6587e-05
-5.53445e-07
1.25591e-05
-2.08296e-06
3.49015e-05
-4.48708e-06
5.53853e-05
-7.65187e-06
7.39042e-05
9.03883e-05
-5.33877e-07
1.3093e-05
-2.00444e-06
3.6372e-05
-4.30776e-06
5.76886e-05
-7.32702e-06
7.69235e-05
9.39961e-05
-5.14467e-07
1.36075e-05
-1.92558e-06
3.77832e-05
-4.12613e-06
5.98891e-05
-6.99575e-06
7.97931e-05
9.74034e-05
-4.95249e-07
1.41027e-05
-1.84642e-06
3.91343e-05
-3.94218e-06
6.19849e-05
-6.65778e-06
8.25087e-05
-9.85728e-06
0.000100603
0.000116204
-4.7623e-07
1.4579e-05
-1.76693e-06
4.0425e-05
-3.75565e-06
6.39736e-05
-6.31241e-06
8.50654e-05
-9.29588e-06
0.000103586
0.000119463
-4.57394e-07
1.50363e-05
-1.68698e-06
4.16546e-05
-3.56611e-06
6.58528e-05
-5.95858e-06
8.74579e-05
-8.71676e-06
0.000106345
0.000122429
-4.387e-07
1.5475e-05
-1.60632e-06
4.28222e-05
-3.37289e-06
6.76193e-05
-5.59484e-06
8.96798e-05
-8.11716e-06
0.000108867
0.000125086
-4.20087e-07
1.58951e-05
-1.52466e-06
4.39268e-05
-3.17514e-06
6.92698e-05
-5.21938e-06
9.17241e-05
-7.49375e-06
0.000111141
-9.82395e-06
0.000127416
0.000140474
-4.01476e-07
1.62966e-05
-1.4416e-06
4.49669e-05
-2.97184e-06
7.08001e-05
-4.83006e-06
9.35823e-05
-6.84264e-06
0.000113154
-8.82507e-06
0.000129398
0.00014223
-3.82769e-07
1.66794e-05
-1.35669e-06
4.59409e-05
-2.76178e-06
7.22051e-05
-4.42445e-06
9.5245e-05
-6.15947e-06
0.000114889
-7.77042e-06
0.000131009
0.000143508
-3.63857e-07
1.70432e-05
-1.26939e-06
4.68464e-05
-2.54362e-06
7.34794e-05
-3.99981e-06
9.67012e-05
-5.43939e-06
0.000116328
-6.65211e-06
0.000132222
-7.41464e-06
0.000144271
0.000152378
-3.44612e-07
1.73878e-05
-1.17913e-06
4.76809e-05
-2.31586e-06
7.46161e-05
-3.55316e-06
9.79385e-05
-4.67717e-06
0.000117452
-5.46163e-06
0.000133007
-5.66615e-06
0.000144476
0.000151744
-3.24896e-07
1.77127e-05
-1.08525e-06
4.84413e-05
-2.07687e-06
7.56077e-05
-3.08128e-06
9.89429e-05
-3.86719e-06
0.000118238
-4.18995e-06
0.000133329
-3.78932e-06
0.000144075
0.000150341
-3.04554e-07
1.80173e-05
-9.87046e-07
4.91238e-05
-1.82486e-06
7.64455e-05
-2.58066e-06
9.96987e-05
-3.00345e-06
0.000118661
-2.82754e-06
0.000133153
-1.76978e-06
0.000143017
4.74925e-07
0.000148096
0.000148218
-2.83413e-07
1.83007e-05
-8.83721e-07
4.97241e-05
-1.55789e-06
7.71197e-05
-2.04755e-06
0.000100188
-2.07958e-06
0.000118693
-1.3644e-06
0.000132438
4.07384e-07
0.000141245
3.57022e-06
0.000144933
0.000143298
-2.61277e-07
1.8562e-05
-7.74402e-07
5.02372e-05
-1.27383e-06
7.76191e-05
-1.47787e-06
0.000100392
-1.08878e-06
0.000118304
2.10044e-07
0.000131139
2.75757e-06
0.000138698
6.92212e-06
0.000140768
1.31074e-05
0.000137113
0.000127446
-2.37922e-07
1.87999e-05
-6.58111e-07
5.06574e-05
-9.70326e-07
7.79313e-05
-8.67195e-07
0.000100289
-2.3273e-08
0.00011746
1.90679e-06
0.000129209
5.29683e-06
0.000135308
1.05529e-05
0.000135512
1.81223e-05
0.000129543
0.000117067
-2.13092e-07
1.9013e-05
-5.33748e-07
5.0978e-05
-6.44797e-07
7.80424e-05
-2.10786e-07
9.98552e-05
1.12341e-06
0.000116126
3.73763e-06
0.000126595
8.04191e-06
0.000131003
1.44853e-05
0.000129069
2.35642e-05
0.000120465
0.000104801
-1.86486e-07
1.91995e-05
-4.00064e-07
5.11916e-05
-2.94349e-07
7.79367e-05
4.96642e-07
9.90642e-05
2.36112e-06
0.000114262
5.71519e-06
0.000123241
1.10103e-05
0.000125708
1.87429e-05
0.000121336
2.94636e-05
0.000109744
4.37862e-05
9.04781e-05
6.30059e-05
-1.57754e-07
1.93572e-05
-2.5564e-07
5.12895e-05
8.43245e-08
7.75967e-05
1.26094e-06
9.78876e-05
3.69854e-06
0.000111824
7.85288e-06
0.000119087
1.42206e-05
0.000119341
2.33499e-05
0.000112207
3.58506e-05
9.72432e-05
5.24042e-05
7.39244e-05
4.16393e-05
-1.26498e-07
1.94837e-05
-9.87773e-08
5.12618e-05
4.94471e-07
7.70034e-05
2.08841e-06
9.62937e-05
5.14564e-06
0.000108767
1.01651e-05
0.000114067
1.76923e-05
0.000111813
2.83313e-05
0.000101568
4.2756e-05
8.28185e-05
6.17201e-05
5.49603e-05
8.60641e-05
1.72953e-05
-3.09563e-05
-9.22891e-08
1.9576e-05
7.19889e-08
5.10975e-05
9.40294e-07
7.61351e-05
2.98599e-06
9.4248e-05
6.71319e-06
0.000105039
1.26671e-05
0.000108113
2.14459e-05
0.000103035
3.37133e-05
8.93008e-05
5.02107e-05
6.63211e-05
7.17677e-05
3.34033e-05
9.93077e-05
-1.02447e-05
-6.54965e-05
-5.46266e-08
1.96307e-05
2.5847e-07
5.07844e-05
1.42595e-06
7.49677e-05
3.96115e-06
9.17128e-05
8.4127e-06
0.000100588
1.53753e-05
0.000101151
2.5503e-05
9.29069e-05
3.95225e-05
7.52813e-05
5.82458e-05
4.75977e-05
8.25798e-05
9.06933e-06
0.000113531
-4.11956e-05
0.000152202
-0.000104167
-0.000180841
-1.32006e-08
1.96439e-05
4.63139e-07
5.03081e-05
1.95587e-06
7.34749e-05
5.02161e-06
8.8647e-05
1.02561e-05
9.53534e-05
1.83065e-05
9.31004e-05
2.98856e-05
8.13278e-05
4.5786e-05
5.93809e-05
6.68918e-05
2.64919e-05
9.41869e-05
-1.82258e-05
0.000128757
-7.57654e-05
0.000171781
-0.000147192
-0.000233579
3.34735e-08
1.96104e-05
6.88491e-07
4.9653e-05
2.53549e-06
7.16279e-05
6.17643e-06
8.50061e-05
1.22568e-05
8.92731e-05
2.14788e-05
8.38784e-05
3.46169e-05
6.81897e-05
5.25311e-05
4.14667e-05
7.6178e-05
2.84498e-06
0.000106616
-4.86639e-05
0.000145003
-0.000114152
0.00019258
-0.00019477
0.000250653
-0.000291651
-0.000405803
8.51273e-08
1.95253e-05
9.36643e-07
4.88015e-05
3.16967e-06
6.93949e-05
7.43406e-06
8.07417e-05
1.44275e-05
8.22797e-05
2.49099e-05
7.33959e-05
3.97191e-05
5.33805e-05
5.97837e-05
2.14022e-05
8.61314e-05
-2.35028e-05
0.00011989
-8.24226e-05
0.000162278
-0.00015654
0.00021458
-0.000247072
0.000278111
-0.000355183
0.000354168
-0.000481859
-0.000627766
1.42853e-07
1.93824e-05
1.21013e-06
4.77343e-05
3.86371e-06
6.67413e-05
8.80342e-06
7.5802e-05
1.67814e-05
7.43018e-05
2.86173e-05
6.156e-05
4.52138e-05
3.6784e-05
6.75678e-05
-9.51822e-07
9.6775e-05
-5.27099e-05
0.000134025
-0.000119672
0.000180581
-0.000203096
0.000237746
-0.000304237
0.000306807
-0.000424244
0.000388965
-0.000564017
-0.000724063
2.07327e-07
1.91751e-05
1.51152e-06
4.64301e-05
4.62296e-06
6.36299e-05
1.02934e-05
7.01316e-05
1.93313e-05
6.52638e-05
3.26179e-05
4.82734e-05
5.11212e-05
1.82807e-05
7.59045e-05
-2.57351e-05
0.000108126
-8.49317e-05
0.000149026
-0.000160572
0.000199896
-0.000253965
0.000262024
-0.000366365
0.000336625
-0.000498845
0.000424747
-0.000652139
0.000527165
-0.00082648
-0.00102146
2.79268e-07
1.88958e-05
1.84335e-06
4.4866e-05
5.45267e-06
6.00206e-05
1.19126e-05
6.36717e-05
2.20896e-05
5.50868e-05
3.69274e-05
3.34357e-05
5.74585e-05
-2.25046e-06
8.481e-05
-5.30865e-05
0.000120195
-0.000120317
0.00016489
-0.000205268
0.00022019
-0.000309265
0.000287336
-0.000433511
0.000367424
-0.000578933
0.000461285
-0.000746
0.000569359
-0.000934554
0.000691577
-0.00114368
-0.00137165
3.59388e-07
1.85364e-05
2.2081e-06
4.30173e-05
6.35788e-06
5.58708e-05
1.3669e-05
5.63605e-05
2.50674e-05
4.36884e-05
4.1559e-05
1.6944e-05
6.42398e-05
-2.49312e-05
9.42948e-05
-8.31415e-05
0.000132982
-0.000159004
0.000181597
-0.000253882
0.000241409
-0.000369077
0.000313576
-0.000505678
0.000399023
-0.00066438
0.000498307
-0.000845284
0.000611475
-0.00104772
0.000737937
-0.00127014
-0.00151003
4.48375e-07
1.8088e-05
2.60813e-06
4.08575e-05
7.34329e-06
5.11356e-05
1.55702e-05
4.81336e-05
2.82744e-05
3.09841e-05
4.65239e-05
-1.30544e-06
7.14744e-05
-4.98818e-05
0.000104362
-0.000116029
0.000146476
-0.000201118
0.00019911
-0.000306516
0.000263478
-0.000433445
0.000340608
-0.000582808
0.000431206
-0.000754978
0.000535501
-0.000949579
0.000653099
-0.00116532
0.000782872
-0.00139992
0.00092286
-0.00165002
-0.00191252
5.46878e-07
1.75412e-05
3.04561e-06
3.83588e-05
8.41312e-06
4.57681e-05
1.76223e-05
3.89244e-05
3.17185e-05
1.6888e-05
5.18295e-05
-2.14165e-05
7.91664e-05
-7.72186e-05
0.000115006
-0.000151869
0.000160654
-0.000246766
0.000217374
-0.000363236
0.000286292
-0.000502362
0.000368262
-0.000664779
0.000463718
-0.000850434
0.000572514
-0.00105837
0.000693783
-0.00128659
0.000825865
-0.001532
0.000966272
-0.00179043
0.00111174
-0.00205799
-0.00232723
6.55488e-07
1.68857e-05
3.52248e-06
3.54918e-05
9.571e-06
3.97196e-05
1.98306e-05
2.86648e-05
3.54052e-05
1.31334e-06
5.74797e-05
-4.3491e-05
8.73134e-05
-0.000107052
0.000126213
-0.000190768
0.000175478
-0.000296031
0.000236316
-0.000424074
0.000309723
-0.00057577
0.000396337
-0.000751393
0.000496271
-0.000950368
0.000608963
-0.00117107
0.000733061
-0.00141069
0.000866395
-0.00166533
0.00100604
-0.00193007
0.0011484
-0.00220035
0.00128976
-0.00246859
-0.00272885
7.74732e-07
1.61109e-05
4.04037e-06
3.22262e-05
1.08198e-05
3.29401e-05
2.21987e-05
1.7286e-05
3.93376e-05
-1.58256e-05
6.34739e-05
-6.76273e-05
9.59062e-05
-0.000139485
0.000137955
-0.000232817
0.000190893
-0.000348969
0.000255838
-0.000489019
0.000333617
-0.000653549
0.000424602
-0.000842378
0.000528546
-0.00105431
0.000644442
-0.00128696
0.000770456
-0.0015367
0.000903963
-0.00179884
0.0010417
-0.0020678
0.00117991
-0.00233856
0.00131503
-0.00260371
-0.0028586
0.00144478
9.05062e-07
1.52059e-05
4.60063e-06
2.85306e-05
1.21618e-05
2.5379e-05
2.47286e-05
4.71914e-06
4.35157e-05
-3.46127e-05
6.98065e-05
-9.39181e-05
0.000104928
-0.000174606
0.000150197
-0.000278086
0.000206831
-0.000405603
0.000275825
-0.000558013
0.000357794
-0.000735518
0.000452802
-0.000937386
0.000560203
-0.00116171
0.000678537
-0.00140529
0.000805511
-0.00166368
0.000938113
-0.00193144
0.00107285
-0.00220254
0.00120599
-0.00247169
0.00133423
-0.00273196
-0.00297997
0.0014556
1.04684e-06
1.4159e-05
5.20421e-06
2.43732e-05
1.3598e-05
1.69852e-05
2.74208e-05
-9.1037e-06
4.79367e-05
-5.51285e-05
7.64672e-05
-0.000122449
0.000114354
-0.000212493
0.00016289
-0.000326622
0.000223208
-0.000465921
0.000296142
-0.000630947
0.000382053
-0.000821429
0.000480658
-0.00103599
0.000590892
-0.00127195
0.000710839
-0.00152524
0.000837796
-0.00179063
0.000968453
-0.0020621
0.00109922
-0.00233331
0.0012265
-0.00259897
0.0013474
-0.00285286
-0.00309287
0.00146031
1.20035e-06
1.29587e-05
5.8517e-06
1.97219e-05
1.51288e-05
7.70812e-06
3.02736e-05
-2.42486e-05
5.2594e-05
-7.74488e-05
8.34397e-05
-0.000153294
0.000124152
-0.000253205
0.000175973
-0.000378443
0.000239923
-0.000529871
0.000316633
-0.000707658
0.000406174
-0.000910969
0.000507882
-0.0011377
0.000620258
-0.00138432
0.000740959
-0.00164594
0.00086693
-0.0019166
0.00099467
-0.00218984
0.00112062
-0.00245926
0.00124144
-0.00271979
0.00135471
-0.00296613
-0.00319739
0.00145924
1.36577e-06
1.15929e-05
6.54328e-06
1.45444e-05
1.67534e-05
-2.50205e-06
3.32835e-05
-4.07786e-05
5.74778e-05
-0.000101643
9.07027e-05
-0.000186519
0.000134279
-0.000296782
0.000189375
-0.00043354
0.000256861
-0.000597357
0.000337131
-0.000787927
0.000429924
-0.00100376
0.000534176
-0.00124195
0.000647959
-0.0014981
0.000768539
-0.00176652
0.000892593
-0.00204066
0.00101654
-0.00231379
0.00113696
-0.00257968
0.00125089
-0.00283372
0.00135643
-0.00307166
-0.00329377
0.0014528
1.54319e-06
1.00497e-05
7.27869e-06
8.80887e-06
1.84702e-05
-1.36935e-05
3.64448e-05
-5.87533e-05
6.25749e-05
-0.000127773
9.82289e-05
-0.000222173
0.000144687
-0.00034324
0.000203014
-0.000491867
0.000273896
-0.000668238
0.000357451
-0.000871483
0.000453061
-0.00109937
0.000559247
-0.00134814
0.000673671
-0.00161253
0.000793268
-0.00188612
0.000914537
-0.00216193
0.00103393
-0.00243318
0.00114827
-0.00269403
0.00125506
-0.00294051
0.0013529
-0.00316951
-0.00338234
0.00144148
1.7326e-06
8.31713e-06
8.05728e-06
2.48419e-06
2.02761e-05
-2.59124e-05
3.97498e-05
-7.8227e-05
6.7868e-05
-0.000155891
0.000105985
-0.000260291
0.000155318
-0.000392573
0.000216797
-0.000553346
0.000290889
-0.00074233
0.000377404
-0.000957998
0.000475341
-0.00119731
0.000582812
-0.00145561
0.000697102
-0.00172682
0.000814888
-0.00200391
0.000932589
-0.00227963
0.00104679
-0.00254738
0.00115467
-0.0028019
0.0012542
-0.00304004
0.00134454
-0.00325984
-0.00346356
0.00142576
1.93388e-06
6.38324e-06
8.87789e-06
-4.45982e-06
2.21674e-05
-3.92019e-05
4.31886e-05
-9.92482e-05
7.33366e-05
-0.000186039
0.000113934
-0.000300888
0.000166107
-0.000444746
0.000230623
-0.000617862
0.000307693
-0.0008194
0.000396792
-0.0010471
0.000496525
-0.00129704
0.000604607
-0.00156369
0.000717999
-0.00184021
0.000833199
-0.00211911
0.000946653
-0.00239308
0.00105518
-0.00265591
0.00115636
-0.00290308
0.00124868
-0.00313236
0.00133179
-0.00334296
-0.00353792
0.00140615
2.14682e-06
4.23642e-06
9.73897e-06
-1.2052e-05
2.41388e-05
-5.36018e-05
4.67492e-05
-0.000121859
7.89564e-05
-0.000218246
0.000122031
-0.000343962
0.000176983
-0.000499698
0.000244382
-0.000685261
0.000324156
-0.000899174
0.00041542
-0.00113836
0.000516383
-0.001398
0.000624394
-0.0016717
0.000736152
-0.00195197
0.000848069
-0.00223102
0.000956709
-0.00250172
0.00105921
-0.00275841
0.00115359
-0.00299746
0.00123886
-0.00321763
0.00131511
-0.00341922
-0.00360593
0.00138313
2.3711e-06
1.86532e-06
1.06384e-05
-2.03193e-05
2.61843e-05
-6.91476e-05
5.04174e-05
-0.000146092
8.46999e-05
-0.000252529
0.000130228
-0.00038949
0.000187868
-0.000557338
0.000257961
-0.000755354
0.000340123
-0.000981336
0.000433094
-0.00123133
0.000534701
-0.00149961
0.000641966
-0.00177897
0.000751403
-0.00206141
0.000859426
-0.00233905
0.000962806
-0.0026051
0.00105906
-0.00285466
0.00114667
-0.00308507
0.00122514
-0.00329611
0.00129496
-0.00348904
-0.00366814
0.00135717
2.60626e-06
-7.4094e-07
1.15738e-05
-2.92868e-05
2.82964e-05
-8.58701e-05
5.41769e-05
-0.000171972
9.05359e-05
-0.000288888
0.000138472
-0.000437426
0.000198679
-0.000617545
0.00027124
-0.000827915
0.000355437
-0.00106553
0.000449632
-0.00132553
0.000551287
-0.00160127
0.000657157
-0.00188484
0.000763646
-0.00216789
0.000867261
-0.00244266
0.000965055
-0.0027029
0.00105496
-0.00294456
0.00113593
-0.00316605
0.00120793
-0.0033681
0.00127178
-0.00355289
-0.00372506
0.0013287
2.85177e-06
-3.59271e-06
1.2542e-05
-3.89771e-05
3.04667e-05
-0.000103795
5.80094e-05
-0.000199515
9.64305e-05
-0.000327309
0.000146706
-0.000487702
0.00020933
-0.000680169
0.0002841
-0.000902685
0.000369948
-0.00115138
0.000464861
-0.00142044
0.000565975
-0.00170238
0.000669837
-0.0019887
0.000772826
-0.00227088
0.000871621
-0.00254146
0.000963617
-0.00279489
0.00104718
-0.00302813
0.00112174
-0.00324061
0.00118764
-0.003434
0.00124597
-0.00361121
-0.00377718
0.00129809
3.10696e-06
-6.69967e-06
1.35396e-05
-4.94097e-05
3.26856e-05
-0.000122941
6.18947e-05
-0.000228724
0.000102347
-0.000367761
0.000154871
-0.000540226
0.000219732
-0.00074503
0.000296422
-0.000979375
0.000383511
-0.00123847
0.00047863
-0.00151556
0.000578629
-0.00180238
0.00067992
-0.00208999
0.000778937
-0.0023699
0.000872601
-0.00263512
0.000958693
-0.00288098
0.00103603
-0.00310546
0.00110445
-0.00330903
0.00116465
-0.0034942
0.00121791
-0.00366448
-0.00382496
0.00126569
3.37102e-06
-1.00707e-05
1.45626e-05
-6.06014e-05
3.49425e-05
-0.000143321
6.58107e-05
-0.000259592
0.000108246
-0.000410196
0.000162903
-0.000594884
0.000229795
-0.000811922
0.000308088
-0.00105767
0.000395992
-0.00132637
0.000490803
-0.00161037
0.000589143
-0.00190072
0.00068736
-0.00218821
0.000782018
-0.00246456
0.00087034
-0.00272344
0.000950516
-0.00296116
0.0010218
-0.00317674
0.00108441
-0.00337164
0.00113931
-0.0035491
0.00118795
-0.00371312
-0.0038688
0.0012318
3.64304e-06
-1.37137e-05
1.56066e-05
-7.25649e-05
3.72258e-05
-0.00016494
6.97338e-05
-0.0002921
0.000114086
-0.000454548
0.00017074
-0.000651538
0.000239431
-0.000880614
0.000318989
-0.00113723
0.000407269
-0.00141465
0.000501272
-0.00170437
0.000597446
-0.00199689
0.000692152
-0.00228291
0.000782149
-0.00255455
0.000865009
-0.0028063
0.000939338
-0.00303549
0.0010048
-0.00324221
0.00106195
-0.00342879
0.00111197
-0.00359912
0.00115639
-0.00375754
-0.00390908
0.00119667
3.92196e-06
-1.76357e-05
1.66666e-05
-8.53095e-05
3.95228e-05
-0.000187796
7.3639e-05
-0.000326217
0.000119824
-0.000500733
0.000178316
-0.000710029
0.000248552
-0.00095085
0.000329019
-0.00121769
0.000417237
-0.00150287
0.000509948
-0.00179709
0.000603499
-0.00209044
0.000694326
-0.00237374
0.000779445
-0.00263967
0.000856803
-0.00288366
0.00092542
-0.0031041
0.000985335
-0.00330212
0.00103739
-0.00348085
0.00108293
-0.00364466
0.0011235
-0.00379811
-0.00394612
0.00116054
4.20662e-06
-2.18423e-05
1.77372e-05
-9.88401e-05
4.18201e-05
-0.000211879
7.74999e-05
-0.000361896
0.000125418
-0.000548651
0.000185567
-0.000770179
0.000257075
-0.00102236
0.000338085
-0.0012987
0.000425805
-0.00159059
0.000516773
-0.00188805
0.000607292
-0.00218096
0.000693944
-0.00246039
0.000774046
-0.00271978
0.000845934
-0.00295555
0.000909027
-0.0031672
0.0009637
-0.00335679
0.00101102
-0.00352817
0.00105244
-0.00368608
0.0010895
-0.00383518
-0.00398019
0.00112357
4.4957e-06
1.88127e-05
4.41034e-05
8.12895e-05
-0.000399082
0.000130822
-0.000598184
0.000192431
-0.000831788
0.000264922
-0.00109485
0.000346103
-0.00137988
0.000432904
-0.00167739
0.00052171
-0.00197686
0.000608847
-0.0022681
0.000691098
-0.00254264
0.000766115
-0.00279479
0.000832626
-0.00302206
0.000890422
-0.00322499
0.000940168
-0.00340654
0.000983107
-0.00357111
0.00102075
-0.00372371
0.0010546
-0.00386904
-0.00401152
0.00108594
8.49802e-05
0.000135994
0.000198848
-0.000894642
0.000272022
-0.00116802
0.000353004
-0.00146086
0.000438482
-0.00176287
0.000524748
-0.00206312
0.00060821
-0.00235156
0.000685901
-0.00262034
0.000755828
-0.00286472
0.000817102
-0.00308333
0.000869855
-0.00327775
0.000914993
-0.00345168
0.000953885
-0.00361
0.000988059
-0.00375789
0.00101897
-0.00389994
-0.00404033
0.00104777
0.000204761
0.00027831
0.000358728
0.000442507
-0.00184665
0.000525898
-0.00214652
0.000605451
-0.00243111
0.000678484
-0.00269337
0.000743371
-0.00292961
0.000799588
-0.00313955
0.000847567
-0.00332573
0.000888409
-0.00349252
0.000923568
-0.00364516
0.000954554
-0.00378887
0.000982738
-0.00392813
-0.00406676
0.00100917
0.000444965
0.000525194
0.00060066
0.000668993
0.000728934
-0.00298955
0.000780299
-0.00319092
0.00082378
-0.00336921
0.000860629
-0.00352937
0.000892341
-0.00367687
0.000920385
-0.00381692
0.000946036
-0.00395378
-0.00409095
0.00097023
0.000712706
0.000759444
0.000798702
0.000831841
-0.00356251
0.000860366
-0.0037054
0.000885682
-0.00384224
0.000908961
-0.00397706
-0.00411302
0.000931027
0.000802213
0.000827784
0.000850558
0.000871599
-0.00413304
0.000891624
0.000852073
0.00413295
0.000852096
0.000802226
0.00356241
0.000827799
0.0037053
0.000850576
0.00384214
0.00087162
0.00397696
0.00411292
0.000891647
0.000657579
0.00276159
0.000712708
0.00298943
0.000759449
0.00319081
0.00079871
0.0033691
0.000831853
0.00352926
0.000860381
0.00367677
0.0008857
0.00381682
0.000908982
0.00395368
0.00409085
0.00093105
0.000444955
0.00184654
0.000525186
0.0021464
0.000600653
0.002431
0.00066899
0.00269325
0.000728934
0.00292949
0.000780303
0.00313944
0.000823788
0.00332562
0.000860639
0.00349241
0.000892354
0.00364506
0.000920402
0.00378877
0.000946056
0.00392803
0.00406665
0.000970252
0.000204753
0.000894573
0.0002783
0.00116794
0.000358717
0.00146077
0.000442496
0.00176276
0.000525888
0.00206301
0.000605443
0.00235144
0.000678479
0.00262021
0.000743369
0.0028646
0.00079959
0.00308322
0.000847573
0.00327763
0.000888419
0.00345157
0.000923581
0.00360989
0.00095457
0.00375778
0.000982758
0.00389984
0.00404022
0.00100919
8.49758e-05
0.000399046
0.000135987
0.000598133
0.000198839
0.000831721
0.000272011
0.00109477
0.000352992
0.00137979
0.00043847
0.00167728
0.000524736
0.00197674
0.0006082
0.00226798
0.000685894
0.00254252
0.000755824
0.00279467
0.000817103
0.00302194
0.000869859
0.00322488
0.000915001
0.00340642
0.000953897
0.003571
0.000988074
0.00372361
0.00101899
0.00386893
0.00401142
0.00104779
4.4954e-06
2.1839e-05
1.88116e-05
9.88284e-05
4.41008e-05
0.000211857
8.1285e-05
0.000361861
0.000130816
0.000548602
0.000192422
0.000770114
0.000264911
0.00102228
0.000346091
0.00129861
0.000432891
0.00159048
0.000521697
0.00188794
0.000608835
0.00218084
0.000691089
0.00246027
0.000766109
0.00271965
0.000832624
0.00295542
0.000890424
0.00316708
0.000940174
0.00335668
0.000983117
0.00352805
0.00102076
0.00368596
0.00105462
0.00383507
0.00398008
0.00108596
4.20632e-06
1.76327e-05
1.77361e-05
8.52987e-05
4.18175e-05
0.000187775
7.74954e-05
0.000326184
0.000125411
0.000500686
0.000185558
0.000709968
0.000257064
0.000950773
0.000338071
0.0012176
0.00042579
0.00150277
0.000516758
0.00179697
0.000607278
0.00209032
0.000693932
0.00237361
0.000774038
0.00263954
0.00084593
0.00288353
0.000909027
0.00310398
0.000963704
0.003302
0.00101103
0.00348073
0.00105245
0.00364454
0.00108952
0.00379799
0.00394601
0.00112359
3.92167e-06
1.3711e-05
1.66654e-05
7.25549e-05
3.95203e-05
0.00016492
7.36345e-05
0.000292069
0.000119817
0.000454503
0.000178306
0.000651479
0.00024854
0.000880539
0.000329005
0.00113714
0.000417221
0.00141455
0.000509932
0.00170426
0.000603483
0.00199677
0.000694312
0.00228278
0.000779434
0.00255442
0.000856796
0.00280617
0.000925417
0.00303536
0.000985337
0.00324208
0.0010374
0.00342867
0.00108294
0.003599
0.00112352
0.00375742
0.00390897
0.00116056
3.64276e-06
1.00683e-05
1.56055e-05
6.05922e-05
3.72233e-05
0.000143303
6.97294e-05
0.000259563
0.000114079
0.000410154
0.00017073
0.000594827
0.000239419
0.00081185
0.000318974
0.00105758
0.000407252
0.00132627
0.000501254
0.00161026
0.000597429
0.00190059
0.000692136
0.00218808
0.000782136
0.00246442
0.000864999
0.00272331
0.000939332
0.00296102
0.0010048
0.00317661
0.00106195
0.00337151
0.00111198
0.00354897
0.00115641
0.00371299
0.00386868
0.00119669
3.37076e-06
6.69753e-06
1.45616e-05
4.94013e-05
3.49401e-05
0.000122924
6.58064e-05
0.000228697
0.000108239
0.000367722
0.000162894
0.000540172
0.000229783
0.000744961
0.000308073
0.000979291
0.000395974
0.00123837
0.000490784
0.00151545
0.000589123
0.00180225
0.000687342
0.00208986
0.000782001
0.00236976
0.000870327
0.00263498
0.000950508
0.00288084
0.00102179
0.00310533
0.00108441
0.0033089
0.00113932
0.00349406
0.00118796
0.00366435
0.00382483
0.00123181
3.10671e-06
3.59082e-06
1.35386e-05
3.89694e-05
3.26833e-05
0.000103779
6.18904e-05
0.00019949
0.00010234
0.000327272
0.000154861
0.000487651
0.000219719
0.000680103
0.000296406
0.000902604
0.000383492
0.00115128
0.000478609
0.00142033
0.000578607
0.00170226
0.000679899
0.00198857
0.000778917
0.00227074
0.000872585
0.00254131
0.000958681
0.00279475
0.00103602
0.00302799
0.00110445
0.00324047
0.00116465
0.00343386
0.00121792
0.00361108
0.00377705
0.0012657
2.85154e-06
7.39278e-07
1.2541e-05
2.92799e-05
3.04644e-05
8.5856e-05
5.80053e-05
0.000171949
9.64239e-05
0.000288853
0.000146697
0.000437378
0.000209317
0.000617483
0.000284084
0.000827837
0.000369928
0.00106544
0.000464839
0.00132542
0.000565951
0.00160114
0.000669813
0.0018847
0.000772804
0.00216775
0.000871601
0.00244252
0.000963601
0.00270275
0.00104717
0.00294441
0.00112174
0.0031659
0.00118764
0.00336796
0.00124597
0.00355275
0.00372492
0.0012981
2.60605e-06
-1.86677e-06
1.15729e-05
2.03131e-05
2.82942e-05
6.91347e-05
5.41729e-05
0.00014607
9.05294e-05
0.000252497
0.000138462
0.000389445
0.000198666
0.000557279
0.000271223
0.000755279
0.000355417
0.000981246
0.000449608
0.00123123
0.000551261
0.00149949
0.000657131
0.00177884
0.000763621
0.00206126
0.000867238
0.0023389
0.000965036
0.00260495
0.00105494
0.00285451
0.00113593
0.00308492
0.00120793
0.00329596
0.00127178
0.00348889
0.003668
0.00132871
2.37089e-06
-4.23766e-06
1.06376e-05
1.20464e-05
2.61822e-05
5.35901e-05
5.04135e-05
0.000121839
8.46936e-05
0.000218217
0.000130218
0.000343921
0.000187855
0.000499643
0.000257944
0.00068519
0.000340102
0.000899088
0.00043307
0.00113826
0.000534674
0.00139789
0.000641938
0.00167157
0.000751375
0.00195183
0.000859399
0.00223087
0.000962783
0.00250157
0.00105904
0.00275825
0.00114665
0.0029973
0.00122513
0.00321748
0.00129496
0.00341906
0.00360578
0.00135718
2.14664e-06
-6.3843e-06
9.73815e-06
4.45491e-06
2.41369e-05
3.91914e-05
4.67455e-05
9.92302e-05
7.89503e-05
0.000186012
0.000122022
0.000300849
0.00017697
0.000444694
0.000244365
0.000617795
0.000324135
0.000819318
0.000415395
0.001047
0.000516355
0.00129693
0.000624363
0.00156356
0.000736121
0.00184007
0.000848039
0.00211896
0.000956681
0.00239293
0.00105918
0.00265575
0.00115357
0.00290292
0.00123884
0.0031322
0.00131511
0.0033428
0.00353776
0.00138313
1.93372e-06
-8.31802e-06
8.87714e-06
-2.48851e-06
2.21655e-05
2.5903e-05
4.31851e-05
7.82107e-05
7.33306e-05
0.000155866
0.000113925
0.000260255
0.000166095
0.000392525
0.000230606
0.000553284
0.000307672
0.000742252
0.000396767
0.000957904
0.000496496
0.0011972
0.000604574
0.00145548
0.000717965
0.00172668
0.000833165
0.00200376
0.000946621
0.00227947
0.00105515
0.00254722
0.00115633
0.00280174
0.00124866
0.00303987
0.00133178
0.00325968
0.0034634
0.00140614
1.73245e-06
-1.00505e-05
8.05657e-06
-8.81263e-06
2.02744e-05
1.36852e-05
3.97464e-05
5.87386e-05
6.78622e-05
0.00012775
0.000105977
0.000222141
0.000155306
0.000343196
0.00021678
0.000491809
0.000290867
0.000668165
0.000377378
0.000871394
0.00047531
0.00109927
0.000582778
0.00134802
0.000697066
0.00161239
0.00081485
0.00188597
0.000932552
0.00216177
0.00104676
0.00243301
0.00115464
0.00269385
0.00125418
0.00294034
0.00134452
0.00316934
0.00338217
0.00142575
1.54306e-06
-1.15935e-05
7.27804e-06
-1.45476e-05
1.84685e-05
2.4947e-06
3.64415e-05
4.07656e-05
6.25693e-05
0.000101623
9.82203e-05
0.00018649
0.000144675
0.000296741
0.000202998
0.000433486
0.000273874
0.000597289
0.000357425
0.000787843
0.000453029
0.00100366
0.000559211
0.00124183
0.000673632
0.00149797
0.000793227
0.00176638
0.000914496
0.0020405
0.00103389
0.00231362
0.00114824
0.00257951
0.00125503
0.00283355
0.00135288
0.00307148
0.00329359
0.00144146
1.36565e-06
-1.29592e-05
6.54266e-06
-1.97246e-05
1.67519e-05
-7.71449e-06
3.32803e-05
2.42371e-05
5.74724e-05
7.74307e-05
9.06943e-05
0.000153268
0.000134267
0.000253168
0.000189359
0.000378394
0.000256839
0.000529808
0.000337104
0.000707579
0.000429891
0.000910874
0.000534139
0.00113759
0.000647917
0.00138419
0.000768495
0.0016458
0.000892548
0.00191644
0.0010165