/*--------------------------------*- C++ -*----------------------------------*\
  =========                 |
  \\      /  F ield         | OpenFOAM: The Open Source CFD Toolbox
   \\    /   O peration     | Website:  https://openfoam.org
    \\  /    A nd           | Version:  7
     \\/     M anipulation  |
\*---------------------------------------------------------------------------*/
FoamFile
{
    version     2.0;
    format      ascii;
    class       surfaceScalarField;
    location    "40";
    object      phi;
}
// * * * * * * * * * * * * * * * * * * * * * * * * * * * * * * * * * * * * * //

dimensions      [0 3 -1 0 0 0 0];

internalField   nonuniform List<scalar> 
8927
(
0.00103517
-7.15574e-05
3.35091e-05
0.00107126
-7.1981e-05
3.58912e-05
0.0011053
-6.94241e-05
3.5384e-05
0.0011376
-6.46136e-05
3.23202e-05
0.00116798
-5.75895e-05
2.72088e-05
0.00119685
-4.94968e-05
2.06241e-05
0.00122393
-4.03921e-05
1.33153e-05
0.00124973
-3.1633e-05
5.82834e-06
0.00127385
-2.3077e-05
-1.04165e-06
0.00129692
-1.60465e-05
-7.02333e-06
0.00131838
-1.00161e-05
-1.14446e-05
0.00133905
-6.23363e-06
-1.44344e-05
0.00135811
-3.48554e-06
-1.55789e-05
0.00137666
-3.24101e-06
-1.5311e-05
0.00139361
-3.29438e-06
-1.36471e-05
0.00141029
-5.7657e-06
-1.09154e-05
0.00142532
-7.1603e-06
-7.87083e-06
0.0014404
-1.10599e-05
-4.02717e-06
0.00145372
-1.19858e-05
-1.3344e-06
0.00146741
-1.59683e-05
2.2807e-06
0.00147929
-1.52445e-05
3.37129e-06
0.00149174
-1.81801e-05
5.72289e-06
-1.59785e-05
5.15412e-06
0.00103677
-0.000109491
0.00107274
-0.000107948
0.00110665
-0.000103339
0.00113882
-9.67836e-05
0.00116909
-8.78529e-05
0.00119785
-7.82615e-05
0.00122483
-6.7373e-05
0.00125056
-5.73549e-05
0.00127461
-4.71271e-05
0.00129762
-3.90608e-05
0.00131904
-3.14338e-05
0.00133967
-2.68684e-05
0.00135871
-2.25256e-05
0.00137724
-2.17736e-05
0.00139417
-2.02212e-05
0.00141084
-2.24326e-05
0.00142586
-2.21792e-05
0.00144093
-2.61321e-05
0.00145424
-2.52923e-05
0.00146791
-2.96382e-05
0.00147976
-2.71022e-05
0.0014922
-3.06184e-05
-2.67874e-05
0.00103973
-0.000147225
0.00107549
-0.000143713
0.00110921
-0.000137053
0.00114118
-0.000128759
0.00117126
-0.000117932
0.00119986
-0.000106855
0.00122668
-9.4199e-05
0.00125227
-8.29384e-05
0.0012762
-7.1057e-05
0.00129911
-6.19709e-05
0.00132044
-5.27638e-05
0.001341
-4.74281e-05
0.00135997
-4.15031e-05
0.00137845
-4.02508e-05
0.00139533
-3.71015e-05
0.00141195
-3.90551e-05
0.00142693
-3.71596e-05
0.00144197
-4.11642e-05
0.00145524
-3.85643e-05
0.00146887
-4.32699e-05
0.0014807
-3.89284e-05
0.0014931
-4.30213e-05
-3.75692e-05
0.00104402
-0.00018468
0.0010795
-0.000179198
0.00111294
-0.000170495
0.00114466
-0.00016047
0.00117449
-0.000147762
0.00120285
-0.000135215
0.00122946
-0.000120813
0.00125485
-0.000108329
0.00127861
-9.48163e-05
0.00130137
-8.47293e-05
0.00132257
-7.39625e-05
0.00134301
-6.78712e-05
0.00136189
-6.03807e-05
0.00138027
-5.86373e-05
0.00139708
-5.39037e-05
0.00141362
-5.56032e-05
0.00142854
-5.20756e-05
0.00144351
-5.61316e-05
0.00145672
-5.1781e-05
0.0014703
-5.68432e-05
0.00148208
-5.07073e-05
0.00149443
-5.5373e-05
-4.83129e-05
0.0010496
-0.000221775
0.00108474
-0.00021433
0.00111783
-0.000203592
0.00114921
-0.000191851
0.00117873
-0.00017728
0.0012068
-0.000163284
0.00123315
-0.000147158
0.00125829
-0.000133474
0.00128183
-0.000118356
0.00130439
-0.00010729
0.00132542
-9.49872e-05
0.0013457
-8.81579e-05
0.00136444
-7.91218e-05
0.00138271
-7.68989e-05
0.0013994
-7.05972e-05
0.00141584
-7.20482e-05
0.00143067
-6.69021e-05
0.00144555
-7.10104e-05
0.00145869
-6.49226e-05
0.00147219
-7.03388e-05
0.0014839
-6.24241e-05
0.00149619
-6.76582e-05
-5.90077e-05
0.00105644
-0.000258438
0.00109115
-0.000249036
0.00112384
-0.000236279
0.00115482
-0.000222837
0.00118397
-0.000206426
0.00121169
-0.000191003
0.00123771
-0.000173182
0.00126256
-0.000158324
0.00128584
-0.000141629
0.00130816
-0.000129608
0.00132897
-0.000115797
0.00134906
-0.000108249
0.00136763
-9.76915e-05
0.00138573
-9.50024e-05
0.00140229
-8.71528e-05
0.0014186
-8.83622e-05
0.00143331
-8.16149e-05
0.00144808
-8.57775e-05
0.00146113
-7.79701e-05
0.00147453
-8.37379e-05
0.00148617
-7.40642e-05
0.00149837
-7.98622e-05
-6.96438e-05
0.00106448
-0.000294597
0.0010987
-0.000283251
0.00113091
-0.000268492
0.00116145
-0.00025337
0.00119016
-0.000235145
0.00121748
-0.00021832
0.00124313
-0.000198835
0.00126764
-0.00018283
0.0012906
-0.000164592
0.00131264
-0.000151642
0.00133319
-0.000136354
0.00135305
-0.000128109
0.00137142
-0.000116056
0.00138933
-0.000112916
0.00140572
-0.000103542
0.00142188
-0.000104519
0.00143645
-9.61912e-05
0.00145109
-0.000100411
0.00146402
-9.09055e-05
0.00147731
-9.7023e-05
0.00148886
-8.56142e-05
0.00150097
-9.19713e-05
-8.02117e-05
0.00107366
-0.000330188
0.00110732
-0.000316912
0.001139
-0.000300174
0.00116903
-0.000283394
0.00119727
-0.000263384
0.00122413
-0.000245185
0.00124937
-0.000224071
0.00127349
-0.000206948
0.0012961
-0.000187203
0.00131781
-0.000173352
0.00133807
-0.00015662
0.00135767
-0.000147703
0.0013758
-0.000134185
0.00139349
-0.000130611
0.00140969
-0.00011974
0.00142566
-0.000120493
0.00144008
-0.00011061
0.00145456
-0.000114891
0.00146737
-0.000103712
0.00148052
-0.000110178
0.00149197
-9.70619e-05
0.00150397
-0.000103973
-9.07031e-05
0.0010839
-0.00036515
0.00111695
-0.000349965
0.00114805
-0.000331272
0.00117752
-0.000312859
0.00120523
-0.000291095
0.0012316
-0.000271554
0.00125637
-0.000248846
0.00128006
-0.000230639
0.00130228
-0.000209424
0.00132363
-0.000194703
0.00134358
-0.000176563
0.00136287
-0.000166999
0.00138074
-0.000152049
0.00139818
-0.000148059
0.00141417
-0.00013572
0.00142993
-0.000136261
0.00144417
-0.00012485
0.00145848
-0.000129198
0.00147114
-0.000116375
0.00148415
-0.000123187
0.00149549
-0.000108396
0.00150737
-0.000115856
-0.000101111
0.00109513
-0.000399432
0.00112752
-0.000382357
0.00115799
-0.000361738
0.00118685
-0.00034172
0.00121399
-0.000318237
0.00123982
-0.000297385
0.0012641
-0.000273123
0.00128732
-0.000253865
0.00130912
-0.000231221
0.00133008
-0.000215661
0.00134967
-0.000196153
0.00136864
-0.000185969
0.00138621
-0.000169622
0.00140339
-0.000165236
0.00141913
-0.000151463
0.00143467
-0.000151804
0.00144872
-0.000138896
0.00146283
-0.000143316
0.00147534
-0.000128879
0.00148819
-0.000136038
0.0014994
-0.000119607
0.00151115
-0.000127609
-0.000111428
0.00110726
-0.000432986
0.00113894
-0.000414047
0.00116874
-0.00039153
0.00119696
-0.000369938
0.00122349
-0.000344772
0.00124875
-0.000322643
0.00127249
-0.000296868
0.00129522
-0.000276594
0.00131656
-0.000252563
0.0013371
-0.000236197
0.00135631
-0.000215362
0.00137493
-0.000204586
0.00139218
-0.000186881
0.00140907
-0.00018212
0.00142455
-0.000166947
0.00143985
-0.000167101
0.00145368
-0.00015273
0.0014676
-0.000157228
0.00147993
-0.000141214
0.00149261
-0.000148718
0.00150369
-0.000130686
0.00151531
-0.000139225
-0.000121651
0.00112019
-0.000465774
0.00115114
-0.000444995
0.00118023
-0.000420615
0.00120777
-0.000397479
0.00123366
-0.000370669
0.00125832
-0.000347298
0.0012815
-0.000320052
0.00130371
-0.000298798
0.00132457
-0.000273424
0.00134466
-0.000256287
0.00136346
-0.000234167
0.00138171
-0.000222828
0.00139863
-0.000203804
0.0014152
-0.00019869
0.00143041
-0.000182156
0.00144544
-0.000182138
0.00145905
-0.000166339
0.00147275
-0.000170924
0.0014849
-0.00015337
0.0014974
-0.000161218
0.00150835
-0.000141627
0.00151982
-0.000150697
-0.000131775
0.00113385
-0.000497761
0.00116403
-0.000475172
0.00119237
-0.000448963
0.00121921
-0.000424316
0.00124444
-0.000395902
0.00126847
-0.000371324
0.00129107
-0.000342652
0.00131273
-0.000320454
0.00133308
-0.000293784
0.00135271
-0.000275908
0.00137109
-0.000252547
0.00138893
-0.000240676
0.00140551
-0.000220375
0.00142175
-0.00021493
0.00143667
-0.000197075
0.00145143
-0.0001969
0.0014648
-0.000179712
0.00147827
-0.000184391
0.00149024
-0.000165338
0.00150255
-0.00017353
0.00151335
-0.000152425
0.00152467
-0.000162019
-0.000141798
0.00114812
-0.000528922
0.0011775
-0.000504553
0.00120509
-0.000476551
0.0012312
-0.000450428
0.00125575
-0.00042045
0.00127913
-0.000394704
0.00130113
-0.000364649
0.00132222
-0.000341544
0.00134206
-0.000313623
0.00136119
-0.000295045
0.00137913
-0.000270489
0.00139657
-0.000258114
0.00141278
-0.00023658
0.00142868
-0.000230827
0.00144329
-0.000211694
0.00145777
-0.000211376
0.0014709
-0.00019284
0.00148413
-0.000197621
0.0014959
-0.000177112
0.00150802
-0.000185648
0.00151867
-0.000163076
0.00152984
-0.000173188
-0.000151719
0.00116291
-0.000559239
0.00119148
-0.000533122
0.00121829
-0.000503365
0.00124366
-0.0004758
0.00126751
-0.000444301
0.00129023
-0.000417421
0.00131161
-0.000386029
0.00133212
-0.000362055
0.00135143
-0.00033293
0.00137007
-0.000313684
0.00138756
-0.000287978
0.00140458
-0.000275133
0.00142041
-0.000252408
0.00143595
-0.000246372
0.00145026
-0.000226004
0.00146444
-0.000225559
0.00147732
-0.000205718
0.00149031
-0.000210609
0.00150189
-0.000188689
0.00151381
-0.000197569
0.00152431
-0.00017358
0.00153533
-0.000184202
-0.00016154
0.00117811
-0.0005887
0.00120586
-0.000560868
0.00123189
-0.000529395
0.00125651
-0.000500423
0.00127966
-0.000467444
0.0013017
-0.00043947
0.00132246
-0.000406786
0.00134238
-0.000381978
0.00136115
-0.000351697
0.00137928
-0.000331817
0.00139631
-0.000305009
0.0014129
-0.000291722
0.00142835
-0.000267854
0.00144353
-0.000261557
0.00145753
-0.000239999
0.00147141
-0.000239444
0.00148404
-0.000218341
0.00149678
-0.000223352
0.00150816
-0.000200068
0.00151988
-0.00020929
0.00153024
-0.000183937
0.0015411
-0.000195062
-0.000171262
0.00119363
-0.0006173
0.00122055
-0.000587786
0.00124579
-0.000554637
0.00126966
-0.000524295
0.0012921
-0.000489879
0.00131347
-0.000460845
0.0013336
-0.000426915
0.00135294
-0.00040131
0.00137116
-0.00036992
0.00138878
-0.00034944
0.00140535
-0.000321577
0.00142151
-0.000307879
0.00143657
-0.000282912
0.00145139
-0.000276378
0.00146507
-0.000253677
0.00147865
-0.000253027
0.00149102
-0.000230709
0.00150351
-0.000235848
0.00151469
-0.000211249
0.00152622
-0.000220813
0.00153643
-0.00019415
0.00154714
-0.000205771
-0.000180891
0.00120936
-0.000645039
0.00123545
-0.00061388
0.00125991
-0.000579095
0.00128303
-0.000547418
0.00130476
-0.000511607
0.00132547
-0.000481551
0.00134497
-0.000446419
0.00136371
-0.000420053
0.0013814
-0.0003876
0.00139851
-0.000366555
0.00141461
-0.000337682
0.00143034
-0.000323604
0.00144501
-0.000297585
0.00145947
-0.000290837
0.00147283
-0.000267039
0.00148612
-0.000266311
0.00149823
-0.000242824
0.00151048
-0.0002481
0.00152147
-0.000222236
0.0015328
-0.000232142
0.00154287
-0.000204222
0.00155343
-0.000216331
-0.000190431
0.0012252
-0.000671926
0.00125048
-0.000639157
0.00127416
-0.000602776
0.00129654
-0.0005698
0.00131757
-0.000532637
0.00133761
-0.000501594
0.0013565
-0.000465305
0.00137466
-0.000438213
0.0013918
-0.000404743
0.00140841
-0.000383164
0.00142406
-0.000353329
0.00143935
-0.0003389
0.00145364
-0.000311875
0.00146774
-0.000304936
0.00148079
-0.00028009
0.00149378
-0.000279298
0.00150565
-0.00025469
0.00151766
-0.000260112
0.00152846
-0.000233035
0.0015396
-0.00024328
0.00154953
-0.000214161
0.00155995
-0.00022675
-0.000199891
0.00124105
-0.000697973
0.00126553
-0.00066363
0.00128845
-0.000625695
0.0013101
-0.000591456
0.00133045
-0.000552983
0.00134984
-0.000520987
0.00136812
-0.000483585
0.00138571
-0.000455799
0.00140232
-0.000421359
0.00141844
-0.000399278
0.00143363
-0.000368525
0.00144851
-0.000353775
0.00146242
-0.00032579
0.00147617
-0.000318681
0.00148891
-0.000292835
0.00150161
-0.000291995
0.00151323
-0.000266314
0.00152501
-0.00027189
0.00153563
-0.000243652
0.00154659
-0.000254237
0.0015564
-0.000223976
0.00156669
-0.000237037
-0.000209279
0.00125683
-0.000723198
0.00128051
-0.000687319
0.00130269
-0.00064787
0.00132364
-0.000612404
0.00134332
-0.000572661
0.00136208
-0.000539748
0.00137977
-0.000501275
0.00139679
-0.000472827
0.0014129
-0.000437461
0.00142853
-0.000414908
0.00144328
-0.000383283
0.00145775
-0.000368238
0.0014713
-0.00033934
0.0014847
-0.000332083
0.00149715
-0.000305284
0.00150957
-0.000304412
0.00152096
-0.000277706
0.00153251
-0.000283445
0.00154296
-0.000254099
0.00155374
-0.000265021
0.00156344
-0.000233677
0.00157361
-0.000247201
-0.000218607
0.00127243
-0.000747624
0.00129535
-0.000710246
0.00131681
-0.000669325
0.00133707
-0.000632666
0.0013561
-0.000591695
0.00137425
-0.000557896
0.00139137
-0.000518395
0.00140786
-0.000489316
0.00142347
-0.000453067
0.00143863
-0.000430071
0.00145297
-0.000397618
0.00146703
-0.000382306
0.00148023
-0.000352538
0.0014933
-0.000345155
0.00150547
-0.000317451
0.00151762
-0.000316561
0.00152879
-0.000288879
0.00154013
-0.000294788
0.00155042
-0.000264387
0.00156105
-0.000275645
0.00157065
-0.000243276
0.0015807
-0.000257256
-0.000227886
0.00128777
-0.000771279
0.00130996
-0.00073244
0.00133072
-0.000690087
0.00135033
-0.00065227
0.00136874
-0.00061011
0.0013863
-0.000575458
0.00140288
-0.000534968
0.00141885
-0.000505288
0.00143398
-0.000468199
0.0014487
-0.000444787
0.00146263
-0.000411549
0.00147632
-0.000395994
0.00148918
-0.000365402
0.00150194
-0.000357911
0.00151384
-0.000329351
0.00152573
-0.000328456
0.0015367
-0.000299847
0.00154784
-0.000305934
0.00155799
-0.000274531
0.00156847
-0.000286122
0.00157798
-0.000252787
0.00158794
-0.000267214
-0.000237132
0.00130277
-0.000794193
0.00132426
-0.00075393
0.00134436
-0.000710187
0.00136334
-0.000671246
0.00138116
-0.000627936
0.00139817
-0.000592462
0.00141422
-0.000551022
0.0014297
-0.000520769
0.00144438
-0.00048288
0.00145868
-0.000459079
0.00147222
-0.000425096
0.00148555
-0.000409324
0.0014981
-0.000377951
0.00151056
-0.00037037
0.00152221
-0.000341001
0.00153387
-0.000340115
0.00154465
-0.000310626
0.00155562
-0.000316899
0.00156563
-0.000284548
0.00157598
-0.000296471
0.00158542
-0.000262227
0.0015953
-0.000277093
-0.000246359
0.00131735
-0.0008164
0.00133818
-0.000774752
0.00135765
-0.00072966
0.00137603
-0.000689629
0.0013933
-0.000645206
0.00140978
-0.000608939
0.00142535
-0.000566589
0.00144036
-0.000535787
0.00145462
-0.000497139
0.00146852
-0.000472973
0.00148171
-0.000438286
0.0014947
-0.000422318
0.00150696
-0.000390207
0.00151914
-0.000382554
0.00153056
-0.000352422
0.001542
-0.000351558
0.00155262
-0.000321237
0.00156342
-0.000327701
0.00157333
-0.000294456
0.00158356
-0.000306707
0.00159295
-0.000271613
0.00160277
-0.000286911
-0.000255586
0.00133145
-0.000837938
0.00135164
-0.000794943
0.00137052
-0.000748542
0.00138835
-0.000707453
0.0014051
-0.000661956
0.00142108
-0.000624925
0.0014362
-0.0005817
0.00145078
-0.000550376
0.00146465
-0.000511006
0.00147817
-0.000486497
0.00149103
-0.000451144
0.00150372
-0.000435003
0.0015157
-0.000402195
0.00152764
-0.000394486
0.00153885
-0.000363637
0.0015501
-0.000362806
0.00156056
-0.000331701
0.00157122
-0.000338362
0.00158104
-0.000304276
0.00159119
-0.000316852
0.00160054
-0.000280966
0.00161032
-0.000296686
-0.000264829
0.00134499
-0.000858845
0.00136459
-0.000814542
0.00138292
-0.000766872
0.00140023
-0.00072476
0.0014165
-0.000678223
0.00143203
-0.000640456
0.00144672
-0.000596391
0.00146091
-0.000564568
0.00147442
-0.000524512
0.0014876
-0.000499682
0.00150016
-0.000463701
0.00151256
-0.000447407
0.00152431
-0.000413942
0.00153602
-0.000406191
0.00154705
-0.000374671
0.00155813
-0.000373883
0.00156847
-0.00034204
0.00157901
-0.000348905
0.00158876
-0.000314029
0.00159884
-0.000326927
0.00160818
-0.000290305
0.00161793
-0.000306441
-0.000274111
0.00135792
-0.000879163
0.00137697
-0.000833591
0.00139479
-0.000784692
0.00141162
-0.000741587
0.00142744
-0.000694048
0.00144256
-0.000655571
0.00145687
-0.000610701
0.0014707
-0.0005784
0.00148388
-0.000537693
0.00149676
-0.000512562
0.00150905
-0.000475987
0.0015212
-0.000459559
0.00153274
-0.000425476
0.00154424
-0.000417698
0.00155512
-0.000385549
0.00156605
-0.000384815
0.00157629
-0.00035228
0.00158674
-0.000359352
0.00159645
-0.000323739
0.00160648
-0.000336956
0.00161583
-0.000299654
0.00162559
-0.000316197
-0.000283451
0.00137019
-0.000898934
0.00138873
-0.000852132
0.00140608
-0.000802044
0.00142247
-0.000757979
0.0014379
-0.000709472
0.00145263
-0.000670311
0.0014666
-0.000624667
0.00148011
-0.000591909
0.001493
-0.000550585
0.00150561
-0.000525172
0.00151766
-0.000488037
0.00152959
-0.000471492
0.00154095
-0.000436829
0.00155228
-0.000429035
0.00156304
-0.000396302
0.00157385
-0.00039563
0.00158402
-0.000362447
0.0015944
-0.000369732
0.00160409
-0.000333432
0.0016141
-0.000346963
0.00162348
-0.000309036
0.00163326
-0.00032598
-0.000292872
0.00138174
-0.000918202
0.00139981
-0.000870209
0.00141674
-0.000818972
0.00143274
-0.000773979
0.0014478
-0.000724537
0.00146221
-0.000684716
0.00147587
-0.000638332
0.0014891
-0.000605136
0.00150174
-0.000563226
0.00151412
-0.000537547
0.00152596
-0.000499885
0.00153771
-0.000483239
0.00154891
-0.000448031
0.00156011
-0.000440234
0.00157077
-0.000406957
0.00158149
-0.000406357
0.00159162
-0.000372569
0.00160195
-0.00038007
0.00161166
-0.000343134
0.00162167
-0.000356975
0.00163111
-0.000318476
0.00164094
-0.000335814
-0.000302397
0.00139253
-0.000937011
0.00141019
-0.000887867
0.00142673
-0.00083552
0.00144238
-0.000789629
0.00145713
-0.000739286
0.00147125
-0.000698829
0.00148465
-0.000651735
0.00149763
-0.000618119
0.00151006
-0.000575654
0.00152224
-0.000549726
0.00153392
-0.000511566
0.00154552
-0.000494835
0.00155661
-0.000459118
0.0015677
-0.000451326
0.00157829
-0.000417547
0.00158896
-0.000417025
0.00159906
-0.000382676
0.00160939
-0.000390396
0.00161913
-0.000352873
0.00162917
-0.000367019
0.00163869
-0.000328001
0.00164861
-0.000345727
-0.000312052
0.00140253
-0.000955406
0.00141981
-0.00090515
0.00143602
-0.000851732
0.00145137
-0.000804976
0.00146585
-0.000753763
0.00147971
-0.000712695
0.0014929
-0.000664919
0.00150568
-0.0006309
0.00151793
-0.00058791
0.00152996
-0.000561747
0.00154151
-0.000523119
0.00155299
-0.000506316
0.00156399
-0.000470123
0.00157501
-0.000462346
0.00158557
-0.000428103
0.00159621
-0.000427667
0.00160633
-0.000392797
0.00161668
-0.000400738
0.00162648
-0.000362677
0.00163658
-0.000377123
0.00164622
-0.000337636
0.00165624
-0.000355745
-0.00032186
0.00141171
-0.000973432
0.00142866
-0.000922104
0.00144458
-0.000867653
0.00145967
-0.000820062
0.00147392
-0.000768013
0.00148758
-0.000726355
0.00150059
-0.000677927
0.00151321
-0.000643521
0.00152533
-0.000600033
0.00153723
-0.000573648
0.00154869
-0.00053458
0.00156009
-0.000517719
0.00157105
-0.000481081
0.00158203
-0.000473327
0.00159259
-0.000438658
0.00160324
-0.000438314
0.0016134
-0.000402964
0.00162379
-0.000411129
0.00163369
-0.000372575
0.00164389
-0.000387317
0.00165366
-0.000347411
0.00166381
-0.000365896
-0.000331849
0.00142004
-0.000991133
0.00143671
-0.000938773
0.00145238
-0.000883329
0.00146725
-0.000834933
0.00148132
-0.000782078
0.00149482
-0.000739853
0.00150769
-0.0006908
0.00152019
-0.000656023
0.00153222
-0.000612063
0.00154404
-0.000585471
0.00155545
-0.000545988
0.00156681
-0.00052908
0.00157776
-0.000492029
0.00158874
-0.000484305
0.00159933
-0.000449247
0.00161001
-0.000449001
0.00162026
-0.000413208
0.00163073
-0.000421599
0.00164075
-0.000382598
0.00165107
-0.000397631
0.00166101
-0.000357354
0.00167132
-0.000376211
-0.000342043
0.0014275
-0.00100855
0.00144393
-0.0009552
0.0014594
-0.000898802
0.0014741
-0.000849632
0.00148803
-0.000796003
0.00150141
-0.000753232
0.00151419
-0.000703582
0.00152661
-0.000668448
0.00153859
-0.000624042
0.00155037
-0.000597254
0.00156177
-0.000557381
0.00157312
-0.000540436
0.0015841
-0.000503003
0.00159511
-0.000495314
0.00160576
-0.000459902
0.00161652
-0.000459759
0.00162687
-0.000423562
0.00163746
-0.000432179
0.00164763
-0.000392777
0.0016581
-0.000408096
0.00166824
-0.000367493
0.00167875
-0.000386719
-0.000352471
0.00143408
-0.00102574
0.00145031
-0.000971431
0.00146563
-0.000914116
0.0014802
-0.000864203
0.00149402
-0.00080983
0.00150733
-0.000766534
0.00152006
-0.000716314
0.00153245
-0.000680836
0.00154442
-0.00063601
0.0015562
-0.000609036
0.00156761
-0.000568798
0.00157901
-0.000551827
0.00159004
-0.000514039
0.00160112
-0.000506391
0.00161187
-0.00047066
0.00162274
-0.000470624
0.00163324
-0.000434059
0.00164396
-0.000442904
0.00165433
-0.000403143
0.00166497
-0.000418742
0.00167534
-0.000377859
0.00168607
-0.00039745
-0.00036316
0.00143977
-0.00104273
0.00145585
-0.000987508
0.00147105
-0.000929314
0.00148553
-0.000878687
0.0014993
-0.000823601
0.00151257
-0.000779803
0.00152529
-0.000729037
0.00153769
-0.000693229
0.00154968
-0.000648006
0.0015615
-0.000620858
0.00157298
-0.000580276
0.00158444
-0.000563288
0.00159558
-0.000525173
0.00160676
-0.000517571
0.00161765
-0.000481553
0.00162866
-0.000481629
0.00163933
-0.000444731
0.00165023
-0.000453804
0.00166081
-0.000413727
0.00167167
-0.000429602
0.00168229
-0.000388481
0.00169328
-0.000408434
-0.000374137
0.00144456
-0.00105956
0.00146052
-0.00100347
0.00147565
-0.000944438
0.00149009
-0.000893128
0.00150385
-0.000837358
0.00151712
-0.000793077
0.00152987
-0.000741791
0.00154231
-0.000705667
0.00155437
-0.000660069
0.00156627
-0.000632758
0.00157785
-0.000591854
0.00158942
-0.000574858
0.00160069
-0.000536442
0.00161201
-0.00052889
0.00162307
-0.000492617
0.00163425
-0.000492809
0.00164513
-0.000455612
0.00165624
-0.000464913
0.00166708
-0.000424561
0.00167818
-0.000440706
0.00168909
-0.00039939
0.00170036
-0.000419702
-0.000385429
0.00144845
-0.00107629
0.00146434
-0.00101936
0.00147943
-0.000959527
0.00149387
-0.000907565
0.00150765
-0.00085114
0.00152097
-0.000806398
0.0015338
-0.000754617
0.00154632
-0.000718189
0.00155849
-0.000672239
0.0015705
-0.000644774
0.00158222
-0.000603569
0.00159393
-0.000586573
0.00160537
-0.000547881
0.00161687
-0.000540383
0.00162813
-0.000503886
0.00163952
-0.000504198
0.00165064
-0.000466734
0.001662
-0.000476264
0.00167311
-0.000435677
0.00168449
-0.000452086
0.00169572
-0.000410616
0.0017073
-0.000431284
-0.000397063
0.00145142
-0.00109295
0.00146728
-0.00103523
0.00148238
-0.000974624
0.00149685
-0.000922039
0.0015107
-0.000864989
0.00152411
-0.000819805
0.00153704
-0.000767554
0.00154969
-0.000730833
0.001562
-0.000684554
0.00157417
-0.000656944
0.00158606
-0.000615459
0.00159796
-0.000598468
0.00160961
-0.00055953
0.00162131
-0.000552083
0.00163282
-0.000515398
0.00164445
-0.000515825
0.00165585
-0.000478135
0.00166747
-0.000487883
0.0016789
-0.000447113
0.00169058
-0.000463765
0.00170217
-0.000422202
0.00171408
-0.000443195
-0.000409077
0.00521156
-0.00112116
0.00523728
-0.00106094
0.00526064
-0.000997988
0.00528204
-0.000943439
0.00530156
-0.000884505
0.00531962
-0.000837865
0.00533629
-0.000784228
0.00535187
-0.000746408
0.00536649
-0.000699178
0.00538035
-0.000670801
0.00539339
-0.000628501
0.00540598
-0.000611064
0.00541789
-0.000571437
0.00542929
-0.000563486
0.00544028
-0.000526381
0.00545075
-0.000526294
0.00546081
-0.000488196
0.0054704
-0.000497481
0.00547999
-0.000456695
0.0054888
-0.000472583
0.00549825
-0.000431649
0.00550671
-0.000451654
-0.000418746
0.00547758
-0.00114468
0.00549895
-0.00108231
0.0055183
-0.00101734
0.00553593
-0.000961071
0.00555193
-0.000900501
0.0055666
-0.000852539
0.00558009
-0.000797715
0.0055925
-0.000758817
0.00560412
-0.000710803
0.00561494
-0.000681623
0.00562509
-0.000638647
0.0056347
-0.000620676
0.00564383
-0.000580565
0.00565227
-0.000571928
0.00566058
-0.000534687
0.00566814
-0.000533862
0.00567565
-0.000495699
0.00568237
-0.000504206
0.00568957
-0.00046389
0.00569555
-0.000478565
0.00570274
-0.000438843
0.00570844
-0.000457352
-0.000426156
0.00574008
-0.00116345
0.00575712
-0.00109935
0.00577252
-0.00103274
0.00578651
-0.000975063
0.00579916
-0.000913146
0.00581067
-0.000864047
0.0058212
-0.000808252
0.00583074
-0.000768351
0.00583964
-0.000719705
0.00584776
-0.000689744
0.00585531
-0.000646195
0.00586229
-0.000627663
0.00586893
-0.000587201
0.00587479
-0.000577786
0.00588067
-0.000540568
0.00588572
-0.000538917
0.00589088
-0.000500859
0.00589514
-0.000508461
0.0059001
-0.000468847
0.00590368
-0.00048215
0.00590868
-0.000443841
0.00591209
-0.000460765
-0.000431388
0.00599747
-0.0011776
0.00601031
-0.00111219
0.00602193
-0.00104436
0.00603246
-0.000985598
0.00604196
-0.000922647
0.00605054
-0.00087262
0.00605838
-0.000816093
0.00606532
-0.000775289
0.00607179
-0.000726176
0.00607752
-0.000695477
0.00608279
-0.000651463
0.00608748
-0.000632354
0.00609195
-0.00059167
0.00609556
-0.000581396
0.00609934
-0.000544347
0.00610221
-0.000541792
0.00610534
-0.000503986
0.00610745
-0.000510569
0.00611046
-0.000471854
0.00611196
-0.000483652
0.00611503
-0.000446911
0.00611645
-0.00046219
-0.000434679
0.00624837
-0.00118738
0.00625727
-0.00112109
0.00626535
-0.00105244
0.00627268
-0.000992928
0.00627929
-0.000929261
0.0062852
-0.000878527
0.00629062
-0.000821512
0.00629525
-0.000779923
0.00629958
-0.000730511
0.00630324
-0.000699134
0.00630654
-0.000654763
0.00630926
-0.000635073
0.00631189
-0.000594295
0.00631358
-0.000583092
0.00631558
-0.000546341
0.0063166
-0.00054282
0.00631801
-0.000505394
0.0063183
-0.000510858
0.00631965
-0.000473207
0.0063194
-0.000483396
0.00632082
-0.000448328
0.00632056
-0.000461936
-0.000436285
0.00649168
-0.00119317
0.00649701
-0.00112641
0.00650189
-0.00105732
0.00650634
-0.000997375
0.00651037
-0.000933298
0.00651391
-0.000882068
0.00651721
-0.000824806
0.00651984
-0.000782552
0.00652233
-0.000733004
0.00652422
-0.000701019
0.00652585
-0.0006564
0.00652691
-0.000636133
0.006528
-0.000595383
0.00652811
-0.000583198
0.00652862
-0.000546857
0.00652813
-0.000542323
0.00652812
-0.000505385
0.00652691
-0.000509649
0.0065269
-0.000473195
0.0065252
-0.000481704
0.00652524
-0.000448365
0.00652362
-0.000460313
-0.000436471
0.00672676
-0.00119548
0.00672895
-0.0011286
0.00673104
-0.00105941
0.00673297
-0.000999311
0.00673478
-0.000935101
0.00673628
-0.00088357
0.00673776
-0.000826281
0.00673869
-0.000783482
0.00673963
-0.000733951
0.00674004
-0.000701429
0.00674031
-0.000656668
0.00674001
-0.000635831
0.00673985
-0.000595223
0.00673867
-0.000582015
0.00673799
-0.000546182
0.00673627
-0.000540604
0.00673513
-0.000504242
0.00673273
-0.000507248
0.00673162
-0.000472088
0.00672879
-0.000478878
0.00672771
-0.000447285
0.00672502
-0.000457615
-0.000435492
0.00695344
-0.0011948
0.00695296
-0.00112811
0.00695268
-0.00105913
0.0069525
-0.000999124
0.00695242
-0.000935029
0.00695222
-0.000883368
0.00695219
-0.000826248
0.00695172
-0.000783014
0.0069514
-0.000733634
0.00695062
-0.000700645
0.00694979
-0.00065584
0.0069484
-0.000634443
0.00694726
-0.000594079
0.00694507
-0.000579824
0.00694346
-0.000544575
0.00694079
-0.000537936
0.00693877
-0.000502221
0.00693546
-0.000503933
0.0069335
-0.00047013
0.00692982
-0.000475197
0.00692786
-0.000445328
0.00692435
-0.000454111
-0.00043359
0.00717204
-0.00119165
0.00716936
-0.00112543
0.00716713
-0.0010569
0.0071652
-0.000997192
0.00716359
-0.000933424
0.007162
-0.000881778
0.00716075
-0.000824997
0.00715917
-0.000781426
0.00715785
-0.000732314
0.00715612
-0.000698923
0.00715444
-0.000654161
0.00715222
-0.000632218
0.00715032
-0.000592184
0.00714737
-0.00057687
0.00714506
-0.000542267
0.00714169
-0.000534562
0.00713901
-0.000499545
0.00713503
-0.000499948
0.00713243
-0.000467533
0.00712814
-0.000470905
0.00712552
-0.000442705
0.00712144
-0.000450035
-0.00043098
0.00738332
-0.00118651
0.00737885
-0.00112096
0.00737505
-0.00105309
0.00737172
-0.000993859
0.00736889
-0.000930594
0.0073662
-0.000879087
0.00736398
-0.000822785
0.00736152
-0.000778967
0.00735943
-0.000730221
0.00735699
-0.000696482
0.00735467
-0.000651844
0.00735182
-0.000629369
0.00734937
-0.000589734
0.00734587
-0.000573366
0.00734305
-0.000539452
0.00733918
-0.000530688
0.00733604
-0.000496403
0.00733159
-0.000495504
0.00732854
-0.000464478
0.00732384
-0.00046621
0.00732073
-0.000439598
0.00731629
-0.000445588
-0.000427849
0.00758837
-0.00117977
0.00758248
-0.00111507
0.00757742
-0.00104804
0.00757297
-0.000989409
0.00756917
-0.000926797
0.00756562
-0.000875531
0.00756266
-0.000819823
0.00755953
-0.000775838
0.00755685
-0.000727541
0.00755387
-0.000693504
0.00755108
-0.00064906
0.00754779
-0.00062607
0.00754494
-0.000586889
0.00754106
-0.000569482
0.00753789
-0.000536285
0.00753368
-0.000526478
0.00753022
-0.000492944
0.00752549
-0.000490771
0.00752212
-0.000461106
0.00751718
-0.000461276
0.00751373
-0.000436151
0.00750907
-0.000440928
-0.000424349
0.0077885
-0.00117176
0.00778147
-0.00110805
0.00777542
-0.00104198
0.00777008
-0.00098407
0.00776551
-0.000922231
0.00776127
-0.000871294
0.00775772
-0.000816271
0.00775408
-0.000772193
0.00775095
-0.000724413
0.00774757
-0.000690122
0.00774444
-0.000645937
0.00774083
-0.000622454
0.0077377
-0.000583764
0.00773357
-0.000565349
0.00773017
-0.000532885
0.00772575
-0.000522058
0.00772209
-0.00048928
0.00771719
-0.00048588
0.00771361
-0.000457524
0.00770857
-0.000456229
0.00770489
-0.000432477
0.00770014
-0.000436175
-0.000420602
0.00798512
-0.00116272
0.00797717
-0.0011001
0.0079703
-0.00103512
0.00796424
-0.000978004
0.00795904
-0.000917037
0.00795425
-0.000866503
0.00795022
-0.00081224
0.00794616
-0.000768136
0.00794268
-0.000720933
0.00793899
-0.000686426
0.00793561
-0.00064256
0.00793177
-0.000618612
0.00792844
-0.000580437
0.00792415
-0.000561058
0.0079206
-0.000529332
0.00791606
-0.000517517
0.00791226
-0.000485487
0.00790731
-0.000480924
0.00790359
-0.000453807
0.00789852
-0.000451158
0.0078947
-0.000428656
0.00788993
-0.000431411
-0.000416693
0.00817963
-0.00115283
0.0081709
-0.00109137
0.00816335
-0.00102756
0.00815666
-0.000971319
0.00815093
-0.000911305
0.00814567
-0.00086124
0.00814122
-0.000807793
0.00813682
-0.000763731
0.00813304
-0.000717155
0.00812908
-0.000682468
0.0081255
-0.000638976
0.00812148
-0.000614596
0.00811799
-0.000576947
0.0081136
-0.000556663
0.00810994
-0.000525671
0.00810533
-0.000512907
0.00810145
-0.000481609
0.00809649
-0.000475963
0.00809268
-0.000449997
0.00808764
-0.000446116
0.00808372
-0.000424739
0.00807899
-0.000426685
-0.000412682
0.00837331
-0.00114219
0.00836391
-0.00108196
0.00835574
-0.0010194
0.0083485
-0.000964079
0.00834228
-0.000905083
0.00833659