/*--------------------------------*- C++ -*----------------------------------*\
  =========                 |
  \\      /  F ield         | OpenFOAM: The Open Source CFD Toolbox
   \\    /   O peration     | Website:  https://openfoam.org
    \\  /    A nd           | Version:  7
     \\/     M anipulation  |
\*---------------------------------------------------------------------------*/
FoamFile
{
    version     2.0;
    format      ascii;
    class       volScalarField;
    location    "280";
    object      p;
}
// * * * * * * * * * * * * * * * * * * * * * * * * * * * * * * * * * * * * * //

dimensions      [0 2 -2 0 0 0 0];

internalField   nonuniform List<scalar> 
36600
(
-0.392091
-0.393966
-0.394992
-0.395821
-0.396549
-0.397229
-0.397927
-0.398682
-0.39952
-0.40045
-0.401475
-0.40259
-0.403787
-0.405055
-0.406382
-0.407753
-0.409156
-0.410586
-0.411942
-0.413265
-0.396503
-0.398341
-0.399367
-0.40022
-0.401
-0.401762
-0.402574
-0.403479
-0.404501
-0.405652
-0.406936
-0.408349
-0.409884
-0.411531
-0.413279
-0.415114
-0.417026
-0.419008
-0.420965
-0.422929
-0.401003
-0.402788
-0.403808
-0.40468
-0.405507
-0.406349
-0.407273
-0.408326
-0.409532
-0.410904
-0.412447
-0.414156
-0.416027
-0.418051
-0.420217
-0.422514
-0.424931
-0.427462
-0.430017
-0.432613
-0.405581
-0.407298
-0.408302
-0.409188
-0.410059
-0.410976
-0.412011
-0.413209
-0.414596
-0.416187
-0.417984
-0.419987
-0.42219
-0.424585
-0.427163
-0.429913
-0.432827
-0.435898
-0.439039
-0.44225
-0.410224
-0.411857
-0.412839
-0.413732
-0.414641
-0.415629
-0.416771
-0.41811
-0.419675
-0.421479
-0.423527
-0.425817
-0.428345
-0.431103
-0.434083
-0.437275
-0.44067
-0.444266
-0.447973
-0.451773
-0.414917
-0.416452
-0.417403
-0.418297
-0.419238
-0.420294
-0.421536
-0.423012
-0.424749
-0.426761
-0.429053
-0.431622
-0.434465
-0.437574
-0.440941
-0.444558
-0.448415
-0.452513
-0.456758
-0.461112
-0.419648
-0.42107
-0.421982
-0.42287
-0.423836
-0.424952
-0.42629
-0.427897
-0.429799
-0.432011
-0.434537
-0.437375
-0.44052
-0.443965
-0.447703
-0.451722
-0.456015
-0.460587
-0.465336
-0.470198
-0.424399
-0.425694
-0.426559
-0.427434
-0.42842
-0.42959
-0.431016
-0.432745
-0.434804
-0.437206
-0.439956
-0.44305
-0.446483
-0.450246
-0.454331
-0.458727
-0.463426
-0.468435
-0.473646
-0.478962
-0.429156
-0.430311
-0.431121
-0.431975
-0.432973
-0.434188
-0.435694
-0.437537
-0.439743
-0.442325
-0.445285
-0.448621
-0.452323
-0.456384
-0.460793
-0.465536
-0.470603
-0.47601
-0.481635
-0.487342
-0.433899
-0.434903
-0.43565
-0.436477
-0.437478
-0.438732
-0.440308
-0.442255
-0.444597
-0.447345
-0.450502
-0.454061
-0.458015
-0.46235
-0.467054
-0.472111
-0.477508
-0.483265
-0.489251
-0.495276
-0.438614
-0.439455
-0.440133
-0.440923
-0.44192
-0.443203
-0.444841
-0.446879
-0.449344
-0.452245
-0.455582
-0.459347
-0.46353
-0.468114
-0.473084
-0.478419
-0.484103
-0.490159
-0.496448
-0.502709
-0.443281
-0.443951
-0.444552
-0.4453
-0.446284
-0.447586
-0.449273
-0.451392
-0.453966
-0.457004
-0.460503
-0.464455
-0.468843
-0.47365
-0.478854
-0.484429
-0.490354
-0.496656
-0.503188
-0.509596
-0.447884
-0.448377
-0.448895
-0.449592
-0.450554
-0.451865
-0.453591
-0.455776
-0.458444
-0.461602
-0.465245
-0.469361
-0.473932
-0.478933
-0.484338
-0.490115
-0.496235
-0.502724
-0.50944
-0.515888
-0.452407
-0.452717
-0.453146
-0.453785
-0.454717
-0.456026
-0.457777
-0.460014
-0.46276
-0.46602
-0.469787
-0.474046
-0.478773
-0.48394
-0.489514
-0.495454
-0.501722
-0.508343
-0.515181
-0.52151
-0.456834
-0.456957
-0.457293
-0.457867
-0.458759
-0.460055
-0.461818
-0.464092
-0.466899
-0.470242
-0.474112
-0.47849
-0.483349
-0.488653
-0.494361
-0.500427
-0.506798
-0.513497
-0.520405
-0.526389
-0.46115
-0.461086
-0.461323
-0.461826
-0.462669
-0.46394
-0.465701
-0.467996
-0.470846
-0.474252
-0.478204
-0.482678
-0.487641
-0.493053
-0.498864
-0.505018
-0.511448
-0.518173
-0.525104
-0.531099
-0.465341
-0.46509
-0.465226
-0.465651
-0.466437
-0.46767
-0.469415
-0.471714
-0.474588
-0.478037
-0.482048
-0.486593
-0.491636
-0.497128
-0.50301
-0.509214
-0.515664
-0.522369
-0.52924
-0.535101
-0.469396
-0.468961
-0.468993
-0.469334
-0.470052
-0.471237
-0.472951
-0.475237
-0.478115
-0.481585
-0.485632
-0.490225
-0.495321
-0.500864
-0.506786
-0.513008
-0.519438
-0.526075
-0.532839
-0.538409
-0.473303
-0.472689
-0.472616
-0.472867
-0.47351
-0.474633
-0.476301
-0.478556
-0.481419
-0.484889
-0.488949
-0.493564
-0.498686
-0.504253
-0.510186
-0.516394
-0.522767
-0.52929
-0.535903
-0.541066
-0.477054
-0.476268
-0.476089
-0.476247
-0.476805
-0.477854
-0.47946
-0.481666
-0.484493
-0.487941
-0.491989
-0.496602
-0.501726
-0.507289
-0.513205
-0.519368
-0.525651
-0.532017
-0.538438
-0.543095
-0.480643
-0.479694
-0.479409
-0.479468
-0.479933
-0.480898
-0.482426
-0.484564
-0.487335
-0.490737
-0.494751
-0.499336
-0.504435
-0.509969
-0.515841
-0.521931
-0.528092
-0.534261
-0.540455
-0.544513
-0.484064
-0.482963
-0.482574
-0.482531
-0.482895
-0.483763
-0.485198
-0.48725
-0.489943
-0.493278
-0.497233
-0.501765
-0.506814
-0.512293
-0.518093
-0.524084
-0.530097
-0.536033
-0.54197
-0.545338
-0.487315
-0.486074
-0.485583
-0.485436
-0.485692
-0.48645
-0.487778
-0.489726
-0.49232
-0.495564
-0.499436
-0.503892
-0.508864
-0.514262
-0.519967
-0.525833
-0.531673
-0.537342
-0.543
-0.545589
-0.490397
-0.48903
-0.488439
-0.488186
-0.488327
-0.488965
-0.49017
-0.491995
-0.494471
-0.497602
-0.501367
-0.505721
-0.510593
-0.515885
-0.521469
-0.527186
-0.53283
-0.538201
-0.543564
-0.545284
-0.493311
-0.491833
-0.491147
-0.490785
-0.490806
-0.491313
-0.492381
-0.494067
-0.496404
-0.4994
-0.503035
-0.507262
-0.512009
-0.517171
-0.522611
-0.528154
-0.533579
-0.538624
-0.543681
-0.544443
-0.496063
-0.49449
-0.493712
-0.493241
-0.493135
-0.493503
-0.49442
-0.495949
-0.498129
-0.500969
-0.504451
-0.508529
-0.513127
-0.518135
-0.523406
-0.528753
-0.533938
-0.538625
-0.543369
-0.543088
-0.49866
-0.497007
-0.496142
-0.495562
-0.495325
-0.495544
-0.496298
-0.497656
-0.499659
-0.502323
-0.505631
-0.509538
-0.513964
-0.518795
-0.523874
-0.529001
-0.533924
-0.538224
-0.542649
-0.541242
-0.50111
-0.499394
-0.498448
-0.497759
-0.497387
-0.497449
-0.498029
-0.4992
-0.501011
-0.503481
-0.506595
-0.510309
-0.514542
-0.519173
-0.524038
-0.528921
-0.533561
-0.537443
-0.541542
-0.538931
-0.503427
-0.501664
-0.500641
-0.499843
-0.499334
-0.499232
-0.499628
-0.5006
-0.502204
-0.504462
-0.507364
-0.510867
-0.514886
-0.519297
-0.523925
-0.52854
-0.532874
-0.536306
-0.54007
-0.536188
-0.505623
-0.503828
-0.502734
-0.501829
-0.501179
-0.500908
-0.501111
-0.501874
-0.503257
-0.505289
-0.507963
-0.511236
-0.515024
-0.519195
-0.523565
-0.52789
-0.531892
-0.534844
-0.538255
-0.533049
-0.507715
-0.505903
-0.504742
-0.50373
-0.502939
-0.502494
-0.502498
-0.503042
-0.504194
-0.505987
-0.508419
-0.511448
-0.514987
-0.518899
-0.522992
-0.527002
-0.530647
-0.533089
-0.53612
-0.52956
-0.509721
-0.507904
-0.506681
-0.505564
-0.50463
-0.504008
-0.503808
-0.504126
-0.505038
-0.506583
-0.508761
-0.511533
-0.514808
-0.518445
-0.52224
-0.525913
-0.529172
-0.531077
-0.533684
-0.525772
-0.511661
-0.50985
-0.508568
-0.507347
-0.506269
-0.505469
-0.505061
-0.505149
-0.505814
-0.507103
-0.509019
-0.511522
-0.514521
-0.517868
-0.521344
-0.524658
-0.527499
-0.528847
-0.530966
-0.521744
-0.513555
-0.511758
-0.51042
-0.509098
-0.507876
-0.506897
-0.506278
-0.506133
-0.506549
-0.507575
-0.509222
-0.511448
-0.514159
-0.5172
-0.520341
-0.523272
-0.52566
-0.526441
-0.527986
-0.517542
-0.515427
-0.513649
-0.512257
-0.510833
-0.509469
-0.50831
-0.507482
-0.507103
-0.507267
-0.508029
-0.509401
-0.511343
-0.513756
-0.516477
-0.519263
-0.521789
-0.523688
-0.523901
-0.524765
-0.513258
-0.517299
-0.515543
-0.514098
-0.512573
-0.511068
-0.50973
-0.508693
-0.508081
-0.507993
-0.50849
-0.509585
-0.511236
-0.513342
-0.515729
-0.51814
-0.520239
-0.521607
-0.521268
-0.521323
-0.508992
-0.519195
-0.51746
-0.515962
-0.514336
-0.51269
-0.511176
-0.509933
-0.509091
-0.508754
-0.508985
-0.5098
-0.511156
-0.512945
-0.514983
-0.516999
-0.51865
-0.519445
-0.518575
-0.517626
-0.504711
-0.521138
-0.519421
-0.517867
-0.516141
-0.514355
-0.512668
-0.511222
-0.510154
-0.509571
-0.509539
-0.510073
-0.511128
-0.512589
-0.514263
-0.515864
-0.517045
-0.517239
-0.515883
-0.513582
-0.500083
-0.523153
-0.521446
-0.519833
-0.518005
-0.516081
-0.514224
-0.51258
-0.51129
-0.510465
-0.510171
-0.510424
-0.511173
-0.512294
-0.513586
-0.51475
-0.515444
-0.515043
-0.513303
-0.509294
-0.495333
-0.525262
-0.523554
-0.521878
-0.519947
-0.517886
-0.515861
-0.514025
-0.512519
-0.511455
-0.510903
-0.510872
-0.511307
-0.512075
-0.512964
-0.513667
-0.513852
-0.51288
-0.510886
-0.505433
-0.494152
-0.527486
-0.525764
-0.52402
-0.521983
-0.519785
-0.517597
-0.515572
-0.513855
-0.512559
-0.511748
-0.511431
-0.511543
-0.511941
-0.512404
-0.512617
-0.512261
-0.510714
-0.508417
-0.502524
-0.502063
-0.529847
-0.528093
-0.526273
-0.524128
-0.521794
-0.519445
-0.517237
-0.515314
-0.513788
-0.51272
-0.512111
-0.511888
-0.511897
-0.511905
-0.511592
-0.510652
-0.508499
-0.505741
-0.499461
-0.500475
-0.532361
-0.530557
-0.528654
-0.526396
-0.523925
-0.521418
-0.519031
-0.516906
-0.515153
-0.513827
-0.512919
-0.512347
-0.511943
-0.511463
-0.510585
-0.509011
-0.506193
-0.502779
-0.495918
-0.495976
-0.535046
-0.53317
-0.531175
-0.5288
-0.526191
-0.523527
-0.520964
-0.518641
-0.516661
-0.515073
-0.513858
-0.512918
-0.512074
-0.511071
-0.509584
-0.507322
-0.503778
-0.499558
-0.491987
-0.4904
-0.537915
-0.535946
-0.533847
-0.53135
-0.528602
-0.525782
-0.523045
-0.520525
-0.518318
-0.516462
-0.514925
-0.513597
-0.512283
-0.510719
-0.508578
-0.505578
-0.501248
-0.496124
-0.487768
-0.484312
-0.54098
-0.538893
-0.536682
-0.534055
-0.531165
-0.52819
-0.525279
-0.522562
-0.520124
-0.517991
-0.516117
-0.514376
-0.512559
-0.510394
-0.507557
-0.503771
-0.498609
-0.492528
-0.483355
-0.478076
-0.544251
-0.542022
-0.539686
-0.536924
-0.533887
-0.530755
-0.52767
-0.524753
-0.522078
-0.519657
-0.517427
-0.515245
-0.51289
-0.510084
-0.506509
-0.5019
-0.495872
-0.488815
-0.478828
-0.47189
-0.547733
-0.545339
-0.542867
-0.539961
-0.536774
-0.533482
-0.530221
-0.527099
-0.524178
-0.521454
-0.518845
-0.516192
-0.513263
-0.509776
-0.505425
-0.499962
-0.493051
-0.485027
-0.474253
-0.465856
-0.551433
-0.548848
-0.546229
-0.543172
-0.539829
-0.536373
-0.53293
-0.529598
-0.52642
-0.523374
-0.52036
-0.517203
-0.513662
-0.509457
-0.504297
-0.49796
-0.490159
-0.481196
-0.469677
-0.460023
-0.555352
-0.552554
-0.549776
-0.54656
-0.543054
-0.539429
-0.535799
-0.532246
-0.528797
-0.525407
-0.521959
-0.518263
-0.514072
-0.509113
-0.503118
-0.495894
-0.48721
-0.477348
-0.465133
-0.454409
-0.559492
-0.556459
-0.55351
-0.550126
-0.546452
-0.542651
-0.538826
-0.53504
-0.531301
-0.527543
-0.52363
-0.519358
-0.514479
-0.508733
-0.501881
-0.493767
-0.484215
-0.473502
-0.460644
-0.449012
-0.563851
-0.560563
-0.557432
-0.553872
-0.550021
-0.546037
-0.542007
-0.537974
-0.533924
-0.52977
-0.525357
-0.52047
-0.514866
-0.508305
-0.500581
-0.491581
-0.481186
-0.469671
-0.456222
-0.44382
-0.568427
-0.564864
-0.561542
-0.557798
-0.553763
-0.549587
-0.545338
-0.541041
-0.536657
-0.532075
-0.527124
-0.521584
-0.51522
-0.507818
-0.499214
-0.489339
-0.478128
-0.465864
-0.451873
-0.438817
-0.573218
-0.569362
-0.565839
-0.561903
-0.557675
-0.553297
-0.548816
-0.544235
-0.539487
-0.534443
-0.528915
-0.522682
-0.515526
-0.507263
-0.497776
-0.48704
-0.475047
-0.462086
-0.447599
-0.433982
-0.578216
-0.574052
-0.570321
-0.566184
-0.561755
-0.557163
-0.552435
-0.547545
-0.542405
-0.53686
-0.530713
-0.523749
-0.51577
-0.506631
-0.496262
-0.484688
-0.471947
-0.458336
-0.443396
-0.429296
-0.583418
-0.578932
-0.574983
-0.57064
-0.566001
-0.561182
-0.556187
-0.550963
-0.545394
-0.539309
-0.532502
-0.524767
-0.515938
-0.505912
-0.494669
-0.48228
-0.468828
-0.454613
-0.439258
-0.424736
-0.588814
-0.583994
-0.579823
-0.575265
-0.570407
-0.565348
-0.560065
-0.554477
-0.548442
-0.541773
-0.534262
-0.525721
-0.516018
-0.505098
-0.492993
-0.479816
-0.46569
-0.450914
-0.435176
-0.420283
-0.594398
-0.589233
-0.584833
-0.580055
-0.574968
-0.569653
-0.564058
-0.558073
-0.551532
-0.544233
-0.535975
-0.526594
-0.515997
-0.504183
-0.491231
-0.477295
-0.46253
-0.447231
-0.431142
-0.415916
-0.600158
-0.594639
-0.590007
-0.585003
-0.579677
-0.574088
-0.568155
-0.561736
-0.554644
-0.54667
-0.537622
-0.527369
-0.515864
-0.503158
-0.489378
-0.474713
-0.459345
-0.443559
-0.427144
-0.411616
-0.606082
-0.600205
-0.595337
-0.590101
-0.584524
-0.578643
-0.572341
-0.565449
-0.557761
-0.549063
-0.539185
-0.528032
-0.515608
-0.502016
-0.48743
-0.472067
-0.456128
-0.439888
-0.42317
-0.407366
-0.612159
-0.605917
-0.600812
-0.595339
-0.589499
-0.583303
-0.5766
-0.569194
-0.56086
-0.551392
-0.540644
-0.528566
-0.515217
-0.50075
-0.485382
-0.469352
-0.452874
-0.436209
-0.41921
-0.403149
-0.618374
-0.611764
-0.606419
-0.600704
-0.594588
-0.588053
-0.580915
-0.572947
-0.563919
-0.553633
-0.541979
-0.528956
-0.51468
-0.499353
-0.483228
-0.466562
-0.449576
-0.432513
-0.415251
-0.39895
-0.624708
-0.61773
-0.612145
-0.606182
-0.599775
-0.592876
-0.585262
-0.576687
-0.566913
-0.555765
-0.543171
-0.529188
-0.513987
-0.497818
-0.480962
-0.463691
-0.446225
-0.428788
-0.41128
-0.394752
-0.631143
-0.623798
-0.617974
-0.611757
-0.605043
-0.59775
-0.589621
-0.580388
-0.569818
-0.557762
-0.5442
-0.529247
-0.513128
-0.496137
-0.478578
-0.46073
-0.442812
-0.425025
-0.407285
-0.390542
-0.637659
-0.629949
-0.623886
-0.617409
-0.61037
-0.602651
-0.593963
-0.584022
-0.572606
-0.559603
-0.545049
-0.529118
-0.512093
-0.494302
-0.476069
-0.457674
-0.439328
-0.421211
-0.403253
-0.386306
-0.644231
-0.636161
-0.629861
-0.623116
-0.615733
-0.607555
-0.598261
-0.587561
-0.575251
-0.561264
-0.545697
-0.528788
-0.51087
-0.492304
-0.473426
-0.454511
-0.435763
-0.417336
-0.399174
-0.382031
-0.650834
-0.64241
-0.635875
-0.628855
-0.621105
-0.612432
-0.602486
-0.590975
-0.577723
-0.56272
-0.546126
-0.528243
-0.509451
-0.490135
-0.47064
-0.451234
-0.432107
-0.413388
-0.395034
-0.377705
-0.65744
-0.64867
-0.641902
-0.634597
-0.626457
-0.617251
-0.606604
-0.594231
-0.579996
-0.563947
-0.546318
-0.527469
-0.507823
-0.487787
-0.467704
-0.447833
-0.428348
-0.409356
-0.390821
-0.373315
-0.664017
-0.654912
-0.647913
-0.640314
-0.631758
-0.621978
-0.610581
-0.597297
-0.582039
-0.564923
-0.546254
-0.526453
-0.505977
-0.485248
-0.464607
-0.444298
-0.424476
-0.405227
-0.386525
-0.368849
-0.670534
-0.661105
-0.653877
-0.645972
-0.636974
-0.626578
-0.614382
-0.600141
-0.583825
-0.565625
-0.545918
-0.525181
-0.503902
-0.482511
-0.46134
-0.440617
-0.42048
-0.400992
-0.382133
-0.364298
-0.676955
-0.667216
-0.659762
-0.651539
-0.642068
-0.631015
-0.617971
-0.60273
-0.585325
-0.56603
-0.545292
-0.52364
-0.501586
-0.479564
-0.457893
-0.436781
-0.416348
-0.396638
-0.377634
-0.359649
-0.683243
-0.673209
-0.66553
-0.656975
-0.647003
-0.635249
-0.621311
-0.605029
-0.586512
-0.566116
-0.54436
-0.521817
-0.49902
-0.476397
-0.454254
-0.432779
-0.412071
-0.392154
-0.373019
-0.354894
-0.689359
-0.679047
-0.671144
-0.662243
-0.651737
-0.63924
-0.624364
-0.607005
-0.587358
-0.565862
-0.543104
-0.519699
-0.496191
-0.473
-0.450414
-0.4286
-0.407636
-0.387531
-0.368275
-0.350021
-0.695261
-0.68469
-0.676565
-0.667301
-0.65623
-0.642947
-0.627091
-0.608626
-0.587836
-0.565247
-0.541511
-0.517274
-0.493088
-0.469362
-0.446362
-0.424232
-0.403034
-0.382756
-0.363393
-0.345022
-0.700908
-0.690096
-0.68175
-0.672107
-0.660438
-0.646329
-0.629456
-0.60986
-0.587921
-0.564252
-0.539563
-0.514528
-0.4897
-0.465471
-0.442086
-0.419667
-0.398253
-0.377821
-0.358364
-0.339887
-0.706256
-0.695225
-0.686657
-0.676618
-0.664318
-0.649344
-0.63142
-0.610675
-0.587588
-0.562857
-0.537246
-0.51145
-0.486016
-0.461318
-0.437577
-0.414892
-0.393283
-0.372714
-0.353178
-0.334608
-0.711259
-0.700031
-0.691242
-0.680788
-0.667825
-0.65195
-0.632947
-0.61104
-0.586813
-0.561044
-0.534545
-0.508026
-0.482024
-0.456892
-0.432824
-0.409897
-0.388115
-0.367428
-0.347825
-0.329176
-0.715872
-0.704469
-0.695459
-0.684572
-0.670916
-0.654107
-0.634001
-0.610928
-0.585573
-0.558796
-0.531447
-0.504246
-0.477715
-0.452182
-0.427816
-0.404673
-0.382739
-0.361952
-0.342298
-0.323585
-0.72005
-0.708495
-0.699263
-0.687924
-0.673546
-0.655774
-0.634548
-0.61031
-0.583848
-0.556096
-0.527939
-0.500098
-0.473076
-0.447177
-0.422543
-0.39921
-0.377145
-0.356278
-0.336589
-0.317827
-0.723745
-0.712063
-0.702607
-0.690799
-0.675672
-0.656912
-0.634556
-0.609159
-0.581617
-0.552928
-0.524007
-0.49557
-0.468098
-0.441868
-0.416997
-0.393498
-0.371325
-0.350398
-0.33069
-0.311895
-0.726913
-0.715128
-0.705447
-0.693151
-0.677251
-0.657484
-0.633992
-0.607453
-0.578862
-0.549279
-0.51964
-0.490652
-0.462771
-0.436245
-0.411166
-0.387529
-0.36527
-0.344304
-0.324593
-0.305784
-0.729506
-0.717642
-0.707735
-0.694936
-0.67824
-0.657452
-0.632826
-0.605166
-0.575564
-0.545134
-0.514827
-0.485333
-0.457085
-0.4303
-0.405044
-0.381295
-0.358974
-0.337989
-0.318294
-0.299487
-0.73148
-0.719562
-0.709427
-0.69611
-0.678601
-0.656783
-0.631033
-0.602279
-0.571708
-0.540481
-0.509556
-0.479605
-0.451031
-0.424022
-0.398622
-0.374787
-0.352428
-0.331447
-0.311785
-0.293
-0.73279
-0.720843
-0.71048
-0.696631
-0.678295
-0.655444
-0.628585
-0.598772
-0.567279
-0.535309
-0.503819
-0.473459
-0.444601
-0.417406
-0.391891
-0.368
-0.345626
-0.324672
-0.305061
-0.286317
-0.733395
-0.721443
-0.71085
-0.696458
-0.677287
-0.653406
-0.62546
-0.594628
-0.562265
-0.529607
-0.497606
-0.466886
-0.437788
-0.410442
-0.384846
-0.360925
-0.338563
-0.317657
-0.298118
-0.279434
-0.733253
-0.721321
-0.710498
-0.695554
-0.675541
-0.65064
-0.621636
-0.589831
-0.556654
-0.523366
-0.490909
-0.459879
-0.430584
-0.403125
-0.37748
-0.353558
-0.331232
-0.310399
-0.290951
-0.272348
-0.732326
-0.720438
-0.709385
-0.693883
-0.673028
-0.647122
-0.617095
-0.584367
-0.550435
-0.516579
-0.483723
-0.452432
-0.422983
-0.395449
-0.369787
-0.345893
-0.32363
-0.302891
-0.283556
-0.265057
-0.730577
-0.718756
-0.707474
-0.69141
-0.669718
-0.64283
-0.611821
-0.578226
-0.543601
-0.509238
-0.47604
-0.44454
-0.41498
-0.387409
-0.361763
-0.337926
-0.315751
-0.295132
-0.275933
-0.257564
-0.727971
-0.71624
-0.704731
-0.688105
-0.665587
-0.637743
-0.605799
-0.571396
-0.536144
-0.501338
-0.467856
-0.436197
-0.406571
-0.379
-0.353404
-0.329653
-0.307592
-0.287115
-0.268078
-0.249864
-0.724476
-0.712859
-0.701126
-0.68394
-0.66061
-0.631846
-0.599019
-0.563872
-0.52806
-0.492875
-0.459168
-0.427401
-0.397753
-0.37022
-0.344707
-0.321071
-0.29915
-0.278838
-0.259984
-0.241923
-0.720065
-0.708583
-0.69663
-0.678891
-0.65477
-0.625124
-0.591471
-0.555647
-0.519345
-0.483846
-0.449972
-0.418149
-0.388522
-0.361067
-0.335671
-0.31218
-0.290424
-0.2703
-0.251633
-0.233665
-0.714711
-0.703386
-0.691218
-0.672936
-0.648049
-0.617567
-0.583148
-0.546718
-0.509996
-0.474251
-0.440269
-0.40844
-0.378879
-0.35154
-0.326294
-0.302979
-0.281416
-0.261509
-0.243034
-0.225074
-0.708391
-0.697244
-0.684869
-0.666057
-0.640434
-0.609166
-0.574047
-0.537084
-0.500014
-0.464089
-0.430058
-0.398274
-0.368823
-0.341638
-0.316578
-0.293468
-0.272128
-0.252467
-0.234223
-0.21644
-0.701088
-0.690138
-0.677564
-0.65824
-0.631916
-0.599915
-0.564166
-0.526744
-0.4894
-0.453361
-0.41934
-0.387652
-0.358355
-0.331363
-0.306521
-0.283649
-0.26256
-0.243168
-0.225143
-0.207684
-0.692784
-0.682051
-0.669289
-0.649473
-0.622488
-0.589814
-0.553506
-0.515701
-0.478157
-0.442071
-0.408117
-0.376576
-0.347477
-0.320716
-0.296128
-0.273523
-0.252716
-0.233615
-0.215844
-0.198718
-0.683468
-0.672971
-0.660032
-0.639748
-0.612146
-0.578862
-0.54207
-0.50396
-0.466289
-0.430222
-0.396394
-0.36505
-0.336192
-0.309701
-0.2854
-0.263095
-0.242595
-0.22381
-0.206326
-0.189529
-0.673131
-0.662889
-0.649786
-0.629061
-0.600891
-0.567063
-0.529863
-0.491527
-0.453803
-0.417822
-0.384177
-0.353078
-0.324505
-0.298321
-0.274342
-0.252366
-0.232202
-0.213759
-0.196587
-0.180124
-0.661768
-0.651798
-0.638547
-0.617413
-0.588725
-0.554422
-0.516893
-0.47841
-0.440707
-0.404876
-0.37147
-0.340666
-0.312421
-0.286583
-0.262959
-0.241342
-0.22154
-0.203466
-0.186627
-0.170509
-0.649379
-0.639697
-0.626315
-0.604805
-0.575655
-0.540949
-0.503171
-0.46462
-0.42701
-0.391394
-0.358283
-0.327822
-0.299946
-0.274491
-0.251255
-0.230028
-0.210616
-0.192934
-0.176449
-0.160691
-0.635964
-0.626587
-0.613093
-0.591244
-0.56169
-0.526655
-0.488708
-0.450168
-0.412723
-0.377385
-0.344624
-0.314554
-0.287089
-0.262053
-0.239239
-0.21843
-0.199435
-0.18217
-0.166058
-0.150677
-0.62153
-0.612475
-0.598887
-0.576739
-0.546842
-0.511554
-0.473519
-0.435068
-0.39786
-0.362862
-0.330504
-0.300871
-0.273858
-0.249278
-0.226918
-0.206557
-0.188005
-0.171178
-0.155459
-0.140472
-0.606087
-0.597368
-0.58371
-0.561304
-0.531127
-0.495661
-0.457619
-0.419335
-0.382433
-0.347836
-0.315935
-0.286785
-0.260264
-0.236175
-0.2143
-0.194415
-0.176332
-0.159968
-0.14466
-0.130084
-0.589648
-0.581279
-0.567573
-0.544954
-0.514561
-0.478996
-0.441028
-0.402988
-0.36646
-0.332323
-0.300929
-0.272306
-0.246317
-0.222754
-0.201396
-0.182015
-0.164426
-0.148547
-0.133667
-0.11952
-0.572229
-0.564224
-0.550494
-0.527708
-0.497166
-0.461579
-0.423767
-0.386043
-0.349956
-0.316337
-0.2855
-0.257449
-0.232029
-0.209027
-0.188216
-0.169368
-0.152296
-0.136923
-0.122491
-0.108789
-0.553851
-0.546222
-0.532494
-0.509588
-0.478964
-0.443435
-0.405857
-0.36852
-0.332941
-0.299896
-0.269665
-0.242226
-0.217414
-0.195006
-0.174773
-0.156483
-0.139954
-0.125109
-0.111141
-0.0978988
-0.534535
-0.527296
-0.513596
-0.49062
-0.459983
-0.42459
-0.387315
-0.350445
-0.315434
-0.283017
-0.253438
-0.226654
-0.202486
-0.180705
-0.161078
-0.143373
-0.127411
-0.113113
-0.099627
-0.0868608
-0.514309
-0.507471
-0.493826
-0.47083
-0.440252
-0.405069
-0.368171
-0.331838
-0.297456
-0.26572
-0.236839
-0.210749
-0.187259
-0.166136
-0.147145
-0.130051
-0.114679
-0.10095
-0.087962
-0.0756867
-0.4932
-0.486776
-0.473213
-0.450251
-0.4198
-0.384889
-0.348461
-0.312725
-0.27903
-0.248025
-0.219885
-0.194527
-0.17175
-0.151317
-0.132988
-0.11653
-0.101772
-0.0886308
-0.0761591
-0.0643905
-0.471241
-0.465241
-0.45179
-0.428919
-0.398644
-0.364097
-0.328204
-0.293131
-0.26018
-0.229954
-0.202596
-0.178007
-0.155976
-0.136261
-0.118623
-0.102825
-0.0887041
-0.0761707
-0.0642331
-0.0529884
-0.448464
-0.442903
-0.429594
-0.406876
-0.376813
-0.342722
-0.307432
-0.273084
-0.240931
-0.211528
-0.184993
-0.161207
-0.139953
-0.120985
-0.104063
-0.0889513
-0.0754896
-0.0635843
-0.0522
-0.0414998
-0.424905
-0.419798
-0.406662
-0.384103
-0.354394
-0.320797
-0.286175
-0.252613
-0.221307
-0.192773
-0.167097
-0.144148
-0.123699
-0.105506
-0.0893253
-0.074923
-0.062144
-0.0508871
-0.0400775
-0.0299467
-0.400603
-0.395967
-0.383035
-0.360678
-0.331387
-0.298357
-0.264468
-0.231747
-0.201337
-0.173711
-0.14893
-0.126848
-0.107234
-0.0898402
-0.0744253
-0.0607557
-0.0486826
-0.0380947
-0.0278842
-0.0183569
-0.375594
-0.37145
-0.35872
-0.336676
-0.307834
-0.275439
-0.242343
-0.210517
-0.181048
-0.154368
-0.130516
-0.10933
-0.0905763
-0.0740062
-0.0593789
-0.0464645
-0.0351204
-0.0252224
-0.0156412
-0.00676754
-0.34991
-0.346304
-0.333798
-0.312106
-0.283777
-0.252081
-0.219836
-0.188954
-0.160468
-0.134771
-0.111877
-0.0916148
-0.0737455
-0.058021
-0.0442022
-0.0320639
-0.0214714
-0.0122843
-0.00337023
0.00477629
-0.323591
-0.320588
-0.308316
-0.287014
-0.259259
-0.228322
-0.196982
-0.167091
-0.139627
-0.114946
-0.0930386
-0.0737245
-0.0567616
-0.0419026
-0.0289106
-0.017568
-0.00774868
0.000707871
0.00891229
0.0162392
-0.296771
-0.294285
-0.282316
-0.261447
-0.234322
-0.204201
-0.173817
-0.144961
-0.118556
-0.0949203
-0.0740259
-0.0556822
-0.0396453
-0.0256691
-0.0135199
-0.0029902
0.00603574
0.0137479
0.0212046
0.0275961
-0.269484
-0.267445
-0.255841
-0.235452
-0.20901
-0.179759
-0.15038
-0.122598
-0.097285
-0.0747232
-0.0548648
-0.0375114
-0.0224176
-0.00933891
0.00195477
0.0116563
0.0198729
0.0268403
0.0335081
0.038746
-0.241728
-0.240156
-0.228941
-0.209077
-0.183369
-0.155038
-0.126708
-0.100038
-0.0758468
-0.0543834
-0.0355817
-0.0192362
-0.00510031
0.00706925
0.0174976
0.0263601
0.0337649
0.0400116
0.0457917
0.0493918
-0.213557
-0.212472
-0.201667
-0.182369
-0.157445
-0.130081
-0.10284
-0.0773155
-0.0542735
-0.0339306
-0.016204
-0.000881578
0.0122841
0.0235354
0.0330917
0.0411126
0.0477301
0.0533108
0.0580094
0.0592456
-0.18503
-0.184444
-0.174071
-0.155378
-0.131283
-0.10493
-0.0788161
-0.0544668
-0.032598
-0.0133951
0.00324053
0.0175268
0.0297121
0.0400379
0.0487178
0.0559039
0.0617815
0.0667459
0.0701729
0.0690257
-0.156205
-0.156126
-0.146204
-0.128156
-0.104933
-0.07963
-0.0546756
-0.0315283
-0.0108539
0.00719232
0.0227234
0.0359625
0.0471589
0.056553
0.0643536
0.070716
0.075886
0.0801851
0.0821881
0.0817452
-0.127135
-0.12757
-0.11812
-0.100752
-0.0784395
-0.0542235
-0.030459
-0.00853706
0.010925
0.0278004
0.0422156
0.0543986
0.0645992
0.0730564
0.0799755
0.08552
0.0899671
0.0935375
0.0947181
0.0950779
-0.0978779
-0.09883
-0.0898731
-0.0732185
-0.0518525
-0.0287552
-0.0062067
0.0144698
0.0327045
0.0483975
0.061688
0.0728079
0.0820071
0.0895232
0.0955595
0.100287
0.103991
0.106813
0.107351
0.107809
-0.0684904
-0.0699631
-0.0615176
-0.0456066
-0.0252197
-0.0032697
0.0180404
0.037455
0.0544502
0.068952
0.081111
0.0911626
0.0993566
0.105929
0.111081
0.11499
0.117937
0.120021
0.119978
0.120219
-0.0390301
-0.0410246
-0.033108
-0.0179683
0.00141073
0.0221886
0.0422415
0.0603809
0.0761276
0.089432
0.100455
0.109435
0.116622
0.122248
0.126515
0.129603
0.131785
0.133138
0.132514
0.132389
-0.00955426
-0.0120708
-0.00469912
0.00964458
0.0279903
0.0475752
0.0663559
0.0832102
0.0977023
0.109805
0.11969
0.127598
0.133776
0.138457
0.141839
0.144102
0.145516
0.146137
0.144918
0.14434
0.0198797
0.016842
0.0236544
0.0371801
0.054471
0.0728457
0.0903427
0.105905
0.11914
0.130041
0.138788
0.145623
0.150795
0.15453
0.157028
0.158467
0.159108
0.158999
0.157168
0.156084
0.0492143
0.0456574
0.0518981
0.0645869
0.0808048
0.097956
0.114161
0.128429
0.140405
0.150106
0.157717
0.163484
0.167651
0.170445
0.172061
0.172676
0.172545
0.171703
0.16925
0.167627
0.0783927
0.0743193
0.0799776
0.0918134
0.106944
0.122862
0.137772
0.150745
0.161466
0.169969
0.17645
0.181153
0.184321
0.186178
0.186915
0.186709
0.185806
0.184233
0.181151
0.178967
0.107358
0.102772
0.107839
0.118809
0.132841
0.147521
0.161134
0.172815
0.182286
0.1896
0.194958
0.198604
0.200779
0.201705
0.201569
0.200547
0.198875
0.196574
0.192861
0.190102
0.136054
0.13096
0.135429
0.145523
0.158451
0.171889
0.184209
0.194605
0.202834
0.208968
0.213211
0.21581
0.217002
0.217004
0.216003
0.214171
0.211735
0.20871
0.204369
0.201024
0.164425
0.158829
0.162695
0.171906
0.183725
0.195925
0.206957
0.216077
0.223077
0.228041
0.231183
0.232745
0.232964
0.232053
0.230196
0.227562
0.22437
0.220627
0.215663
0.211727
0.192415
0.186325
0.189584
0.19791
0.20862
0.219585
0.229341
0.237197
0.242981
0.246791
0.248844
0.249383
0.248642
0.246831
0.244129
0.240702
0.236762
0.232312
0.226731
0.222203
0.219972
0.213394
0.216047
0.223485
0.23309
0.242831
0.251322
0.257931
0.262515
0.265187
0.266168
0.2657
0.264014
0.261316
0.257782
0.253574
0.248898
0.24375
0.237562
0.232442
0.247041
0.239984
0.242031
0.248585
0.257092
0.26562
0.272863
0.278243
0.281647
0.283201
0.283129
0.281672
0.279057
0.275487
0.271135
0.266161
0.26076
0.254928