/*--------------------------------*- C++ -*----------------------------------*\
  =========                 |
  \\      /  F ield         | OpenFOAM: The Open Source CFD Toolbox
   \\    /   O peration     | Website:  https://openfoam.org
    \\  /    A nd           | Version:  7
     \\/     M anipulation  |
\*---------------------------------------------------------------------------*/
FoamFile
{
    version     2.0;
    format      ascii;
    class       surfaceScalarField;
    location    "180";
    object      phi;
}
// * * * * * * * * * * * * * * * * * * * * * * * * * * * * * * * * * * * * * //

dimensions      [0 3 -1 0 0 0 0];

internalField   nonuniform List<scalar> 
8899
(
-1.38454e-05
0.000305067
-0.000298897
-2.18311e-05
0.000357803
-0.000349817
-3.15587e-05
0.000397865
-0.000388137
-4.2921e-05
0.000427021
-0.000415658
-5.57943e-05
0.000447232
-0.000434359
-7.0053e-05
0.000460479
-0.000446221
-8.55812e-05
0.000468585
-0.000453057
-0.000102281
0.000473069
-0.000456368
-0.00012008
0.00047503
-0.000457231
-0.000138932
0.000475091
-0.000456239
-0.00015882
0.000473371
-0.000453483
-0.000179759
0.000469511
-0.000448571
-0.000201799
0.000462703
-0.000440663
-0.000225021
0.000451727
-0.000428505
-0.000249539
0.000434983
-0.000410465
-0.000275486
0.000410488
-0.00038454
0.000375754
-0.00034819
-0.00030305
-1.20576e-05
0.000310554
-1.92746e-05
0.00036502
-2.81743e-05
0.000406764
-3.86642e-05
0.000437511
-5.06233e-05
0.000459192
-6.39186e-05
0.000473775
-7.84184e-05
0.000483085
-9.40022e-05
0.000488652
-0.000110568
0.000491596
-0.000128037
0.00049256
-0.000146358
0.000491692
-0.00016551
0.000488664
-0.000185507
0.0004827
-0.000206399
0.000472619
-0.000228277
0.000456861
-0.000251269
0.00043348
0.000400059
-0.000275574
-1.01749e-05
0.000315315
-1.65677e-05
0.000371412
-2.45712e-05
0.000414768
-3.41064e-05
0.000447046
-4.50548e-05
0.00047014
-5.7275e-05
0.000485995
-7.06172e-05
0.000496427
-8.49354e-05
0.00050297
-0.000100096
0.000506756
-0.000115984
0.000508448
-0.000132509
0.000508217
-0.000149609
0.000505764
-0.000167256
0.000500347
-0.000185465
0.000490828
-0.000204301
0.000475697
-0.000223879
0.000453058
0.000420592
-0.000244412
-8.20835e-06
0.000319311
-1.37255e-05
0.00037693
-2.07679e-05
0.00042181
-2.92704e-05
0.000455548
-3.91162e-05
0.000479986
-5.01546e-05
0.000497033
-6.22169e-05
0.00050849
-7.51297e-05
0.000515883
-8.87253e-05
0.000520352
-0.000102849
0.000522572
-0.000117368
0.000522736
-0.000132175
0.00052057
-0.000147197
0.000515369
-0.000162405
0.000506037
-0.000177835
0.000491126
-0.00019359
0.000468813
0.000436892
-0.00020989
-6.17078e-06
0.000322509
-1.07653e-05
0.000381524
-1.67868e-05
0.000427832
-2.41835e-05
0.000462945
-3.28404e-05
0.000488643
-4.25973e-05
0.00050679
-5.32658e-05
0.000519158
-6.4644e-05
0.000527261
-7.65284e-05
0.000532236
-8.87233e-05
0.000534767
-0.000101049
0.000535062
-0.000113349
0.00053287
-0.000125501
0.000527521
-0.000137432
0.000517967
-0.000149138
0.000502833
-0.000160711
0.000480387
0.000448557
-0.000172376
-4.07691e-06
0.000324879
-7.70748e-06
0.000385155
-1.26538e-05
0.000432778
-1.88778e-05
0.000469169
-2.62664e-05
0.000496031
-3.465e-05
0.000515174
-4.38203e-05
0.000528329
-5.35467e-05
0.000536988
-6.35891e-05
0.000542279
-7.37085e-05
0.000544886
-8.36769e-05
0.00054503
-9.32864e-05
0.00054248
-0.000102362
0.000536596
-0.000110778
0.000526384
-0.000118494
0.000510548
-0.000125582
0.000487475
0.000455245
-0.00013227
-1.94268e-06
0.000326399
-4.57436e-06
0.000387786
-8.39806e-06
0.000436602
-1.33896e-05
0.000474161
-1.94383e-05
0.00050208
-2.63656e-05
0.000522101
-3.39442e-05
0.000535907
-4.19146e-05
0.000544958
-5.00001e-05
0.000550364
-5.79182e-05
0.000552804
-6.53912e-05
0.000552503
-7.21574e-05
0.000549246
-7.79852e-05
0.000542424
-8.26963e-05
0.000531095
-8.62037e-05
0.000514056
-8.85648e-05
0.000489836
0.000456678
-8.99979e-05
2.15213e-07
-1.39014e-06
0.000389392
-4.05151e-06
0.000439263
-7.75885e-06
0.000477868
-1.24046e-05
0.000506726
-1.78025e-05
0.000527499
-2.3707e-05
0.000541812
-2.9831e-05
0.000551082
-3.58617e-05
0.000556395
-4.14733e-05
0.000558416
-4.63382e-05
0.000557368
-5.01398e-05
0.000553047
-5.2588e-05
0.000544872
-5.34466e-05
0.000531954
-5.25809e-05
0.00051319
-5.00368e-05
0.000487292
0.000452647
-4.60058e-05
1.81914e-06
0.00038995
3.51938e-07
0.00044073
-2.02839e-06
0.000480248
-5.21779e-06
0.000509915
-9.02358e-06
0.000531305
-1.31836e-05
0.000545972
-1.73848e-05
0.000555284
-2.12797e-05
0.00056029
-2.45003e-05
0.000561636
-2.66702e-05
0.000559538
-2.74169e-05
0.000553794
-2.63904e-05
0.000543846
-2.32934e-05
0.000528857
-1.79346e-05
0.000507831
-1.03394e-05
0.000479697
0.000443441
-1.13375e-06
5.02661e-06
0.00038945
4.77585e-06
0.000440981
3.75628e-06
0.000481268
2.06673e-06
0.000511605
-9.51276e-08
0.000533467
-2.45249e-06
0.000548329
-4.66851e-06
0.0005575
-6.36344e-06
0.000561985
-7.12906e-06
0.000562402
-6.54125e-06
0.00055895
-4.17289e-06
0.000551426
3.87309e-07
0.000539286
7.50126e-06
0.000521743
1.74208e-05
0.000497912
3.01829e-05
0.000466935
0.00042822
4.54045e-05
8.20425e-06
0.000387888
9.18331e-06
0.000440002
9.5479e-06
0.000480903
9.39112e-06
0.000511762
8.91376e-06
0.000533944
8.40488e-06
0.000548838
8.22244e-06
0.000557682
8.77565e-06
0.000561431
1.05101e-05
0.000560668
1.3895e-05
0.000555565
1.94108e-05
0.00054591
2.753e-05
0.000531166
3.86836e-05
0.000510589
5.31912e-05
0.000483404
7.11177e-05
0.000449008
0.000407229
9.21087e-05
1.13234e-05
0.000385269
1.35359e-05
0.000437789
1.52979e-05
0.000479141
1.66959e-05
0.000510363
1.79322e-05
0.000532708
1.93055e-05
0.000547465
2.11916e-05
0.000555796
2.4026e-05
0.000558597
2.82879e-05
0.000556406
3.44887e-05
0.000549364
4.31591e-05
0.000537239
5.48322e-05
0.000519493
7.00096e-05
0.000495412
8.90865e-05
0.000464327
0.000112183
0.000425912
0.000380508
0.000138904
1.43555e-05
0.000381609
1.7795e-05
0.00043435
2.0957e-05
0.000475979
2.3921e-05
0.000507399
2.68887e-05
0.00052974
3.01656e-05
0.000544188
3.41426e-05
0.000551819
3.92771e-05
0.000553462
4.60785e-05
0.000549604
5.50957e-05
0.000540347
6.69066e-05
0.000525429
8.21027e-05
0.000504297
0.000101257
0.000476257
0.000124849
0.000440735
0.000153064
0.000397697
0.000348086
0.000185486
1.7272e-05
0.000376931
2.19222e-05
0.0004297
2.64762e-05
0.000471425
3.10061e-05
0.00050287
3.57113e-05
0.000525035
4.09021e-05
0.000538997
4.69802e-05
0.000545741
5.44215e-05
0.000546021
6.37608e-05
0.000540265
7.55802e-05
0.000528528
9.05004e-05
0.000510508
0.000109168
0.000485629
0.000132229
0.000453196
0.000160251
0.000412713
0.000193502
0.000364445
0.000310023
0.000231565
2.00459e-05
0.000371268
2.58801e-05
0.000423866
3.18073e-05
0.000465498
3.78917e-05
0.000496785
4.43296e-05
0.000518597
5.14329e-05
0.000531894
5.96114e-05
0.000537562
6.93552e-05
0.000536277
8.12199e-05
0.0005284
9.5816e-05
0.000513932
0.000113802
0.000492522
0.000135876
0.000463555
0.000162754
0.000426319
0.0001951
0.000380367
0.000233283
0.000326262
0.000266398
0.000276907
2.26511e-05
2.96328e-05
0.000416884
3.69034e-05
0.000458228
4.45202e-05
0.000489168
5.26747e-05
0.000510442
6.16787e-05
0.00052289
7.19467e-05
0.000527294
8.39792e-05
0.000524245
9.83484e-05
0.000514031
0.000115688
0.000496592
0.00013669
0.000471521
0.000162097
0.000438148
0.000192696
0.00039572
0.000229248
0.000343815
0.000272243
0.000283267
0.000217296
0.000321346
3.31463e-05
0.000408801
4.17202e-05
0.000449654
5.08362e-05
0.000480052
6.06806e-05
0.000500598
7.15632e-05
0.000512007
8.39007e-05
0.000514957
9.82006e-05
0.000509945
0.000115047
0.000497184
0.000135094
0.000476545
0.000159059
0.000447556
0.000187728
0.000409478
0.00022195
0.000361498
0.000262592
0.000303172
0.000310278
0.000235581
0.000162795
0.00036478
3.63892e-05
0.000399673
4.62162e-05
0.000439827
5.67877e-05
0.000469481
6.82851e-05
0.0004891
8.10148e-05
0.000499277
9.53937e-05
0.000500578
0.000111933
0.000493405
0.000131227
0.00047789
0.000153943
0.00045383
0.000180822
0.000420677
0.000212688
0.000377613
0.000250448
0.000323738
0.000295074
0.000258546
0.000347342
0.000183312
0.000102956
0.000407181
3.93333e-05
0.000389564
5.03536e-05
0.000428806
6.23272e-05
0.000457507
7.5431e-05
0.000475997
8.99676e-05
0.000484741
0.000106353
0.000484193
0.0001251
0.000474658
0.000146809
0.000456181
0.00017216
0.000428479
0.000201913
0.000390923
0.000236924
0.000342602
0.000278156
0.000282507
0.000326683
0.000210019
0.000383447
0.000126549
3.7812e-05
0.000448591
4.19541e-05
5.40993e-05
0.000416661
6.74125e-05
0.000444194
8.20672e-05
0.000461342
9.83626e-05
0.000468445
0.000116712
0.000465843
0.000137632
0.000453739
0.000161725
0.000432088
0.000189683
0.000400521
0.000222284
0.000358323
0.00026041
0.000304476
0.000305076
0.000237841
0.000357457
0.000157638
0.000418665
6.53399e-05
-3.26451e-05
0.000489122
5.74258e-05
0.000403467
7.20081e-05
0.000429612
8.81505e-05
0.0004452
0.00010615
0.000450446
0.000126419
0.000445574
0.000149473
0.000430685
0.000175924
0.000405637
0.00020647
0.000369974
0.000241908
0.000322885
0.000283146
0.000263238
0.000331246
0.000189741
0.000387477
0.000101406
0.000453127
-3.10304e-07
-0.000108473
0.000528955
6.03122e-05
0.000389306
7.60863e-05
0.000413838
9.36469e-05
0.000427639
0.000113291
0.000430802
0.00013543
0.000423435
0.000160584
0.000405531
0.000189369
0.000376852
0.000222498
0.000336845
0.000260784
0.0002846
0.000305163
0.000218859
0.00035674
0.000138164
0.000416874
4.1273e-05
0.000487019
-7.04554e-05
-0.000189784
0.00056833
6.2745e-05
0.000374264
7.9629e-05
0.000396954
9.85338e-05
0.000408734
0.000119759
0.000409577
0.000143719
0.000399475
0.000170939
0.00037831
0.000202046
0.000345744
0.000237768
0.000301124
0.000278939
0.000243429
0.000326526
0.000171271
0.000381675
8.30156e-05
0.000445822
-2.28749e-05
0.00052058
-0.000145213
-0.000276748
0.000607543
6.47198e-05
8.2629e-05
0.000379045
0.000102802
0.000388561
0.000125544
0.000386835
0.000151278
0.000373741
0.000180538
0.00034905
0.000213966
0.000312316
0.000252311
0.000262779
0.000296435
0.000199305
0.000347339
0.000120367
0.000406208
2.41464e-05
0.000474549
-9.12159e-05
0.000554104
-0.000224768
-0.000369583
0.00064694
8.5092e-05
0.000360195
0.000106458
0.000367195
0.000130657
0.000362636
0.000158123
0.000346275
0.000189407
0.000317766
0.000225172
0.000276551
0.000266195
0.000221756
0.000313374
0.000152125
0.000367751
6.59907e-05
0.00043055
-3.86525e-05
0.000503331
-0.000163997
0.000587935
-0.000309372
-0.000468548
0.0006869
8.70381e-05
0.000340486
0.000109526
0.000344707
0.000135128
0.000337035
0.000164295
0.000317107
0.000197602
0.000284459
0.000235742
0.000238411
0.000279529
0.000177969
0.000329907
0.000101748
0.000387963
7.93511e-06
0.000454961
-0.000105651
0.000532494
-0.000241529
0.000622463
-0.000399342
-0.000573908
0.000727823
8.85033e-05
0.000112052
0.000321158
0.000139013
0.000310074
0.000169866
0.000286254
0.000205217
0.000249109
0.000245798
0.000197831
0.000292471
0.000131295
0.000346234
4.79845e-05
0.000408229
-5.40592e-05
0.000479755
-0.000177177
0.000562409
-0.000324183
0.000658106
-0.000495038
-0.000685906
0.000770104
0.000114101
0.000296598
0.000142396
0.000281779
0.000174941
0.000253709
0.000212383
0.000211667
0.000255505
0.000154709
0.000305228
8.15718e-05
0.000362614
-9.40096e-06
0.000428859
-0.000120304
0.000505295
-0.000253613
0.000593479
-0.000412368
0.000695278
-0.000596838
-0.000804797
0.000814169
0.000115765
0.000271056
0.00014539
0.000252154
0.000179659
0.00021944
0.000219273
0.000172053
0.000265077
0.000108906
0.00031806
2.85886e-05
0.000379353
-7.06943e-05
0.00045021
-0.000191161
0.000531979
-0.000335381
0.000626122
-0.000506511
0.000734389
-0.000705105
-0.000930639
0.000860231
0.000117157
0.000148136
0.000221174
0.000184197
0.000183379
0.000226103
0.000130147
0.000274772
6.02364e-05
0.000331272
-2.79115e-05
0.000396805
-0.000136228
0.000472674
-0.00026703
0.000560221
-0.000422928
0.000660749
-0.000607039
0.000775825
-0.000820181
-0.00106291
0.0009081
0.000150804
0.000188783
0.00018876
0.000145423
0.000233121
8.57861e-05
0.000284886
8.47102e-06
0.000345206
-8.82308e-05
0.00041535
-0.000206372
0.000496651
-0.000348331
0.000590417
-0.000516694
0.000697716
-0.000714338
0.000819929
-0.000942395
-0.00120196
0.000958977
0.000153588
0.000193585
0.000105425
0.000240609
3.87629e-05
0.000295745
-4.66649e-05
0.000360224
-0.00015271
0.000435372
-0.000281521
0.000522523
-0.000435481
0.000622903
-0.000617074
0.000737255
-0.00082869
0.000866768
-0.00107191
-0.00134717
0.00101198
0.000198929
6.31976e-05
0.000248864
-1.11719e-05
0.000307682
-0.000105483
0.000376686
-0.000221714
0.000457235
-0.00036207
0.000550617
-0.000528863
0.000657917
-0.000724375
0.000779457
-0.00095023
0.000916193
-0.00120864
-0.0014976
0.00106662
0.000205055
1.85113e-05
0.000258188
-6.43043e-05
0.000321026
-0.000168322
0.000394928
-0.000295616
0.000481247
-0.000448389
0.000581172
-0.000628788
0.000695567
-0.00083877
0.000824242
-0.0010789
0.000967885
-0.00135229
-0.00165205
0.00112233
0.000212227
0.000268869
-0.000120947
0.000336076
-0.00023553
0.00041523
-0.000374769
0.000507632
-0.000540791
0.000614304
-0.00073546
0.000735796
-0.000960262
0.000871347
-0.00121445
0.0010213
-0.00150224
-0.00180897
0.00117822
0.000281164
-0.000181423
0.000353077
-0.000307443
0.000437793
-0.000459485
0.000536501
-0.0006395
0.000649979
-0.000848938
0.000778363
-0.00108865
0.000920313
-0.0013564
0.00107566
-0.00165758
-0.00196655
0.00123324
0.000295281
0.000372204
-0.000384366
0.000462717
-0.000549998
0.000567832
-0.000744614
0.000688003
-0.000969109
0.000822849
-0.00122349
0.000970498
-0.00150405
0.00112996
-0.00181705
-0.0021229
0.0012863
0.000393539
-0.000466543
0.000489986
-0.000646445
0.000601458
-0.000856086
0.00072802
-0.00109567
0.000868697
-0.00136417
0.00102118
-0.00165654
0.00118298
-0.00197884
-0.00227642
0.0013365
0.000417068
0.000519455
-0.000748831
0.000637062
-0.000973693
0.000769506
-0.00122812
0.000915233
-0.0015099
0.00107172
-0.00181302
0.00123378
-0.0021409
-0.00242556
0.00138292
0.00055086
-0.000857018
0.000674186
-0.00109702
0.000811768
-0.0013657
0.000961545
-0.00165967
0.00112114
-0.00197261
0.00128283
-0.00230259
-0.00256671
0.00142398
0.00058383
0.000712268
-0.00122546
0.000854008
-0.00150744
0.00100645
-0.00181212
0.00116694
-0.0021331
0.00132934
-0.00246499
-0.00276262
0.00152525
0.000750674
0.000895414
-0.00165218
0.00104898
-0.00196568
0.00120812
-0.00229224
0.00136711
-0.00262398
-0.00293511
0.00153959
0.000935236
-0.00179866
0.00108834
-0.00211879
0.00124407
-0.00244798
0.00139699
-0.0027769
-0.00309015
0.00155204
0.000972798
0.00112395
-0.00226993
0.00127481
-0.00259884
0.00142026
-0.00292235
-0.0032311
0.00156121
0.00115537
0.00130024
-0.00274371
0.00143742
-0.00305953
-0.00335977
0.00156608
0.0013203
-0.00288174
0.00144876
-0.003188
-0.00347734
0.00156634
0.00133499
0.00145458
-0.00330759
-0.00358468
0.00156191
0.00145514
-0.0036825
0.00155297
0.00153978
0.00299671
0.00145503
0.00130928
0.00259618
0.002864
0.00144199
0.00113565
0.0021731
0.00128045
0.00245137
0.00272185
0.0014226
0.00109408
0.00202434
0.0012451
0.00230035
0.00257007
0.00139688
0.000895918
0.00161012
0.00104684
0.00187343
0.0012032
0.00214398
0.00240822
0.00136506
0.000702195
0.00123291
0.000842403
0.00146991
0.000994088
0.00172174
0.00115472
0.00198336
0.00223525
0.00132769
0.000648311
0.00111047
0.000785145
0.00133307
0.000935954
0.00157093
0.00109946
0.00181985
0.00204909
0.00128562
0.000476004
0.000805142
0.000592569
0.000993906
0.000724511
0.00120113
0.000872352
0.00142309
0.00103684
0.00165537
0.00184596
0.00123997
0.000331424
0.000557235
0.000425756
0.00071081
0.00053548
0.000884182
0.000660938
0.00107567
0.00080283
0.0012812
0.00096335
0.00149485
0.00161697
0.00119234
0.000288566
0.000484514
0.000375589
0.000623787
0.000477672
0.0007821
0.000595211
0.000958134
0.00072842
0.00114799
0.00087435
0.00134892
0.00148988
0.00100144
0.000180784
0.000311128
0.000246574
0.000418724
0.000326019
0.000544342
0.000419936
0.000688183
0.000528639
0.000849431
0.000651585
0.00102504
0.000786996
0.00121351
0.00136118
0.000915704
0.000146917
0.00026399
0.000205795
0.000359846
0.000277565
0.000472572
0.000363092
0.000602656
0.000462748
0.000749775
0.000576032
0.000911759
0.000703057
0.00108648
0.00123476
0.000829472
7.33017e-05
0.000152441
0.000114482
0.00022281
0.000166567
0.00030776
0.000230717
0.000408423
0.000307853
0.00052552
0.000398509
0.00065912
0.000502538
0.000807729
0.00062083
0.00096819
0.00111161
0.000743978
4.82472e-05
0.000125822
8.36986e-05
0.000187358
0.000129204
0.000262255
0.000185915
0.000351713
0.000254812
0.000456622
0.000336606
0.000577325
0.000431578
0.000712757
0.000541015
0.000858753
0.000992517
0.000660112
2.78834e-06
6.12167e-05
2.47594e-05
0.000103851
5.47712e-05
0.000157347
9.39911e-05
0.000223035
0.000143554
0.00030215
0.000204495
0.000395681
0.000277702
0.000504118
0.0003639
0.000626559
0.000464724
0.000757929
0.000878485
0.000578756
-1.46707e-05
4.97916e-05
2.96219e-06
8.62184e-05
2.78752e-05
0.000132434
6.11767e-05
0.000189733
0.000103981
0.000259346
0.000157374
0.000342288
0.00022242
0.000439072
0.000300261
0.000548718
0.00039285
0.00066534
0.000770413
0.000500922
-3.87472e-05
1.84316e-05
-3.06819e-05
4.17263e-05
-1.70482e-05
7.25846e-05
3.15032e-06
0.000112235
3.09634e-05
0.00016192
6.74839e-05
0.000222825
0.000113847
0.000295925
0.000171281
0.000381638
0.00024129
0.000478709
0.00032608
0.00058055
0.000668944
0.000427549
-5.02168e-05
1.75391e-05
-4.52041e-05
3.67136e-05
-3.52094e-05
6.259e-05
-1.93081e-05
9.63338e-05
3.49449e-06
0.000139118
3.4272e-05
0.000192048
7.42051e-05
0.000255992
0.000124671
0.000331172
0.000187451
0.000415929
0.000264905
0.000503097
0.000574497
0.000359352
-6.04988e-05
1.89264e-05
-5.82256e-05
3.44404e-05
-5.14986e-05
5.5863e-05
-3.94575e-05
8.42927e-05
-2.11568e-05
0.000120817
4.46104e-06
0.00016643
3.86169e-05
0.000221836
8.28084e-05
0.00028698
0.000139001
0.000359737
0.000209578
0.00043252
0.0004873
0.000296774
-6.62012e-05
1.42265e-05
-6.96107e-05
2.23359e-05
-6.97665e-05
3.45963e-05
-6.59356e-05
5.2032e-05
-5.73134e-05
7.56705e-05
-4.29962e-05
0.0001065
-2.19397e-05
0.000145374
7.10773e-06
0.000192788
4.57254e-05
0.000248363
9.59629e-05
0.000309499
0.000160093
0.00036839
0.00040742
0.000239972
-7.24094e-05
2.16735e-05
-7.75932e-05
2.75197e-05
-7.98788e-05
3.68818e-05
-7.85838e-05
5.0737e-05
-7.29507e-05
7.00375e-05
-6.21105e-05
9.56594e-05
-4.50318e-05
0.000128295
-2.04461e-05
0.000168203
1.32632e-05
0.000214653
5.81312e-05
0.000264631
0.000116187
0.000310335
0.000334822
0.000188785
-7.77826e-05
3.03981e-05
-8.4509e-05
3.42462e-05
-8.8644e-05
4.10168e-05
-8.95476e-05
5.16406e-05
-8.6501e-05
6.69909e-05
-7.86647e-05
8.78231e-05
-6.50221e-05
0.000114652
-4.43065e-05
0.000147487
-1.49144e-05
0.000185261
2.50989e-05
0.000224618
7.73916e-05
0.000258042
0.000269514
0.0001427
-7.25536e-05
3.95786e-05
-8.23812e-05
4.02256e-05
-9.04394e-05
4.23044e-05
-9.61697e-05
4.6747e-05
-9.89672e-05
5.44382e-05
-9.81452e-05
6.6169e-05
-9.28907e-05
8.25685e-05
-8.22071e-05
0.000103969
-6.48499e-05
0.00013013
-3.92853e-05
0.000159696
-3.83956e-06
0.000189172
4.31376e-05
0.000211065
0.000211306
0.000101345
-7.55007e-05
5.1411e-05
-8.62761e-05
5.1001e-05
-9.54803e-05
5.15085e-05
-0.000102584
5.38503e-05
-0.00010701
5.8865e-05
-0.000108102
6.72608e-05
-0.000105072
7.95381e-05
-9.69507e-05
9.58476e-05
-8.25384e-05
0.000115718
-6.03896e-05
0.000137548
-2.89184e-05
0.000157701
1.30188e-05
0.000169128
0.00016018
6.41451e-05
-7.79564e-05
6.39071e-05
-8.95457e-05
6.25904e-05
-9.97373e-05
6.17001e-05
-0.000108026
6.21393e-05
-0.000113863
6.47016e-05
-0.000116615
7.00125e-05
-0.000115523
7.84463e-05
-0.000109657
8.99816e-05
-9.78813e-05
0.000103942
-7.88845e-05
0.000118551
-5.13301e-05
0.000130147
-1.42971e-05
0.000132095
0.000115806
3.00771e-05
-6.69167e-05
7.80423e-05
-7.99801e-05
7.69705e-05
-9.22714e-05
7.48817e-05
-0.00010332
7.27489e-05
-0.000112644
7.14632e-05
-0.000119717
7.17748e-05
-0.000123934
7.42293e-05
-0.000124569
7.90809e-05
-0.000120739
8.61516e-05
-0.000111391
9.45945e-05
-9.53609e-05
0.000102521
-7.1599e-05
0.000106385
-4.00163e-05
0.000100512
7.94153e-05
-3.62583e-06
-6.808e-05
9.17751e-05
-8.16312e-05
9.05218e-05
-9.45341e-05
8.77846e-05
-0.000106338
8.45525e-05
-0.000116581
8.17067e-05
-0.000124763
7.99566e-05
-0.000130306
7.97726e-05
-0.000132524
8.12987e-05
-0.000130591
8.42187e-05
-0.000123546
8.75499e-05
-0.00011037
8.93441e-05
-9.02244e-05
8.62394e-05
-6.30227e-05
7.33103e-05
4.59915e-05
-2.95989e-05
-6.8991e-05
0.000105831
-8.29661e-05
0.000104497
-9.64103e-05
0.000101229
-0.000108892
9.70342e-05
-0.000119972
9.27869e-05
-0.000129175
8.91598e-05
-0.000135958
8.65547e-05
-0.000139676
8.5017e-05
-0.00013957
8.41133e-05
-0.000134778
8.27577e-05
-0.000124418
7.89838e-05
-0.000107818
6.9639e-05
-8.4948e-05
5.04407e-05
1.75775e-05
-5.65339e-05
-6.96873e-05
0.000120164
-8.40363e-05
0.000118846
-9.79693e-05
0.000115162
-0.000111075
0.00011014
-0.000122937
0.000104649
-0.00013311
9.93322e-05
-0.000141085
9.45301e-05
-0.000146271
9.02028e-05
-0.000147979
8.58213e-05
-0.000145447
8.02265e-05
-0.000137929
7.1466e-05
-0.0001249
5.66095e-05
-0.000106407
3.19474e-05
-5.68087e-06
-8.31484e-05
-5.56293e-05
0.000132015
-7.02012e-05
0.000134736
-8.48859e-05
0.000133531
-9.927e-05
0.000129546
-0.000112963
0.000123833
-0.000125576
0.000117262
-0.000136693
0.000110449
-0.000145848
0.000103685
-0.000152504
9.68592e-05
-0.00015605
8.93668e-05
-0.000155825
8.00022e-05
-0.000151211
6.68517e-05
-0.000141808
4.72063e-05
-0.000127715
1.78545e-05
-2.38167e-05
-0.000109579
-5.57785e-05
0.000146147
-7.05593e-05
0.000149517
-8.55509e-05
0.000148522
-0.00010036
0.000144355
-0.000114619
0.000138092
-0.000127966
0.000130609
-0.000140022
0.000122505
-0.000150365
0.000114028
-0.000158517
0.000105011
-0.000163945
9.47951e-05
-0.000166091
8.21482e-05
-0.000164451
6.52114e-05
-0.000158729
4.14848e-05
-0.000149051
8.17559e-06
-3.68952e-05
-0.000135972
-5.58162e-05
0.000160383
-7.07812e-05
0.000164482
-8.60572e-05
0.000163798
-0.000101272
0.00015957
-0.000116084
0.000152904
-0.000130162
0.000144687
-0.000143161
0.000135504
-0.00015471
0.000125577
-0.000164393
0.000114694
-0.000171755
0.000102157
-0.000176333
8.67266e-05
-0.000177729
6.66068e-05
-0.000175729
3.94853e-05
-0.000170462
2.90845e-06
-4.49873e-05
-0.00016237
-5.57519e-05
0.000174699
-7.08795e-05
0.00017961
-8.64214e-05
0.00017934
-0.000102028
0.000175177
-0.000117385
0.000168261
-0.000132191
0.000159493
-0.000146143
0.000149457
-0.000158918
0.000138352
-0.000170163
0.000125939
-0.000179501
0.000111494
-0.000186558
9.37841e-05
-0.000191028
7.10763e-05
-0.000192763
4.12202e-05
-0.00019188
2.02562e-06
-4.81705e-05
-0.000188696
-4.12153e-05
0.000176325
-5.55895e-05
0.000189073
-7.08597e-05
0.00019488
-8.66501e-05
0.00019513
-0.000102635
0.000191162
-0.000118528
0.000184153
-0.00013406
0.000175025
-0.000148969
0.000164366
-0.000162983
0.000152366
-0.000175809
0.000138766
-0.000187146
0.00012283
-0.000196702
0.00010334
-0.00020425
7.86243e-05
-0.000209694
4.66646e-05
-0.000213134
5.46507e-06
-4.65384e-05
-0.000214766
-4.09179e-05
0.000189342
-5.53285e-05
0.000203484
-7.07204e-05
0.000210272
-8.67407e-05
0.000211151
-0.000103088
0.00020751
-0.000119504
0.000200568
-0.000135753
0.000191274
-0.000151615
0.000180228
-0.000166865
0.000167616
-0.000181272
0.000153173
-0.000194603
0.000136161
-0.000206642
0.00011538
-0.000217231
8.92133e-05
-0.000226315
5.57488e-05
-0.000233973
1.31227e-05
-4.02139e-05
-0.000240297
-4.05406e-05
0.000202308
-5.49638e-05
0.000217907
-7.04543e-05
0.000225762
-8.66823e-05
0.000227379
-0.000103371
0.000224199
-0.00012029
0.000217487
-0.000137238
0.000208222
-0.000154032
0.000197022
-0.000170497
0.000184081
-0.000186458
0.000169134
-0.000201746
0.000151448
-0.000216212
0.000129846
-0.000229757
0.000102759
-0.000242362
6.83534e-05
-0.000254085
2.48462e-05
-2.93616e-05
-0.000264938
-4.00771e-05
0.000215197
-5.44863e-05
0.000232316
-7.00485e-05
0.000241324
-8.64566e-05
0.000243787
-0.000103459
0.000241202
-0.000120852
0.000234879
-0.000138465
0.000225836
-0.000156156
0.000214712
-0.000173791
0.000201716
-0.000191249
0.000186592
-0.000208418
0.000168618
-0.000225211
0.000146639
-0.00024158
0.000119128
-0.000257533
8.43067e-05
-0.000273118
4.04306e-05
-1.42043e-05
-0.000288275
-3.95193e-05
0.000227983
-5.38841e-05
0.000246681
-6.94857e-05
0.000256926
-8.60398e-05
0.000260341
-0.000103319
0.00025848
-0.000121143
0.000252704
-0.000139376
0.000244068
-0.000157905
0.000233242
-0.000176641
0.000220452
-0.000195508
0.000205459
-0.000214447
0.000187556
-0.000233422
0.000165613
-0.00025243
0.000138136
-0.000271507
0.000103384
-0.000290697
5.96197e-05
4.98114e-06
-0.000309882
-3.88572e-05
0.000240632
-5.31426e-05
0.000260966
-6.87454e-05
0.000272529
-8.54036e-05
0.000276999
-0.000102912
0.000275988
-0.000121115
0.000270907
-0.000139901
0.000262854
-0.000159192
0.000252532
-0.000178932
0.000240193
-0.000199089
0.000225615
-0.000219646
0.000208114
-0.000240614
0.000186581
-0.00026203
0.000159552
-0.000283955
0.000125309
-0.000306439
8.2104e-05
2.79748e-05
-0.000329433
-3.80798e-05
0.000253109
-5.22456e-05
0.000275132
-6.78049e-05
0.000288088
-8.45168e-05
0.000293711
-0.000102196
0.000293668
-0.00012071
0.000289421
-0.000139969
0.000282114
-0.000159923
0.000272485
-0.000180546
0.000260817
-0.000201841
0.00024691
-0.000223831
0.000230104
-0.000246562
0.000209313
-0.000270107
0.000183097
-0.000294548
0.00014975
-0.000319946
0.000107502
5.42716e-05
-0.000346243
-3.71753e-05
0.000265374
-5.11761e-05
0.000289133
-6.66402e-05
0.000303552
-8.33469e-05
0.000310418
-0.00010113
0.00031145
-0.000119873
0.000308164
-0.000139508
0.000301749
-0.000160005
0.000292982
-0.000181366
0.000282177
-0.000203619
0.000269164
-0.000226821
0.000253305
-0.000251048
0.00023354
-0.000276399
0.000208448
-0.000302979
0.000176329
-0.000330856
0.000135379
8.3395e-05
-0.000359979
-2.41234e-05
0.000240514
-3.6132e-05
0.000277383
-4.99168e-05
0.000302918
-6.52275e-05
0.000318863
-8.18618e-05
0.000327052
-9.96686e-05
0.000329257
-0.000118548
0.000327043
-0.000138445
0.000321646
-0.000159348
0.000313885
-0.000181278
0.000304107
-0.000204286
0.000292171
-0.000228449
0.000277468
-0.00025387
0.000258962
-0.00028067
0.000235247
-0.000308969
0.000204628
-0.000338849
0.00016526
0.000114825
-0.00037028
-2.32346e-05
0.000250147
-3.49388e-05
0.000289087
-4.84515e-05
0.00031643
-6.3544e-05
0.000333955
-8.00306e-05
0.000343539
-9.77732e-05
0.000347
-0.000116683
0.000345953
-0.000136716
0.000341679
-0.000157871
0.00033504
-0.000180182
0.000326418
-0.000203716
0.000315705
-0.000228566
0.000302318
-0.000254852
0.000285248
-0.00028271
0.000263105
-0.000312276
0.000234195
-0.000343645
0.000196629
0.000147996
-0.000376816
-2.2238e-05
0.000259428
-3.35857e-05
0.000300434
-4.67655e-05
0.00032961
-6.15693e-05
0.000348759
-7.78257e-05
0.000359795
-9.54068e-05
0.000364581
-0.000114231
0.000364776
-0.00013426
0.000361709
-0.000155499
0.000356279
-0.000177988
0.000348908
-0.000201802
0.000339518
-0.000227043
0.00032756
-0.000253843
0.000312047
-0.000282345
0.000291608
-0.000312699
0.000264548
-0.000345012
0.000228942
0.0001823
-0.000379316
-2.11289e-05
0.00026831
-3.20648e-05
0.00031137
-4.48468e-05
0.000342392
-5.92858e-05
0.000363198
-7.52231e-05
0.000375732
-9.25379e-05
0.000381896
-0.000111152
0.00038339
-0.000131028
0.000381585
-0.000152171
0.000377422
-0.000174622
0.000371359
-0.000198457
0.000363353
-0.00022378
0.000352883
-0.000250724
0.000338991
-0.000279441
0.000320325
-0.000310083
0.000295191
-0.000342771
0.00026163
0.0002171
-0.000377571
-1.9904e-05
0.000276747
-3.03703e-05
0.000321837
-4.26858e-05
0.000354708
-5.66798e-05
0.000377192
-7.2204e-05
0.000391257
-8.91418e-05
0.000398834
-0.000107414
0.000401662
-0.000126981
0.000401152
-0.000147841
0.000398282
-0.000170029
0.000393547
-0.000193615
0.000386939
-0.0002187
0.000377968
-0.000245412
0.000365704
-0.000273901
0.000348814