/*--------------------------------*- C++ -*----------------------------------*\
  =========                 |
  \\      /  F ield         | OpenFOAM: The Open Source CFD Toolbox
   \\    /   O peration     | Website:  https://openfoam.org
    \\  /    A nd           | Version:  7
     \\/     M anipulation  |
\*---------------------------------------------------------------------------*/
FoamFile
{
    version     2.0;
    format      ascii;
    class       volScalarField;
    location    "300";
    object      p;
}
// * * * * * * * * * * * * * * * * * * * * * * * * * * * * * * * * * * * * * //

dimensions      [0 2 -2 0 0 0 0];

internalField   nonuniform List<scalar> 
7156
(
-0.404179
-0.40461
-0.405055
-0.40556
-0.40616
-0.406882
-0.407743
-0.408755
-0.409924
-0.411252
-0.412743
-0.414398
-0.416219
-0.418208
-0.420367
-0.422699
-0.425202
-0.427879
-0.430734
-0.433688
-0.436743
-0.400746
-0.401171
-0.401593
-0.402056
-0.402596
-0.403237
-0.403996
-0.404883
-0.405903
-0.407057
-0.408347
-0.409772
-0.411333
-0.41303
-0.414862
-0.416829
-0.418928
-0.421159
-0.423526
-0.42594
-0.428406
-0.397325
-0.397743
-0.39814
-0.398562
-0.39904
-0.3996
-0.400256
-0.401016
-0.401885
-0.402864
-0.403951
-0.405145
-0.406443
-0.407844
-0.409345
-0.410944
-0.412635
-0.414416
-0.416289
-0.418156
-0.420023
-0.393925
-0.394334
-0.394706
-0.395085
-0.395501
-0.395979
-0.396531
-0.397165
-0.397884
-0.398686
-0.399569
-0.40053
-0.401565
-0.402669
-0.403838
-0.405066
-0.406347
-0.407675
-0.409053
-0.41037
-0.411633
-0.390552
-0.390951
-0.391298
-0.391633
-0.391988
-0.392383
-0.392832
-0.39334
-0.393908
-0.394534
-0.395214
-0.395943
-0.396714
-0.397521
-0.398357
-0.399216
-0.400086
-0.400962
-0.401847
-0.402616
-0.403273
-0.387214
-0.387603
-0.387923
-0.388215
-0.388509
-0.388823
-0.389169
-0.389551
-0.38997
-0.390421
-0.390899
-0.391396
-0.391905
-0.392416
-0.392922
-0.393413
-0.393876
-0.394303
-0.394699
-0.394924
-0.394979
-0.383919
-0.384296
-0.38459
-0.384839
-0.385072
-0.385305
-0.38555
-0.385808
-0.386079
-0.386357
-0.386634
-0.386902
-0.387151
-0.38737
-0.387549
-0.387675
-0.387736
-0.38772
-0.387634
-0.387325
-0.386784
-0.380672
-0.381037
-0.381305
-0.381512
-0.381684
-0.381839
-0.381983
-0.38212
-0.382245
-0.382351
-0.382431
-0.382473
-0.382466
-0.382396
-0.382253
-0.382021
-0.381685
-0.381235
-0.380678
-0.379845
-0.37872
-0.377481
-0.377833
-0.378075
-0.37824
-0.378354
-0.37843
-0.378477
-0.378494
-0.378476
-0.378415
-0.3783
-0.37812
-0.377861
-0.377508
-0.377048
-0.376465
-0.375742
-0.374867
-0.373851
-0.372509
-0.370815
-0.374351
-0.37469
-0.374906
-0.375031
-0.375087
-0.375088
-0.375039
-0.374938
-0.37478
-0.374555
-0.37425
-0.373852
-0.373347
-0.372717
-0.371948
-0.371022
-0.369921
-0.368634
-0.367173
-0.36534
-0.363094
-0.371287
-0.371615
-0.371805
-0.37189
-0.37189
-0.371817
-0.371675
-0.37146
-0.371165
-0.370779
-0.370289
-0.369679
-0.368933
-0.368033
-0.366963
-0.365704
-0.364237
-0.362551
-0.360662
-0.358357
-0.355579
-0.368296
-0.368611
-0.368776
-0.368823
-0.368769
-0.368624
-0.368391
-0.368065
-0.367638
-0.367096
-0.366425
-0.365608
-0.364628
-0.363466
-0.362103
-0.360522
-0.358702
-0.356631
-0.354331
-0.351576
-0.34829
-0.365382
-0.365684
-0.365826
-0.365835
-0.365729
-0.365515
-0.365194
-0.36476
-0.364204
-0.36351
-0.362664
-0.361647
-0.360439
-0.359023
-0.357378
-0.355485
-0.353324
-0.350885
-0.348193
-0.345012
-0.341242
-0.36284
-0.362959
-0.362931
-0.362774
-0.362493
-0.362087
-0.36155
-0.360868
-0.360028
-0.359012
-0.3578
-0.356373
-0.354711
-0.352793
-0.350601
-0.348114
-0.345322
-0.342258
-0.338674
-0.334447
-0.360082
-0.360178
-0.360116
-0.35991
-0.359565
-0.359077
-0.358438
-0.357636
-0.356654
-0.355473
-0.354074
-0.352435
-0.350535
-0.348355
-0.345875
-0.343076
-0.339948
-0.336532
-0.332572
-0.327916
-0.357416
-0.35749
-0.357394
-0.357141
-0.356733
-0.356166
-0.35543
-0.354511
-0.353392
-0.352053
-0.350472
-0.348629
-0.346501
-0.344069
-0.341313
-0.338216
-0.33477
-0.331022
-0.32671
-0.321654
-0.354845
-0.354897
-0.354768
-0.354469
-0.354001
-0.353358
-0.352529
-0.351498
-0.350246
-0.348754
-0.346998
-0.344958
-0.342611
-0.339937
-0.336918
-0.333538
-0.32979
-0.32573
-0.321093
-0.315665
-0.352371
-0.352402
-0.352242
-0.3519
-0.351374
-0.350657
-0.349737
-0.348598
-0.347219
-0.345579
-0.343656
-0.341427
-0.338869
-0.335964
-0.332693
-0.329043
-0.325011
-0.320658
-0.315721
-0.30995
-0.349998
-0.35001
-0.349819
-0.349434
-0.348852
-0.348065
-0.347059
-0.345815
-0.344314
-0.342532
-0.340447
-0.338036
-0.335277
-0.33215
-0.328639
-0.324733
-0.320432
-0.315807
-0.310594
-0.304509
-0.34773
-0.347722
-0.347502
-0.347076
-0.346441
-0.345586
-0.344495
-0.343151
-0.341532
-0.339615
-0.337375
-0.334789
-0.331837
-0.328497
-0.324758
-0.320609
-0.316054
-0.311174
-0.30571
-0.299338
-0.345542
-0.345293
-0.344828
-0.344141
-0.34322
-0.34205
-0.340609
-0.338877
-0.336828
-0.33444
-0.331687
-0.328549
-0.325007
-0.32105
-0.316669
-0.311875
-0.306757
-0.301065
-0.294431
-0.343472
-0.343196
-0.342692
-0.341955
-0.340971
-0.339723
-0.338191
-0.33635
-0.334176
-0.331645
-0.328732
-0.325416
-0.321681
-0.317515
-0.312915
-0.307895
-0.302554
-0.296655
-0.289783
-0.341514
-0.341211
-0.34067
-0.339885
-0.338841
-0.337519
-0.335897
-0.333952
-0.331659
-0.328991
-0.325925
-0.32244
-0.318519
-0.314154
-0.309345
-0.30411
-0.29856
-0.292477
-0.285384
-0.339671
-0.339342
-0.338765
-0.337933
-0.33683
-0.335437
-0.333731
-0.331687
-0.329279
-0.326481
-0.323268
-0.319621
-0.315522
-0.310967
-0.305958
-0.300519
-0.294774
-0.288526
-0.281224
-0.33759
-0.336978
-0.336101
-0.334942
-0.333481
-0.331694
-0.329555
-0.327038
-0.324115
-0.320764
-0.316961
-0.312693
-0.307956
-0.302756
-0.297121
-0.291189
-0.284795
-0.277286
-0.335956
-0.335311
-0.334391
-0.333178
-0.331652
-0.329788
-0.327559
-0.324938
-0.321898
-0.318413
-0.314464
-0.310034
-0.305122
-0.299738
-0.293915
-0.287803
-0.281275
-0.273522
-0.334443
-0.333765
-0.332803
-0.33154
-0.329952
-0.328014
-0.3257
-0.322981
-0.319829
-0.31622
-0.31213
-0.307547
-0.302468
-0.296907
-0.2909
-0.284614
-0.277958
-0.269891
-0.333051
-0.332341
-0.33134
-0.330028
-0.328381
-0.326375
-0.323981
-0.321169
-0.317913
-0.314186
-0.309964
-0.305235
-0.299997
-0.294265
-0.288081
-0.281626
-0.274878
-0.266452
-0.331042
-0.330002
-0.328644
-0.326942
-0.324872
-0.322402
-0.319505
-0.316151
-0.312314
-0.307969
-0.303101
-0.297711
-0.291815
-0.285458
-0.278846
-0.272093
-0.263292
-0.329866
-0.328791
-0.327389
-0.325636
-0.323505
-0.320966
-0.31799
-0.314546
-0.310606
-0.306147
-0.30115
-0.295615
-0.28956
-0.283033
-0.276241
-0.269192
-0.260595
-0.328817
-0.327706
-0.326264
-0.324463
-0.322277
-0.319675
-0.316626
-0.3131
-0.309067
-0.304501
-0.299385
-0.293714
-0.287506
-0.28081
-0.273843
-0.266574
-0.25797
-0.327892
-0.326749
-0.325269
-0.323424
-0.321187
-0.318528
-0.315413
-0.311813
-0.307696
-0.303034
-0.297808
-0.292011
-0.285656
-0.278795
-0.271654
-0.264198
-0.255451
-0.325919
-0.324404
-0.322519
-0.320237
-0.317525
-0.314353
-0.310687
-0.306495
-0.301748
-0.296423
-0.290509
-0.284017
-0.276993
-0.269675
-0.262033
-0.253062
-0.325216
-0.323668
-0.321747
-0.319424
-0.316668
-0.313445
-0.309721
-0.305465
-0.300643
-0.29523
-0.289211
-0.28259
-0.275408
-0.267909
-0.260076
-0.2508
-0.324637
-0.32306
-0.321108
-0.318749
-0.315953
-0.312687
-0.308915
-0.304603
-0.299718
-0.294228
-0.288116
-0.281378
-0.274044
-0.266359
-0.258329
-0.248665
-0.322579
-0.320598
-0.318209
-0.31538
-0.312077
-0.308265
-0.303907
-0.298969
-0.293416
-0.287222
-0.280378
-0.272899
-0.265029
-0.256794
-0.246655
-0.322221
-0.320215
-0.3178
-0.314943
-0.31161
-0.307766
-0.303373
-0.298392
-0.292786
-0.286524
-0.279586
-0.271972
-0.263916
-0.255476
-0.244772
-0.321984
-0.319956
-0.317519
-0.314639
-0.311283
-0.307414
-0.302993
-0.29798
-0.292333
-0.286014
-0.278995
-0.271257
-0.263017
-0.254375
-0.243016
-0.319816
-0.31736
-0.314462
-0.311089
-0.307201
-0.30276
-0.297723
-0.292045
-0.285682
-0.278594
-0.270744
-0.262325
-0.25349
-0.241391
-0.319789
-0.317317
-0.314406
-0.311019
-0.307119
-0.302664
-0.297611
-0.291911
-0.285513
-0.278369
-0.270421
-0.261828
-0.252815
-0.239898
-0.317385
-0.314462
-0.311065
-0.307157
-0.302694
-0.297631
-0.291916
-0.285493
-0.278305
-0.27027
-0.261512
-0.252341
-0.238539
-0.317554
-0.314622
-0.311219
-0.307305
-0.302838
-0.297771
-0.292048
-0.285607
-0.278384
-0.270276
-0.261362
-0.252051
-0.237314
-0.314878
-0.311469
-0.307553
-0.303085
-0.298016
-0.29229
-0.285839
-0.27859
-0.270422
-0.261363
-0.25193
-0.236225
-0.31522
-0.311807
-0.307888
-0.303421
-0.298354
-0.292629
-0.286175
-0.278911
-0.270696
-0.261507
-0.251958
-0.235283
-0.315638
-0.31222
-0.308301
-0.303835
-0.298773
-0.293054
-0.286604
-0.279336
-0.27109
-0.261798
-0.252133
-0.234525
-0.312701
-0.30878
-0.304317
-0.299262
-0.293553
-0.287116
-0.279861
-0.271605
-0.262251
-0.252469
-0.234044
-0.313238
-0.309316
-0.304856
-0.29981
-0.294118
-0.287707
-0.280485
-0.272249
-0.262895
-0.252948
-0.233836
-0.309899
-0.305443
-0.300409
-0.294742
-0.288374
-0.281218
-0.273053
-0.263805
-0.25348
-0.233484
-0.310522
-0.30607
-0.301052
-0.295419
-0.289114
-0.282069
-0.274081
-0.265176
-0.254276
-0.233144
-0.30673
-0.30173
-0.296139
-0.289919
-0.283038
-0.275364
-0.267194
-0.256566
-0.238754
-0.302436
-0.296894
-0.290773
-0.28409
-0.276808
-0.269564
-0.260979
-0.262147
-0.303162
-0.297671
-0.291653
-0.28517
-0.278267
-0.271851
-0.264437
-0.269721
-0.298457
-0.292535
-0.286233
-0.279637
-0.273777
-0.266852
-0.27243
-0.299241
-0.2934
-0.287243
-0.280872
-0.275331
-0.268617
-0.273636
-0.294231
-0.288176
-0.281948
-0.276541
-0.269853
-0.273795
-0.289016
-0.282853
-0.277436
-0.270646
-0.273254
-0.289753
-0.283588
-0.278052
-0.271087
-0.272302
-0.284158
-0.27843
-0.271253
-0.271119
-0.278604
-0.271203
-0.269817
-0.270982
-0.268464
-0.270625
-0.267098
-0.265742
-0.447001
-0.456985
-0.451351
-0.467717
-0.46051
-0.455853
-0.470641
-0.464048
-0.460507
-0.477501
-0.473514
-0.467572
-0.465296
-0.482603
-0.479559
-0.476307
-0.471048
-0.470186
-0.483963
-0.481515
-0.478984
-0.474425
-0.475111
-0.486582
-0.485246
-0.483355
-0.481504
-0.477635
-0.479945
-0.487882
-0.487313
-0.486452
-0.485067
-0.483817
-0.480591
-0.484465
-0.488191
-0.48802
-0.487589
-0.486648
-0.485876
-0.483189
-0.488314
-0.488209
-0.488521
-0.488717
-0.488672
-0.488105
-0.487631
-0.485303
-0.490937
-0.488266
-0.488886
-0.489421
-0.489722
-0.489465
-0.489064
-0.486726
-0.490199
-0.487602
-0.488391
-0.489299
-0.490151
-0.49077
-0.490791
-0.490316
-0.487634
-0.47893
-0.486813
-0.487564
-0.488592
-0.489772
-0.490926
-0.491853
-0.492169
-0.491638
-0.489682
-0.478383
-0.486669
-0.487619
-0.488876
-0.490316
-0.491762
-0.493001
-0.493672
-0.493305
-0.492566
-0.481953
-0.485893
-0.486627
-0.487771
-0.489246
-0.490936
-0.492667
-0.494224
-0.495295
-0.495253
-0.495525
-0.485586
-0.485782
-0.486686
-0.488016
-0.489703
-0.491633
-0.493643
-0.495519
-0.496997
-0.497351
-0.49839
-0.489053
-0.48517
-0.485767
-0.486839
-0.488354
-0.490245
-0.492407
-0.494688
-0.496878
-0.498753
-0.49954
-0.501228
-0.492666
-0.485088
-0.485843
-0.487082
-0.488777
-0.490867
-0.493254
-0.495795
-0.498293
-0.500549
-0.501794
-0.50406
-0.49644
-0.484662
-0.485085
-0.485999
-0.487406
-0.489279
-0.491563
-0.494168
-0.49696
-0.499755
-0.502376
-0.504087
-0.506867
-0.500284
-0.484572
-0.48515
-0.486226
-0.487799
-0.489849
-0.492323
-0.495139
-0.498173
-0.501255
-0.504223
-0.506397
-0.50963
-0.504133
-0.484536
-0.485272
-0.48651
-0.488252
-0.490476
-0.493137
-0.496158
-0.499425
-0.502782
-0.506078
-0.508702
-0.512343
-0.507945
-0.48413
-0.484542
-0.485438
-0.48684
-0.488749
-0.491147
-0.493992
-0.497211
-0.500703
-0.504323
-0.50793
-0.510988
-0.514999
-0.511692
-0.484006
-0.484576
-0.485634
-0.4872
-0.489277
-0.491848
-0.494872
-0.498286
-0.501993
-0.505865
-0.509768
-0.513238
-0.517593
-0.515346
-0.483626
-0.483897
-0.484626
-0.485846
-0.487577
-0.489821
-0.492561
-0.495763
-0.499365
-0.503281
-0.507394
-0.511578
-0.515439
-0.520116
-0.518883
-0.483365
-0.483789
-0.484677
-0.486059
-0.487954
-0.490363
-0.493272
-0.496647
-0.500433
-0.504551
-0.508894
-0.513345
-0.517577
-0.522561
-0.522281
-0.483093
-0.48367
-0.484715
-0.486258
-0.488316
-0.490889
-0.493963
-0.497508
-0.501472
-0.505784
-0.510348
-0.515054
-0.519637
-0.524919
-0.525546
-0.482502
-0.482798
-0.483527
-0.484728
-0.48643
-0.488647
-0.49138
-0.494616
-0.498326
-0.502464
-0.506963
-0.511739
-0.516688
-0.521602
-0.527176
-0.528703
-0.48203
-0.482469
-0.483346
-0.484701
-0.486558
-0.488931
-0.491821
-0.495215
-0.499085
-0.50339
-0.508069
-0.513048
-0.518229
-0.523454
-0.529303
-0.531601
-0.481516
-0.482093
-0.483116
-0.48462
-0.486629
-0.489154
-0.492195
-0.495741
-0.499767
-0.504233
-0.509085
-0.514256
-0.519659
-0.525173
-0.53128
-0.534273
-0.480644
-0.480948
-0.48166
-0.482825
-0.484473
-0.486628
-0.489299
-0.492486
-0.496179
-0.500353
-0.504973
-0.50999
-0.515345
-0.520959
-0.526743
-0.533095
-0.53673
-0.47989
-0.480317
-0.48116
-0.48246
-0.484247
-0.486541
-0.489352
-0.492679
-0.496511
-0.500827
-0.505594
-0.510769
-0.516299
-0.522112
-0.52815
-0.534734
-0.538957
-0.479068
-0.479612
-0.480581
-0.482011
-0.48393
-0.486357
-0.4893
-0.492759
-0.496723
-0.501173
-0.506079
-0.511403
-0.517098
-0.523101
-0.529376
-0.536183
-0.540938
-0.478168
-0.478826
-0.479914
-0.481467
-0.483511
-0.486063
-0.48913
-0.492712
-0.496799
-0.501374
-0.506411
-0.511876
-0.517727
-0.523909
-0.530406
-0.537425
-0.542664
-0.476812
-0.477185
-0.47795
-0.47915
-0.480818
-0.482978
-0.485646
-0.488829
-0.492525
-0.496727
-0.501418
-0.506576
-0.512172
-0.518169
-0.524519
-0.531224
-0.538442
-0.544121
-0.475641
-0.476109
-0.476975
-0.47828
-0.480055
-0.482323
-0.485098
-0.488386
-0.492186
-0.496492
-0.50129
-0.50656
-0.512276
-0.518409
-0.524916
-0.531814
-0.53922
-0.545299
-0.474378
-0.474934
-0.475895
-0.477297
-0.47917
-0.481536
-0.484408
-0.487791
-0.491685
-0.496085
-0.500978
-0.506349
-0.512175
-0.518432
-0.525085
-0.532159
-0.53974
-0.546182
-0.472738
-0.473015
-0.473655
-0.474702
-0.476193
-0.478156
-0.48061
-0.483567
-0.487034
-0.491011
-0.495493
-0.500471
-0.505931
-0.511855
-0.518225
-0.52501
-0.532246
-0.539987
-0.546757
-0.471199
-0.471548
-0.472265
-0.473392
-0.474963
-0.477005
-0.479536
-0.482569
-0.486108
-0.490156
-0.494708
-0.499759
-0.505295
-0.511306
-0.517774
-0.524677
-0.532058
-0.539944
-0.547009
-0.469556
-0.469974
-0.470761
-0.471959
-0.473601
-0.475712
-0.47831
-0.481406
-0.485006
-0.489112
-0.493722
-0.498832
-0.504433
-0.510515
-0.517068
-0.524074
-0.531581
-0.539594
-0.546923
-0.467806
-0.468287
-0.469138
-0.470399
-0.472102
-0.474272
-0.476925
-0.480073
-0.483721
-0.487873
-0.492528
-0.497683
-0.503333
-0.509473
-0.516096
-0.523187
-0.530801
-0.538923
-0.546484
-0.465948
-0.466485
-0.467393
-0.468709
-0.470464
-0.472682
-0.475379
-0.478566
-0.48225
-0.486434
-0.491119
-0.496305
-0.501991
-0.508172
-0.514847
-0.522006
-0.529706
-0.537915
-0.545676
-0.463712
-0.463978
-0.464567
-0.465524
-0.466886
-0.468683
-0.470939
-0.473668
-0.476882
-0.480588
-0.48479
-0.489491
-0.494694
-0.500398
-0.506604
-0.513313
-0.52052
-0.528283
-0.536556
-0.544486
-0.461581
-0.461896
-0.462531
-0.463529
-0.464929
-0.466759
-0.469041
-0.471791
-0.475019
-0.478733
-0.48294
-0.487642
-0.492844
-0.49855
-0.504763
-0.511486
-0.518719
-0.52652
-0.534834
-0.542899
-0.459343
-0.459702
-0.460376
-0.461409
-0.462838
-0.464691
-0.466988
-0.469747
-0.472976
-0.476685
-0.480881
-0.485569
-0.490755
-0.496444
-0.502644
-0.50936
-0.516596
-0.52441
-0.532737
-0.540902
-0.456997
-0.457395
-0.458103
-0.459164
-0.460613
-0.462478
-0.464781
-0.467535
-0.470753
-0.474444
-0.478614
-0.483271
-0.488424
-0.494079
-0.500245
-0.506932
-0.514145
-0.521942
-0.530256
-0.538486
-0.454545
-0.454979
-0.455714
-0.456795
-0.458255
-0.460124
-0.46242
-0.465159
-0.468353
-0.47201
-0.47614
-0.48075
-0.485851
-0.491452
-0.497564
-0.504198
-0.511361
-0.519112
-0.527383
-0.535642
-0.451989
-0.452453
-0.45321
-0.454303
-0.455767
-0.457629
-0.459909
-0.462621
-0.465777
-0.469388
-0.473462
-0.478009
-0.48304
-0.488567
-0.494602
-0.501158
-0.508244
-0.515916
-0.524111
-0.532366
-0.449332
-0.449822
-0.450595
-0.451694
-0.453153
-0.454999
-0.457251
-0.459924
-0.463031
-0.46658
-0.470583
-0.47505
-0.479993
-0.485425
-0.491361
-0.497813
-0.504794
-0.512354
-0.520443
-0.528641
-0.446289
-0.446577
-0.447088
-0.447872
-0.448969
-0.450415
-0.452236
-0.454451
-0.457074
-0.460118
-0.463593
-0.467509
-0.471879
-0.476716
-0.482033
-0.487845
-0.494168
-0.501013
-0.508431
-0.516381
-0.524459
-0.443412
-0.443729
-0.444257
-0.445045
-0.446135
-0.44756
-0.449347
-0.451514
-0.454076
-0.457045
-0.460432
-0.464248
-0.468504
-0.473215
-0.478396
-0.484062
-0.490229
-0.496911
-0.504153
-0.511904
-0.519852
-0.44045
-0.440793
-0.441334
-0.442121
-0.443196
-0.444593
-0.446338
-0.448448
-0.450938
-0.453821
-0.457106
-0.460806
-0.464932
-0.469499
-0.474523
-0.480019
-0.486004
-0.492492
-0.499527
-0.507044
-0.514807
-0.437409
-0.437775
-0.438324
-0.439105
-0.44016
-0.441521
-0.443215
-0.445259
-0.447667
-0.450452
-0.453623
-0.457193
-0.461173
-0.465578
-0.470424
-0.475727
-0.481504
-0.487768
-0.494561
-0.501812
-0.509333
-0.434295
-0.43468
-0.435233
-0.436003
-0.437032
-0.438352
-0.439987
-0.441956
-0.444273
-0.446948
-0.449993
-0.453419
-0.457238
-0.461464
-0.466112
-0.4712
-0.476742
-0.482753
-0.48927
-0.49622
-0.503457
-0.431115
-0.431516
-0.432069
-0.432823
-0.43382
-0.435092
-0.436662
-0.438548
-0.440764
-0.44332
-0.446228
-0.449496
-0.453139
-0.457168
-0.4616
-0.46645
-0.471733
-0.477463
-0.483672
-0.490288
-0.4972
-0.427875
-0.428289
-0.428838
-0.429573
-0.430533
-0.431751
-0.433249
-0.435045
-0.437152
-0.439579
-0.442338
-0.445437
-0.448889
-0.452707
-0.456904
-0.461495
-0.466495
-0.471917
-0.477787
-0.484037
-0.490583
-0.424583
-0.425007
-0.425549
-0.42626
-0.427179
-0.428337
-0.429758
-0.431456
-0.433446
-0.435736
-0.438336
-0.441255
-0.444503
-0.448094
-0.452039
-0.456353
-0.461047
-0.466135
-0.471638
-0.477491
-0.483633
-0.421246
-0.421677
-0.42221
-0.422894
-0.423767
-0.424861
-0.426198
-0.427793
-0.429659
-0.431804
-0.434235
-0.436963
-0.439996
-0.443346
-0.447024
-0.451041
-0.45541
-0.460141
-0.465252
-0.470678
-0.476379
-0.417873
-0.418309
-0.418829
-0.419482
-0.420306
-0.421332
-0.42258
-0.424067
-0.425802
-0.427794
-0.43005
-0.432577
-0.435385
-0.438481
-0.441876
-0.445582
-0.449606
-0.453958
-0.458654
-0.463627
-0.468852
-0.414472
-0.41491
-0.415414
-0.416033
-0.416805
-0.417759
-0.418915
-0.420289
-0.421888
-0.423721
-0.425794
-0.428113
-0.430684
-0.433516
-0.436617
-0.439996
-0.443659
-0.447614
-0.451873
-0.45637
-0.461088
-0.41105
-0.411488
-0.411974
-0.412557
-0.413274
-0.414153
-0.415214
-0.416469
-0.417929
-0.419598
-0.421481
-0.423584
-0.425912
-0.42847
-0.431265
-0.434305
-0.437592
-0.441134
-0.444939
-0.448938
-0.453123
-0.407617
-0.408052
-0.408518
-0.409063
-0.409722
-0.410524
-0.411486
-0.412621
-0.413936
-0.415437
-0.417126
-0.419007
-0.421084
-0.423361
-0.425842
-0.428532
-0.431432
-0.434546
-0.437882
-0.441365
-0.444995
-0.445382
-0.451368
-0.458156
-0.453637
-0.442764
-0.420238
-0.393324
-0.364991
-0.343301
-0.331439
-0.332236
-0.34343
-0.435935
-0.440904
-0.44672
-0.441849
-0.431436
-0.41027
-0.385559
-0.359952
-0.341242
-0.332325
-0.33577
-0.349046
-0.426491
-0.430388
-0.435247
-0.430002
-0.420045
-0.400218
-0.37769
-0.354788
-0.339035
-0.333021
-0.339041
-0.354313
-0.417094
-0.41987
-0.423789
-0.418151
-0.408641
-0.390127
-0.369753
-0.349524
-0.336692
-0.333526
-0.342038
-0.359212
-0.407787
-0.409397
-0.4124
-0.40635
-0.397277
-0.380043
-0.361786
-0.344188
-0.334227
-0.333841
-0.344753
-0.363726
-0.398613
-0.399016
-0.401131
-0.394649
-0.386
-0.37001
-0.353824
-0.338804
-0.331654
-0.333967
-0.347176
-0.367842
-0.389607
-0.38877
-0.39003
-0.3831
-0.374859
-0.36007
-0.345902
-0.333398
-0.328983
-0.333904
-0.349301
-0.371552
-0.380802
-0.378699
-0.379141
-0.371749
-0.363899
-0.350265
-0.338052
-0.327992
-0.326227
-0.333654
-0.351123
-0.374848
-0.372231
-0.36884
-0.368506
-0.360638
-0.353161
-0.340632
-0.330306
-0.322608
-0.323396
-0.333217
-0.352638
-0.377728
-0.363916
-0.359225
-0.35816
-0.349807
-0.342684
-0.331207
-0.322692
-0.317265
-0.3205
-0.332596
-0.353846
-0.380192
-0.355882
-0.349881
-0.348137
-0.339289
-0.332501
-0.32202
-0.315233
-0.311978
-0.317547
-0.331793
-0.354746
-0.382241
-0.348143
-0.340834
-0.338462
-0.329115
-0.322643
-0.313099
-0.307952
-0.306762
-0.314544
-0.33081
-0.35534
-0.383881
-0.340716
-0.332101
-0.329158
-0.319309
-0.313132
-0.304467
-0.300865
-0.301639
-0.311488
-0.32965
-0.355632
-0.385119
-0.333608
-0.323698
-0.320241
-0.309889
-0.303988
-0.296143
-0.293983
-0.296608
-0.308395
-0.328316
-0.355627
-0.385965
-0.326827
-0.315636
-0.311725
-0.300871
-0.295226
-0.288139
-0.287319
-0.291676
-0.305269
-0.326811
-0.355332
-0.386429
-0.320375
-0.30792
-0.303616
-0.292263
-0.286856
-0.280461
-0.280907
-0.286829
-0.302109
-0.325139
-0.354754
-0.386525
-0.314255
-0.300555
-0.295919
-0.284071
-0.278881
-0.273113
-0.274726
-0.282098
-0.298919
-0.323305
-0.353902
-0.386267
-0.308465
-0.293539
-0.288633
-0.276296
-0.271298
-0.266108
-0.268771
-0.277482
-0.295699
-0.321314
-0.352787
-0.38567
-0.303002
-0.28687
-0.281756
-0.268934
-0.264103
-0.259453
-0.263046
-0.272977
-0.292453
-0.31917
-0.351417
-0.38475
-0.297863
-0.280541
-0.275282
-0.261969
-0.257302
-0.253121
-0.257566
-0.268581
-0.289183
-0.31688
-0.349805
-0.383524
-0.293045
-0.274545
-0.2692
-0.255388
-0.250926
-0.247085
-0.252317
-0.264292
-0.285889
-0.31445
-0.347963
-0.382008
-0.288544
-0.268872
-0.263497
-0.249205
-0.244907
-0.241382
-0.247288
-0.260109
-0.282574
-0.311887
-0.345903
-0.380221
-0.284358
-0.263499
-0.258163
-0.243452
-0.239204
-0.235997
-0.242474
-0.25603
-0.279241
-0.309199
-0.343637
-0.378178
-0.409546
-0.280484
-0.258397
-0.253217
-0.238047
-0.233867
-0.230912
-0.237868
-0.252052
-0.275892
-0.306393
-0.34118
-0.375899
-0.407376
-0.276921
-0.253576
-0.248619
-0.233
-0.22887
-0.226115
-0.233466
-0.248173
-0.272531
-0.303479
-0.338545
-0.3734
-0.404959
-0.273681
-0.249208
-0.244184
-0.228303
-0.224191
-0.221595
-0.229259
-0.244393
-0.269163
-0.300465
-0.335745
-0.370698
-0.402315
-0.270765
-0.245107
-0.240089
-0.223934
-0.219814
-0.217343
-0.225242
-0.240709
-0.265791
-0.297363
-0.332796
-0.367812
-0.399458
-0.268135
-0.241274
-0.236318
-0.219877
-0.215727
-0.213346
-0.221409
-0.237123
-0.262423
-0.294183
-0.329711
-0.364759
-0.396434
-0.26575
-0.237718
-0.232837
-0.216122
-0.211918
-0.209596
-0.217754
-0.233634
-0.259064
-0.290934
-0.326505
-0.361557
-0.393253
-0.263689
-0.234438
-0.229633
-0.212662
-0.208373
-0.206081
-0.214273
-0.230244
-0.25572
-0.28763
-0.323192
-0.35822
-0.389921
-0.261944
-0.231431
-0.226696
-0.209485
-0.205084
-0.202794
-0.210961
-0.226953
-0.2524
-0.284282
-0.319787
-0.354765
-0.386453
-0.260509
-0.228699
-0.224017
-0.206586
-0.202038
-0.199727
-0.207814
-0.223764
-0.249111
-0.280902
-0.316305
-0.351205
-0.382864
-0.259383
-0.226246
-0.221588
-0.203956
-0.199229
-0.196873
-0.204831
-0.22068
-0.24586
-0.2775
-0.312758
-0.347555
-0.379166
-0.258559
-0.224077
-0.2194
-0.20159
-0.19665
-0.194226
-0.202008
-0.217701
-0.242655
-0.274089
-0.30916
-0.343828
-0.375373
-0.258025
-0.222197
-0.217449
-0.199484
-0.194294
-0.19178
-0.199345
-0.214832
-0.239503
-0.27068
-0.305524
-0.340035
-0.371494
-0.257766
-0.220616
-0.215729
-0.197633
-0.192158
-0.189531
-0.196839
-0.212074
-0.236412
-0.267282
-0.30186
-0.336187
-0.36754
-0.257761
-0.219341
-0.214235
-0.196035
-0.190239
-0.187477
-0.19449
-0.209431
-0.233389
-0.263906
-0.298181
-0.332294
-0.363518
-0.257981
-0.21838
-0.212965
-0.194685
-0.188533
-0.185614
-0.192298
-0.206905
-0.230438
-0.260561
-0.294495
-0.328365
-0.359437
-0.258389
-0.217741
-0.211915
-0.193581
-0.187041
-0.183941
-0.190263
-0.204497
-0.227567
-0.257252
-0.29081
-0.324407
-0.355302
-0.380555
-0.258938
-0.21743
-0.211082
-0.192719
-0.18576
-0.182457
-0.188385
-0.202211
-0.224778
-0.253988
-0.287134
-0.320426
-0.351118
-0.37624
-0.259571
-0.217449
-0.210464
-0.192096
-0.184692
-0.18116
-0.186666
-0.200048
-0.222076
-0.250773
-0.283473
-0.316427
-0.346889
-0.371852
-0.260217
-0.217795
-0.210057
-0.191706
-0.183836
-0.180052
-0.185105
-0.198011
-0.219465
-0.247611
-0.27983
-0.312413
-0.342618
-0.367393
-0.260795
-0.218453
-0.209859
-0.191545
-0.183191
-0.179131
-0.183704
-0.1961
-0.216946
-0.244506
-0.276208
-0.308384
-0.338306
-0.362864
-0.261209
-0.219396
-0.209868
-0.191607
-0.182756
-0.178398
-0.182465
-0.194317
-0.214522
-0.241458
-0.272606
-0.304338
-0.333953
-0.358264
-0.261349
-0.220585
-0.210078
-0.191883
-0.18253
-0.177853
-0.18139
-0.192666
-0.212195
-0.23847
-0.269029
-0.300278
-0.329558
-0.353599
-0.261081
-0.221954
-0.21047
-0.192352
-0.182498
-0.17749
-0.180482
-0.191156
-0.209981
-0.235562
-0.265498
-0.296229
-0.325138
-0.348904
-0.260288
-0.223407
-0.211024
-0.192997
-0.182652
-0.177301
-0.179732
-0.189778
-0.207871
-0.232724
-0.262005
-0.292179
-0.320716
-0.344167
-0.258983
-0.224998
-0.211854
-0.193924
-0.183072
-0.177322
-0.179121
-0.188457
-0.205733
-0.229775
-0.258322
-0.287858
-0.316123
-0.339104
-0.256888
-0.226847
-0.213063
-0.195242
-0.183841
-0.177631
-0.178724
-0.187245
-0.203581
-0.226674
-0.25436
-0.283131
-0.311132
-0.333616
-0.251667
-0.227305
-0.213503
-0.196005
-0.184302
-0.177992
-0.178794
-0.186905
-0.202656
-0.225085
-0.252092
-0.280207
-0.307586
-0.329835
-0.344074
-0.234495
-0.223238
-0.211218
-0.194586
-0.18287
-0.177147
-0.178407
-0.18698
-0.203049
-0.225696
-0.252719
-0.280666
-0.307784
-0.328555
-0.341038
-0.225972
-0.219278
-0.209428
-0.194371
-0.183587
-0.178888
-0.180596
-0.18892
-0.203905
-0.224567
-0.248658
-0.27267
-0.295618
-0.3135
-0.322811
-0.221333
-0.215195
-0.206767
-0.193743
-0.184256
-0.180535
-0.182609
-0.190493
-0.204095
-0.222477
-0.243739
-0.265817
-0.283985
-0.298031
-0.304273
-0.217707
-0.210751
-0.203108
-0.192295
-0.184264
-0.18135
-0.183587
-0.190861
-0.202984
-0.219091
-0.23756
-0.255991
-0.271182
-0.281898
-0.285568
-0.213263
-0.205819
-0.198564
-0.18983
-0.183306
-0.181059
-0.183269
-0.189784
-0.200346
-0.214146
-0.229599
-0.244866
-0.257163
-0.265072
-0.266677
-0.207551
-0.200279
-0.193288
-0.186313
-0.181225
-0.179541
-0.181588
-0.18725
-0.196227
-0.207797
-0.220562
-0.23285
-0.242503
-0.248088
-0.24812
-0.200648
-0.194084
-0.187442
-0.181869
-0.178048
-0.176845
-0.178654
-0.183438
-0.190901
-0.200404
-0.210745
-0.220438
-0.227791
-0.231493
-0.230364
-0.19284
-0.1873
-0.181169
-0.176694
-0.173921
-0.17313
-0.174681
-0.178627
-0.184717
-0.192362
-0.200573
-0.208061
-0.213472
-0.215664
-0.213682
-0.184447
-0.180054
-0.17458
-0.170976
-0.169034
-0.168589
-0.169901
-0.173093
-0.177974
-0.184014
-0.190384
-0.196023
-0.199821
-0.200805
-0.198196
-0.175743
-0.172486
-0.167757
-0.164866
-0.163567
-0.163408
-0.164518
-0.167057
-0.170894
-0.175572
-0.180397
-0.184501
-0.186971
-0.18699
-0.183917
-0.166933
-0.164721
-0.160765
-0.158477
-0.157675
-0.157747
-0.158694
-0.160683
-0.163638
-0.167182
-0.170729
-0.173569
-0.174954
-0.174204
-0.17079
-0.158158
-0.156864
-0.153658
-0.151894
-0.15148
-0.151735
-0.152558
-0.154097
-0.156321
-0.158927
-0.161427
-0.163238
-0.163744
-0.162386
-0.158726
-0.14951
-0.148999
-0.146487
-0.145185
-0.145079
-0.145481
-0.14621
-0.147388
-0.149015
-0.150854
-0.152505
-0.153483
-0.153286
-0.151454
-0.147625
-0.141049
-0.141191
-0.139301
-0.138405
-0.13855
-0.139069
-0.139729
-0.140621
-0.141767