/*--------------------------------*- C++ -*----------------------------------*\
  =========                 |
  \\      /  F ield         | OpenFOAM: The Open Source CFD Toolbox
   \\    /   O peration     | Website:  https://openfoam.org
    \\  /    A nd           | Version:  7
     \\/     M anipulation  |
\*---------------------------------------------------------------------------*/
FoamFile
{
    version     2.0;
    format      ascii;
    class       surfaceScalarField;
    location    "300";
    object      phi;
}
// * * * * * * * * * * * * * * * * * * * * * * * * * * * * * * * * * * * * * //

dimensions      [0 3 -1 0 0 0 0];

internalField   nonuniform List<scalar> 
13997
(
-1.37709e-05
-0.000221853
0.000226743
-1.96575e-05
-0.000248948
0.000254835
-2.64903e-05
-0.000269459
0.000276292
-3.42162e-05
-0.000284188
0.000291914
-4.27832e-05
-0.00029398
0.000302547
-5.21428e-05
-0.000299682
0.000309042
-6.22533e-05
-0.000302091
0.000312202
-7.30806e-05
-0.000301919
0.000312746
-8.45997e-05
-0.000299755
0.000311274
-9.6795e-05
-0.000296045
0.000308241
-0.000109661
-0.000291072
0.000303938
-0.000123202
-0.000284955
0.000298496
-0.000137433
-0.000277651
0.000291881
-0.000152379
-0.000268964
0.00028391
-0.000168077
-0.000258561
0.000274258
-0.000184572
-0.000245984
0.000262479
-0.000201921
-0.000230658
0.000248007
-0.000220189
-0.0002119
0.000230167
-0.000239445
-0.000188922
0.000208178
-0.000259755
-0.000160837
0.000181147
-0.000126573
0.000148012
-0.000281194
-1.46237e-05
-0.000216707
-2.07833e-05
-0.000242788
-2.78978e-05
-0.000262345
-3.59091e-05
-0.000276176
-4.47625e-05
-0.000285127
-5.44098e-05
-0.000290035
-6.48107e-05
-0.00029169
-7.59347e-05
-0.000290795
-8.77612e-05
-0.000287929
-0.00010028
-0.000283526
-0.000113492
-0.000277861
-0.000127406
-0.000271041
-0.000142044
-0.000263013
-0.000157436
-0.000253571
-0.000173624
-0.000242373
-0.000190658
-0.00022895
-0.000208596
-0.000212719
-0.000227504
-0.000192992
-0.000247449
-0.000168976
-0.000268492
-0.000139794
-0.000104367
-0.000290698
-1.54095e-05
-0.000211327
-2.18153e-05
-0.000236383
-2.91804e-05
-0.00025498
-3.74417e-05
-0.000267915
-4.65416e-05
-0.000276027
-5.64312e-05
-0.000280145
-6.70714e-05
-0.00028105
-7.84342e-05
-0.000279432
-9.05025e-05
-0.00027586
-0.000103271
-0.000270758
-0.000116743
-0.000264389
-0.000130934
-0.000256849
-0.00014587
-0.000248077
-0.000161583
-0.000237858
-0.00017812
-0.000225837
-0.000195531
-0.000211539
-0.000213878
-0.000194373
-0.000233223
-0.000173646
-0.000253632
-0.000148568
-0.000275158
-0.000118268
-8.16726e-05
-0.000297853
-1.61284e-05
-0.000205736
-2.27537e-05
-0.000229757
-3.03389e-05
-0.000247394
-3.88152e-05
-0.000259439
-4.81221e-05
-0.00026672
-5.82093e-05
-0.000270058
-6.90381e-05
-0.000270221
-8.05822e-05
-0.000267888
-9.2827e-05
-0.000263616
-0.00010577
-0.000257816
-0.000119418
-0.00025074
-0.000133789
-0.000242478
-0.000148911
-0.000232955
-0.000164821
-0.000221948
-0.000181563
-0.000209095
-0.00019919
-0.000193911
-0.000217762
-0.000175801
-0.00023734
-0.000154068
-0.000257983
-0.000127925
-0.000279737
-9.65136e-05
-5.87696e-05
-0.000302641
-1.67807e-05
-0.000199955
-2.35995e-05
-0.000222939
-3.13748e-05
-0.000239619
-4.00321e-05
-0.000250782
-4.95073e-05
-0.000257245
-5.97483e-05
-0.000259817
-7.07162e-05
-0.000259253
-8.23851e-05
-0.000256219
-9.4742e-05
-0.000251259
-0.000107785
-0.000244772
-0.000121525
-0.000237001
-0.00013598
-0.000228023
-0.000151179
-0.000217756
-0.000167158
-0.000205969
-0.000183962
-0.000192291
-0.000201644
-0.00017623
-0.000220258
-0.000157186
-0.000239863
-0.000134463
-0.000260511
-0.000107277
-0.000282238
-7.4786e-05
-3.59398e-05
-0.000305068
-1.73677e-05
-0.000194008
-2.43548e-05
-0.000215952
-3.22912e-05
-0.000231683
-4.10965e-05
-0.000241976
-5.07027e-05
-0.000247639
-6.10552e-05
-0.000249465
-7.21139e-05
-0.000248195
-8.38526e-05
-0.00024448
-9.62586e-05
-0.000238853
-0.000109331
-0.0002317
-0.000123079
-0.000223253
-0.000137523
-0.000213579
-0.000152689
-0.00020259
-0.000168614
-0.000190044
-0.000185339
-0.000175565
-0.000202913
-0.000158655
-0.000221388
-0.000138711
-0.000240816
-0.000115036
-0.000261241
-8.68517e-05
-0.00028269
-5.3337e-05
-1.34619e-05
-0.000305168
-1.78914e-05
-0.000187914
-2.50225e-05
-0.00020882
-3.30921e-05
-0.000223613
-4.20139e-05
-0.000233054
-5.17152e-05
-0.000237937
-6.21386e-05
-0.000239041
-7.32419e-05
-0.000237091
-8.49976e-05
-0.000232725
-9.73919e-05
-0.000226458
-0.000110423
-0.000218669
-0.0001241
-0.000209576
-0.000138439
-0.00019924
-0.000153467
-0.000187562
-0.000169215
-0.000174296
-0.000185723
-0.000159058
-0.000203032
-0.000141346
-0.00022119
-0.000120553
-0.000240241
-9.59851e-05
-0.00026022
-6.68722e-05
-0.000281144
-3.24135e-05
8.39262e-06
-0.000302998
-1.83543e-05
-0.000181693
-2.56062e-05
-0.000201569
-3.37827e-05
-0.000215437
-4.2791e-05
-0.000224046
-5.25538e-05
-0.000228175
-6.30096e-05
-0.000228585
-7.41136e-05
-0.000225987
-8.58358e-05
-0.000221002
-9.81605e-05
-0.000214134
-0.000111084
-0.000205746
-0.000124611
-0.000196048
-0.000138758
-0.000185093
-0.000153545
-0.000172776
-0.000168999
-0.000158842
-0.000185154
-0.000142903
-0.000202046
-0.000124454
-0.000219714
-0.000102885
-0.000238194
-7.75054e-05
-0.000257512
-4.75542e-05
-0.000277671
-1.22538e-05
2.93621e-05
-0.000298641
-1.87595e-05
-0.000175364
-2.61105e-05
-0.000194217
-3.43691e-05
-0.000207178
-4.3436e-05
-0.000214979
-5.32285e-05
-0.000218382
-6.36808e-05
-0.000218133
-7.47443e-05
-0.000214924
-8.63858e-05
-0.000209361
-9.85862e-05
-0.000201933
-0.000111338
-0.000192994
-0.000124644
-0.000182743
-0.000138512
-0.000171225
-0.00015296
-0.000158328
-0.000168009
-0.000143793
-0.000183683
-0.000127229
-0.000200011
-0.000108125
-0.000217024
-8.58728e-05
-0.000234747
-5.97819e-05
-0.000253197
-2.91038e-05
-0.000272366
6.9148e-06
4.91984e-05
-0.000292202
-1.91104e-05
-0.000168945
-2.65404e-05
-0.000186788
-3.48583e-05
-0.00019886
-4.39579e-05
-0.00020588
-5.37509e-05
-0.000208589
-6.41665e-05
-0.000207717
-7.51514e-05
-0.000203939
-8.66684e-05
-0.000197844
-9.86938e-05
-0.000189908
-0.000111216
-0.000180472
-0.000124231
-0.000169728
-0.000137742
-0.000157713
-0.00015176
-0.00014431
-0.000166296
-0.000129257
-0.000181368
-0.000112158
-0.000196994
-9.24991e-05
-0.000213195
-6.9672e-05
-0.000229986
-4.29902e-05
-0.000247374
-1.17158e-05
-0.000265338
2.48788e-05
6.76695e-05
-0.00028381
-1.9411e-05
-0.000162452
-2.69014e-05
-0.000179297
-3.52576e-05
-0.000190504
-4.43666e-05
-0.000196771
-5.41336e-05
-0.000198822
-6.44823e-05
-0.000197369
-7.53541e-05
-0.000193067
-8.67065e-05
-0.000186492
-9.85106e-05
-0.000178104
-0.000110748
-0.000168234
-0.00012341
-0.000157066
-0.000136492
-0.000144631
-0.000149994
-0.000130808
-0.00016392
-0.000115331
-0.000178276
-9.78014e-05
-0.000193071
-7.7704e-05
-0.000208314
-5.4429e-05
-0.000224011
-2.72937e-05
-0.000240155
4.42885e-06
-0.000256717
4.14404e-05
8.4563e-05
-0.00027361
-1.96655e-05
-0.0001559
-2.71994e-05
-0.000171763
-3.55754e-05
-0.000182128
-4.46727e-05
-0.000187673
-5.439e-05
-0.000189105
-6.46448e-05
-0.000187114
-7.53727e-05
-0.000182339
-8.65248e-05
-0.000175339
-9.8066e-05
-0.000166563
-0.000109971
-0.000156329
-0.000122223
-0.000144814
-0.000134808
-0.000132046
-0.000147718
-0.000117899
-0.000160944
-0.000102105
-0.000174482
-8.42634e-05
-0.000188328
-6.3858e-05
-0.000202479
-4.02777e-05
-0.000216931
-1.28426e-05
-0.000231666
1.91644e-05
-0.000246645
5.64197e-05
9.96872e-05
-0.00026177
-1.98786e-05
-2.74409e-05
-0.000164201
-3.58199e-05
-0.000173749
-4.48871e-05
-0.000178606
-5.4534e-05
-0.000179458
-6.46714e-05
-0.000176976
-7.52282e-05
-0.000171783
-8.6149e-05
-0.000164419
-9.73909e-05
-0.000155321
-0.000108921
-0.000144799
-0.000120713
-0.000133023
-0.000132743
-0.000120015
-0.000144992
-0.00010565
-0.000157439
-8.96577e-05
-0.000170066
-7.16363e-05
-0.000182856
-5.10674e-05
-0.000195795
-2.73389e-05
-0.000208866
2.2778e-07
-0.000222043
3.23417e-05
-0.000235279
6.96562e-05
0.000112874
-0.000248466
-2.76326e-05
-0.000156623
-3.60002e-05
-0.000165381
-4.50212e-05
-0.000169585
-5.45797e-05
-0.0001699
-6.45796e-05
-0.000166976
-7.49424e-05
-0.00016142
-8.56052e-05
-0.000153756
-9.6517e-05
-0.000144409
-0.000107636
-0.00013368
-0.000118925
-0.000121734
-0.00013035
-0.00010859
-0.000141878
-9.41218e-05
-0.000153476
-7.80597e-05
-0.000165112
-6.00009e-05
-0.000176754
-3.94255e-05
-0.000188374
-1.5719e-05
-0.000199944
1.17979e-05
-0.000211432
4.38295e-05
-0.000222785
8.10095e-05
0.000123979
-0.00023389
-2.77812e-05
-0.000149042
-3.61249e-05
-0.000157038
-4.5086e-05
-0.000160624
-5.45412e-05
-0.000160444
-6.43869e-05
-0.000157131
-7.45368e-05
-0.00015127
-8.49199e-05
-0.000143373
-9.54763e-05
-0.000133852
-0.000106154
-0.000123002
-0.000116905
-0.000110983
-0.000127684
-9.78116e-05
-0.000138442
-8.33632e-05
-0.000149133
-6.73687e-05
-0.000159708
-4.94256e-05
-0.000170122
-2.9012e-05
-0.000180332
-5.50944e-06
-0.000190299
2.17649e-05
-0.000199984
5.35149e-05
-0.000209335
9.03604e-05
0.000132882
-0.000218238
-2.7893e-05
-0.000141466
-3.62023e-05
-0.000148728
-4.50923e-05
-0.000151734
-5.44321e-05
-0.000151105
-6.41102e-05
-0.000147453
-7.40324e-05
-0.000141348
-8.41188e-05
-0.000133286
-9.43001e-05
-0.000123671
-0.000104513
-0.000112789
-0.000114699
-0.000100797
-0.000124798
-8.77129e-05
-0.000134748
-7.34134e-05
-0.000144485
-5.76315e-05
-0.000153945
-3.99658e-05
-0.000163065
-1.98919e-05
-0.000171789
3.21418e-06
-0.000180067
3.0043e-05
-0.000187856
6.13039e-05
-0.000195106
9.76104e-05
0.000139488
-0.000201712
-2.79734e-05
-0.000133903
-3.62399e-05
-0.000140462
-4.505e-05
-0.000142924
-5.4265e-05
-0.00014189
-6.37656e-05
-0.000137952
-7.34491e-05
-0.000131664
-8.32265e-05
-0.000123509
-9.30184e-05
-0.000113879
-0.000102751
-0.000103056
-0.000112352
-9.11957e-05
-0.000121747
-7.83176e-05
-0.00013086
-6.43009e-05
-0.000139608
-4.8883e-05
-0.00014791
-3.16635e-05
-0.000155687
-1.21158e-05
-0.000162865
1.03923e-05
-0.000169385
3.65636e-05
-0.000175202
6.7121e-05
-0.000180274
0.000102682
0.000143725
-0.000184511
-2.80272e-05
-0.00012636
-3.62444e-05
-0.000132245
-4.49679e-05
-0.0001342
-5.40514e-05
-0.000132806
-6.33675e-05
-0.000128636
-7.2805e-05
-0.000122226
-8.22656e-05
-0.000114048
-9.16594e-05
-0.000104485
-0.000100901
-9.38148e-05
-0.000109905
-8.2192e-05
-0.000118582
-6.96404e-05
-0.000126838
-5.60443e-05
-0.000134575
-4.1146e-05
-0.000141691
-2.45476e-05
-0.000148088
-5.7194e-06
-0.000153677
1.59814e-05
-0.000158389
4.12757e-05
-0.000162177
7.09091e-05
-0.000165011
0.000105516
0.000145543
-0.000166829
-2.80589e-05
-0.000118843
-3.62216e-05
-0.000124082
-4.48538e-05
-0.000125568
-5.38013e-05
-0.000123859
-6.29287e-05
-0.000119509
-7.21163e-05
-0.000113039
-8.12561e-05
-0.000104909
-9.02478e-05
-9.54938e-05
-9.8994e-05
-8.50687e-05
-0.000107395
-7.37905e-05
-0.000115348
-6.16877e-05
-0.000122741
-4.86517e-05
-0.000129455
-3.44317e-05
-0.000135369
-1.86334e-05
-0.000140365
-7.23634e-07
-0.000144337
1.99539e-05
-0.000147206
4.41447e-05
-0.000148926
7.26286e-05
-0.000149483
0.000106074
0.00014491
-0.00014885
-2.80722e-05
-3.61765e-05
-0.000115978
-4.4714e-05
-0.000117031
-5.35228e-05
-0.00011505
-6.24596e-05
-0.000110572
-7.13961e-05
-0.000104102
-8.02149e-05
-9.60898e-05
-8.8805e-05
-8.69037e-05
-9.70568e-05
-7.68169e-05
-0.000104858
-6.59898e-05
-0.000112087
-5.44579e-05
-0.000118617
-4.21221e-05
-0.000124308
-2.87406e-05
-0.000129018
-1.39239e-05
-0.000132606
2.86464e-06
-0.00013495
2.22975e-05
-0.000135957
4.51522e-05
-0.000135585
7.22561e-05
-0.000133841
0.00010433
0.00014181
-0.000130742
-3.61127e-05
-0.000107935
-4.45533e-05
-0.00010859
-5.32222e-05
-0.000106381
-6.19682e-05
-0.000101826
-7.06546e-05
-9.54159e-05
-7.91548e-05
-8.75896e-05
-8.73472e-05
-7.87113e-05
-9.51103e-05
-6.90538e-05
-0.000102318
-5.87825e-05
-0.000108833
-4.79424e-05
-0.000114509
-3.64459e-05
-0.000119187
-2.40626e-05
-0.000122701
-1.041e-05
-0.000124888
5.05175e-06
-0.000125605
2.30142e-05
-0.000124747
4.42945e-05
-0.000122274
6.97829e-05
-0.000118221
0.000100277
0.00013624
-0.000112652
-3.60325e-05
-9.99567e-05
-4.43747e-05
-0.000100248
-5.29031e-05
-9.78525e-05
-6.14592e-05
-9.32697e-05
-6.98982e-05
-8.69769e-05
-7.80843e-05
-7.94035e-05
-8.58857e-05
-7.09099e-05
-9.31691e-05
-6.17704e-05
-9.97944e-05
-5.21572e-05
-0.00010561
-4.21269e-05
-0.000110449
-3.16063e-05
-0.000114133
-2.03793e-05
-0.00011647
-8.07252e-06
-0.000117274
5.85585e-06
-0.000116379
2.21187e-05
-0.000113665
4.1581e-05
-0.000109095
6.52129e-05
-0.000102734
9.3916e-05
0.000128207
-9.47012e-05
-3.59368e-05
-9.20455e-05
-4.41786e-05
-9.2006e-05
-5.25665e-05
-8.94646e-05
-6.09342e-05
-8.4902e-05
-6.91291e-05
-7.87821e-05
-7.70066e-05
-7.1526e-05
-8.44251e-05
-6.34914e-05
-9.12401e-05
-5.49554e-05
-9.72981e-05
-4.60992e-05
-0.000102432
-3.69931e-05
-0.000106457
-2.75814e-05
-0.000109171
-1.76652e-05
-0.00011036
-6.88381e-06
-0.000109809
5.30495e-06
-0.000107327
1.96367e-05
-0.000102778
3.70321e-05
-9.6125e-05
5.856e-05
-8.74667e-05
8.52577e-05
0.000117723
-7.69818e-05
-3.58242e-05
-4.39639e-05
-8.38663e-05
-5.22106e-05
-8.12179e-05
-6.03911e-05
-7.67216e-05
-6.83449e-05
-7.08282e-05
-7.59195e-05
-6.39514e-05
-8.29637e-05
-5.64472e-05
-8.93222e-05
-4.85969e-05
-9.48289e-05
-4.05924e-05
-9.93015e-05
-3.25205e-05
-0.000102537
-2.43458e-05
-0.000104312
-1.58905e-05
-0.000104386
-6.81012e-06
-0.000102515
3.43452e-06
-9.84806e-05
1.56021e-05
-9.21251e-05
3.06766e-05
-8.34107e-05
4.98456e-05
-7.24713e-05
7.43183e-05
0.000104802
-5.95507e-05
-4.37269e-05
-7.58316e-05
-5.18309e-05
-7.31139e-05
-5.98241e-05
-6.87284e-05
-6.75389e-05
-6.31133e-05
-7.48149e-05
-5.66754e-05
-8.14922e-05
-4.97699e-05
-8.74052e-05
-4.26839e-05
-9.2376e-05
-3.56217e-05
-9.62077e-05
-2.86888e-05
-9.86801e-05
-2.18734e-05
-9.95473e-05
-1.50232e-05
-9.85427e-05
-7.8147e-06
-9.53925e-05
2.84299e-07
-8.98445e-05
1.00541e-05
-8.17162e-05
2.25483e-05
-7.09653e-05
3.90947e-05
-5.77649e-05
6.11179e-05
8.947e-05
-4.2433e-05
-4.34614e-05
-6.79063e-05
-5.14196e-05
-6.51557e-05
-5.92236e-05
-6.09244e-05
-6.66993e-05
-5.56376e-05
-7.36788e-05
-4.9696e-05
-7.99939e-05
-4.34547e-05
-8.54697e-05
-3.72081e-05
-8.9917e-05
-3.11743e-05
-9.31256e-05
-2.54802e-05
-9.48583e-05
-2.01408e-05
-9.48481e-05
-1.50334e-05
-9.28014e-05
-9.86135e-06
-8.84118e-05
-4.10535e-06
-8.13906e-05
3.0329e-06
-7.15238e-05
1.26814e-05
-5.87592e-05
2.63301e-05
-4.33228e-05
4.56816e-05
7.17903e-05
-2.56431e-05
-4.31594e-05
-6.00964e-05
-5.09659e-05
-5.73491e-05
-5.85762e-05
-5.33141e-05
-6.58094e-05
-4.84044e-05
-7.24907e-05
-4.30147e-05
-7.84443e-05
-3.75012e-05
-8.34864e-05
-3.2166e-05
-8.74177e-05
-2.72431e-05
-9.00154e-05
-2.28825e-05
-9.10265e-05
-1.91296e-05
-9.01638e-05
-1.58961e-05
-8.71068e-05
-1.29184e-05
-8.15144e-05
-9.69775e-06
-7.30569e-05
-5.42453e-06
-6.14795e-05
1.10397e-06
-4.67062e-05
1.15569e-05
-2.90381e-05
2.80135e-05
5.21157e-05
-9.36364e-06
-4.28102e-05
-5.04566e-05
-4.97028e-05
-5.78648e-05
-4.59058e-05
-6.4848e-05
-4.14212e-05
-7.12245e-05
-3.66382e-05
-7.68114e-05
-3.19143e-05
-8.14168e-05
-2.75606e-05
-8.48318e-05
-2.3828e-05
-8.68225e-05
-2.08918e-05
-8.71214e-05
-1.88307e-05
-8.54217e-05
-1.75957e-05
-8.1377e-05
-1.69632e-05
-7.46105e-05
-1.64643e-05
-6.47464e-05
-1.52886e-05
-5.14767e-05
-1.21656e-05
-3.46761e-05
-5.24376e-06
-1.46284e-05
7.96577e-06
2.97714e-05
7.71594e-06
-4.98755e-05
-4.22289e-05
-5.70692e-05
-3.87121e-05
-6.37895e-05
-3.47009e-05
-6.98485e-05
-3.05792e-05
-7.50562e-05
-2.67066e-05
-7.92132e-05
-2.34036e-05
-8.2102e-05
-2.09392e-05
-8.34782e-05
-1.95156e-05
-8.30613e-05
-1.92476e-05
-8.0527e-05
-2.01301e-05
-7.55036e-05
-2.19865e-05
-6.7579e-05
-2.43889e-05
-5.6328e-05
-2.65397e-05
-4.13794e-05
-2.71142e-05
-2.25192e-05
-2.4104e-05
2.77243e-07
-1.48307e-05
4.80895e-06
2.52397e-05
-4.92042e-05
-3.49442e-05
-5.61658e-05
-3.17505e-05
-6.26045e-05
-2.82623e-05
-6.83258e-05
-2.48578e-05
-7.31332e-05
-2.18992e-05
-7.68198e-05
-1.9717e-05
-7.91601e-05
-1.8599e-05
-7.99002e-05
-1.87754e-05
-7.87482e-05
-2.03996e-05
-7.53638e-05
-2.35145e-05
-6.93524e-05
-2.79979e-05
-6.02678e-05
-3.34735e-05
-4.7635e-05
-3.91725e-05
-3.10148e-05
-4.37345e-05
-1.01517e-05
-4.4967e-05
1.47343e-05
-3.97167e-05
-2.33689e-05
4.29121e-05
-4.84228e-05
-2.78697e-05
-5.51287e-05
-2.50445e-05
-6.126e-05
-2.2131e-05
-6.66155e-05
-1.95024e-05
-7.09914e-05
-1.75232e-05
-7.41738e-05
-1.65347e-05
-7.59291e-05
-1.68436e-05
-7.59951e-05
-1.87095e-05
-7.40693e-05
-2.23255e-05
-6.97977e-05
-2.77861e-05
-6.27656e-05
-3.503e-05
-5.24952e-05
-4.37439e-05
-3.84627e-05
-5.32051e-05
-2.01575e-05
-6.20396e-05
2.76257e-06
-6.7887e-05
3.01782e-05
-6.71323e-05
-5.44531e-05
6.12625e-05
-4.75092e-05
-5.39301e-05
-1.86237e-05
-5.97209e-05
-1.63402e-05
-6.46732e-05
-1.45501e-05
-6.85758e-05
-1.36206e-05
-7.12069e-05
-1.39036e-05
-7.23252e-05
-1.57252e-05
-7.16601e-05
-1.93745e-05
-6.88999e-05
-2.50857e-05
-6.36791e-05
-3.30069e-05
-5.55659e-05
-4.31432e-05
-4.40549e-05
-5.52549e-05
-2.85762e-05
-6.86838e-05
-8.54569e-06
-8.20701e-05
1.64838e-05
-9.29165e-05
4.64978e-05
-9.71464e-05
-8.8579e-05
8.06237e-05
-5.25409e-05
-1.2524e-05
-5.79504e-05
-1.09307e-05
-6.24527e-05
-1.00478e-05
-6.58284e-05
-1.02449e-05
-6.78473e-05
-1.18847e-05
-6.82598e-05
-1.53128e-05
-6.67867e-05
-2.08476e-05
-6.31079e-05
-2.87645e-05
-5.68483e-05
-3.92666e-05
-4.75625e-05
-5.24289e-05
-3.47228e-05
-6.80946e-05
-1.77188e-05
-8.56878e-05
4.1051e-06
-0.000103894
3.13077e-05
-0.000120119
6.40064e-05
-0.000129845
-0.000125916
0.000101343
-5.09322e-05
-6.78823e-06
-5.5911e-05
-5.9519e-06
-5.99068e-05
-6.05202e-06
-6.26904e-05
-7.46127e-06
-6.4022e-05
-1.05531e-05
-6.36425e-05
-1.56924e-05
-6.12638e-05
-2.32262e-05
-5.65576e-05
-3.34707e-05
-4.91407e-05
-4.66835e-05
-3.85581e-05
-6.30116e-05
-2.42655e-05
-8.23871e-05
-5.61984e-06
-0.000104333
1.80974e-05
-0.000127611
4.75612e-05
-0.000149583
8.30427e-05
-0.000165327
-0.000166645
0.000123772
-4.9075e-05
-5.35662e-05
-1.46072e-06
-5.69892e-05
-2.62899e-06
-5.91038e-05
-5.34669e-06
-5.96588e-05
-9.99809e-06
-5.83843e-05
-1.69669e-05
-5.49822e-05
-2.66284e-05
-4.91154e-05
-3.93374e-05
-4.03939e-05
-5.5405e-05
-2.83566e-05
-7.50489e-05
-1.245e-05
-9.82938e-05
7.99068e-06
-0.000124774
3.37383e-05
-0.000153359
6.55766e-05
-0.000181421
0.000103949
-0.000203699
-0.000210944
0.000148248
-5.08804e-05
2.47803e-06
-5.36553e-05
1.45981e-07
-5.5013e-05
-3.98906e-06
-5.4689e-05
-1.0322e-05
-5.24006e-05
-1.92553e-05
-4.78381e-05
-3.11909e-05
-4.06548e-05
-4.65207e-05
-3.04544e-05
-6.56054e-05
-1.67729e-05
-8.87304e-05
9.45428e-07
-0.000116012
2.33747e-05
-0.000147203
5.13241e-05
-0.000181308
8.56753e-05
-0.000215772
0.000127052
-0.000245075
-0.000258975
0.000175082
-4.78211e-05
5.79251e-06
-4.9864e-05
2.18885e-06
-5.03668e-05
-3.48629e-06
-4.90495e-05
-1.16393e-05
-4.56143e-05
-2.26905e-05
-3.97375e-05
-3.70676e-05
-3.10618e-05
-5.51964e-05
-1.91844e-05
-7.74828e-05
-3.64083e-06
-0.000104274
1.61194e-05
-0.000135772
4.07662e-05
-0.00017185
7.11242e-05
-0.000211666
0.000108151
-0.000252799
0.000152647
-0.000289571
-0.000310864
0.000204536
-4.43593e-05
-4.55787e-05
3.40829e-06
-4.512e-05
-3.94502e-06
-4.2685e-05
-1.40743e-05
-3.79582e-05
-2.74173e-05
-3.05999e-05
-4.44259e-05
-2.02398e-05
-6.55565e-05
-6.46819e-06
-9.12545e-05
1.11778e-05
-0.00012192
3.32372e-05
-0.000157832
6.03614e-05
-0.000198974
9.33658e-05
-0.000244671
0.000133253
-0.000292686
0.000180982
-0.0003373
-0.000366695
0.000236813
-4.0769e-05
3.70684e-06
-3.9235e-05
-5.47898e-06
-3.55501e-05
-1.77592e-05
-2.93782e-05
-3.35892e-05
-2.0361e-05
-5.34431e-05
-8.11329e-06
-7.78042e-05
7.78273e-06
-0.00010715
2.77872e-05
-0.000141925
5.24218e-05
-0.000182466
8.23059e-05
-0.000228859
0.000118219
-0.000280584
0.000161169
-0.000335636
0.000212238
-0.00038837
-0.000426496
0.000272039
-3.54107e-05
-3.26826e-05
-8.20702e-06
-2.76101e-05
-2.28318e-05
-1.9834e-05
-4.13653e-05
-8.97494e-06
-6.43021e-05
5.36933e-06
-9.21485e-05
2.3626e-05
-0.000125407
4.62521e-05
-0.000164551
7.37475e-05
-0.000209962
0.000106687
-0.000261798
0.000145788
-0.000319685
0.000192015
-0.000381863
0.000246526
-0.000442881
-0.000490227
0.000310258
-2.54433e-05
-1.2251e-05
-1.88425e-05
-2.94325e-05
-9.301e-06
-5.09068e-05
3.58407e-06
-7.71872e-05
2.02339e-05
-0.000108798
4.10866e-05
-0.00014626
6.65958e-05
-0.00019006
9.72364e-05
-0.000240602
0.000133528
-0.00029809
0.000176102
-0.000362258
0.000225827
-0.000431589
0.000283873
-0.000500927
-0.000557776
0.000351422
-1.75068e-05
-9.23731e-06
-3.7702e-05
2.22958e-06
-6.23737e-05
1.73216e-05
-9.22793e-05
3.64806e-05
-0.000127957
6.01564e-05
-0.000169936
8.87996e-05
-0.000218703
0.000122858
-0.000274661
0.00016279
-0.000338021
0.000209115
-0.000408584
0.00026256
-0.000485033
0.000324228
-0.000562596
-0.000628949
0.000395401
1.20347e-06
-4.7778e-05
1.4751e-05
-7.59212e-05
3.22237e-05
-0.000109752
5.40844e-05
-0.000149818
8.07956e-05
-0.000196647
0.000112805
-0.000250713
0.000150534
-0.00031239
0.000194371
-0.000381859
0.000244714
-0.000458926
0.000302089
-0.000542409
0.000367466
-0.000627972
-0.000703471
0.000441988
1.2466e-05
-5.97936e-05
2.82419e-05
-9.16972e-05
4.82577e-05
-0.000129768
7.29973e-05
-0.000174558
0.000102936
-0.000226585
0.000138518
-0.000286295
0.000180138
-0.00035401
0.000228118
-0.000429838
0.000282718
-0.000513526
0.000344227
-0.000603917
0.000413403
-0.000697149
-0.000780983
0.000490916
2.45259e-05
4.26677e-05
-0.000109839
6.53745e-05
-0.000152475
9.31505e-05
-0.000202334
0.000126482
-0.000259916
0.000165812
-0.000325625
0.000211508
-0.000399706
0.000263828
-0.000482158
0.000322896
-0.000572594
0.000388731
-0.000669753
0.000461822
-0.000770239
-0.000861043
0.000541881
5.79818e-05
-0.000130471
8.35106e-05
-0.000178003
0.000114458
-0.000233281
0.000151318
-0.000296777
0.000194533
-0.00036884
0.000244447
-0.00044962
0.000301258
-0.000538969
0.000364968
-0.000636303
0.000435319
-0.000740104
0.000512489
-0.00084741
-0.000943116
0.000594562
7.4128e-05
0.00010259
-0.000206466
0.000136817
-0.000267507
0.000177309
-0.000337269
0.000224503
-0.000416034
0.000278726
-0.000503842
0.000340131
-0.000600374
0.000408611
-0.000704784
0.000483666
-0.000815159
0.000565138
-0.000928882
-0.00102667
0.000648688
0.000122529
-0.000237952
0.000160115
-0.000305093
0.000204304
-0.000381458
0.000255525
-0.000467256
0.000314092
-0.000562409
0.000380136
-0.000666418
0.000453489
-0.000778137
0.000533468
-0.000895138
0.000619422
-0.00101484
-0.00111144
0.000704201
0.000143233
0.000184229
-0.000346089
0.000232139
-0.000429368
0.00028738
-0.000522497
0.000350259
-0.000625288
0.000420918
-0.000737077
0.000499246
-0.000856465
0.000584623
-0.000980515
0.000675335
-0.00110555
-0.00119737
0.000761255
0.00020903
0.000260641
-0.000480978
0.000319834
-0.00058169
0.000386902
-0.000692356
0.000462027
-0.000812202
0.000545311
-0.000939749
0.000636859
-0.00107206
0.00073484
-0.00120353
-0.00128157
0.000819049
0.000289632
-0.000536224
0.000352642
-0.0006447
0.000423673
-0.000763387
0.000502916
-0.000891445
0.000590639
-0.00102747
0.000687633
-0.00116906
0.000797234
-0.00131313
-0.00143726
0.00095292
0.000318932
0.000385561
-0.00071133
0.00046023
-0.000838056
0.00054306
-0.000974274
0.000634281
-0.00111869
0.000734796
-0.00126957
0.000846999
-0.00142533
-0.00157446
0.000984195
0.000418369
-0.000781328
0.000496282
-0.000915969
0.000582083
-0.00106008
0.000675774
-0.00121238
0.00077776
-0.00137156
0.000888678
-0.00153625
-0.00169999
0.00101421
0.000450857
0.000531585
-0.000996697
0.000619734
-0.00114823
0.000714997
-0.00130765
0.000817195
-0.00147376
0.000925843
-0.0016449
-0.0018168
0.00104266
0.000565925
0.000655819
-0.00123812
0.000751891
-0.00140372
0.000853457
-0.00157532
0.000959349
-0.00175079
-0.00192675
0.0010693
0.000690168
-0.00132918
0.000786383
-0.00149993
0.000886671
-0.00167561
0.000989477
-0.0018536
-0.00203094
0.00109366
0.000722621
0.000818379
-0.00159569
0.000916859
-0.00177409
0.00101632
-0.00195306
-0.00212993
0.00111532
0.000847779
0.000943996
-0.00187031
0.00103989
-0.00204896
-0.00222401
0.00113397
0.000968035
0.00106015
-0.00214107
-0.0023133
0.00114943
0.00107709
-0.00222923
-0.00239783
0.00116162
0.0010907
-0.00247764
0.00117051
0.00117617
0.00300939
0.00121839
0.00117229
0.00278905
0.00295315
0.00122853
0.00110837
0.00253991
0.00117597
0.00272145
0.00289249
0.00123662
0.00110501
0.00246141
0.00117719
0.00264927
0.00282715
0.00124253
0.00101621
0.0021773
0.00109897
0.00237865
0.00117583
0.00257241
0.00275685
0.00124614
0.000912821
0.00187967
0.00100329
0.00208683
0.00109018
0.00229177
0.00117178
0.00249081
0.00268126
0.00124737
0.00089434
0.00178552
0.00098776
0.00199341
0.00107859
0.00220094
0.00116495
0.00240444
0.00259998
0.00124623
0.00077813
0.00148663
0.000873713
0.00168994
0.000969654
0.00189747
0.00106415
0.00210645
0.00115524
0.00231334
0.00251244
0.00124278
0.000661265
0.00120192
0.000754611
0.00139328
0.000851094
0.00159346
0.000949042
0.00179952
0.00104683
0.00200867
0.00114252
0.00221765
0.00241774
0.00123722
0.000637132
0.00111456
0.000729869
0.00130054
0.000826665
0.00149666
0.00092601
0.00170018
0.00102656
0.00190812
0.00112656
0.00211765
0.00231439
0.00122991
0.000526974
0.000862149
0.000612561
0.00102897
0.000704162
0.00120894
0.000800645
0.00140018
0.000900671
0.00160015
0.00100321
0.00180557
0.00110694
0.00201393
0.00219989
0.00122144
0.000504392
0.000785913
0.000587814
0.000945551
0.000677769
0.00111899
0.000773299
0.00130465
0.000873191
0.00150026
0.000976504
0.00170226
0.00108211
0.00190832
0.00206926
0.00121274
0.000408739
0.000575068
0.00048224
0.000712412
0.000563152
0.00086464
0.000650993
0.00103115
0.000744955
0.00121069
0.000843895
0.00140132
0.00094668
0.00159948
0.00104989
0.00180511
0.00197872
0.00114043
0.000327097
0.000397035
0.000390132
0.000512033
0.000460721
0.000641822
0.000538837
0.000786524
0.000624158
0.000945825
0.000716016
0.00111883
0.000813311
0.00130402
0.000914532
0.00149825
0.00101708
0.00170256
0.00188386
0.00111195
0.000312347
0.000344075
0.000372453
0.000451927
0.000440006
0.000574269
0.000515106
0.000711424
0.000597579
0.000863352
0.000686905
0.0010295
0.000782117
0.00120881
0.00088168
0.00139869
0.000984131
0.00160011
0.00178688
0.00108111
0.000248328
0.00020627
0.000298613
0.000293791
0.000355789
0.000394751
0.000420237
0.000509822
0.000492164
0.000639496
0.000571539
0.000783977
0.000657999
0.000943042
0.000750777
0.00111603
0.000848472
0.001301
0.000950152
0.00149843
0.00168826
0.00104876
0.000238219
0.000164667
0.000285906
0.000246104
0.000340191
0.000340465
0.000401514
0.000448499
0.000470178
0.000570833
0.000546276
0.00070788
0.000629606
0.000859711
0.000719606
0.00102603
0.000815081
0.00120552
0.000915358
0.00139815
0.0015885
0.00101513
0.000189577
6.11153e-05
0.00022902
0.000125224
0.000274208
0.000200916
0.000325674
0.000288999
0.0003839
0.000390273
0.000449264
0.000505469
0.000521972
0.000635172
0.000601972
0.000779712
0.000688897
0.000939108
0.000781803
0.00111262
0.000880207
0.00129975
0.00148831
0.000980392
0.000183263
2.85802e-05
0.000220667
8.78202e-05
0.000263472
0.000158111
0.000312217
0.000240255
0.000367412
0.000335078
0.000429493
0.000443388
0.000498758
0.000565906
0.000575294
0.000703176
0.000658915
0.000855487
0.000748945
0.00102259
0.000845074
0.00120362
0.00138849
0.000944896
0.000146646
-4.72354e-05
0.000177591
-2.36442e-06
0.000213079
5.23314e-05
0.000253627
0.000117563
0.000299768
0.000194113
0.000352029
0.000282817
0.000410885
0.000384531
0.000476712
0.000500079
0.000549714
0.000630175
0.00062987
0.000775331
0.000716768
0.000935689
0.000810269
0.00111012
0.00128974
0.000909015
0.000143
-7.2917e-05
0.000172463
-3.18274e-05
0.000206158
1.86364e-05
0.000244579
7.91428e-05
0.000288247
0.000150445
0.000337693
0.000233371
0.00039342
0.000328805
0.00045586
0.00043764
0.000525315
0.000560719
0.000601911
0.000698735
0.000685482
0.000852118
0.000776059
0.00101954
0.0011927
0.000873104
0.000139697
-9.74849e-05
0.000167778
-5.99085e-05
0.000199796
-1.33808e-05
0.000236218
4.27205e-05
0.00027755
0.000109112
0.000324317
0.000186604
0.000377035
0.000276087
0.000436178
0.000378497
0.000502127
0.00049477
0.000575131
0.000625731
0.000655243
0.000772007
0.000742668
0.000932115
0.00109789
0.000837473
0.000113117
-0.000147255
0.000136642
-0.000121011
0.00016343
-8.66967e-05
0.000193877
-4.38273e-05
0.000228425
8.17242e-06
0.000267559
6.99786e-05
0.00031179
0.000142373
0.000361638
0.000226238
0.000417604
0.000322531
0.000480129
0.000432245
0.000549565
0.000556295
0.000626152
0.00069542
0.00071026
0.000848007
0.00100577
0.000802383
0.0001112
-0.000167088
0.000133742
-0.000143553
0.000159314
-0.000112269
0.000188286
-7.27992e-05
0.000221075
-2.46166e-05
0.000258142
3.29117e-05
0.000299982
0.000100534
0.00034711
0.00017911
0.00040004
0.000269602
0.000459257
0.000373028
0.000525196
0.000490356
0.000598252
0.000622364
0.000678943
0.000767315
0.000916675
0.000768038
9.02149e-05
-0.000200064
0.000109303
-0.000186176
0.000130909
-0.000165158
0.000155329
-0.000136689
0.00018291
-0.00010038
0.000214043
-5.57503e-05
0.000249167
-2.21215e-06
0.000288757
6.09441e-05
0.000333316
0.000134551
0.000383362
0.000219555
0.000439412
0.000316978
0.000501962
0.000427806
0.000571533
0.000552794
0.000648765
0.000690083
0.000830865
0.000734575
8.89919e-05
-0.000216322
0.000107356
-0.00020454
0.00012806
-0.000185862
0.00015138
-0.000160009
0.000177639
-0.00012664
0.000207209
-8.532e-05
0.000240502
-3.55054e-05
0.000277974
2.34727e-05
0.000320112
9.24123e-05
0.000367434
0.000172233
0.00042047
0.000263942
0.000479768
0.000368508
0.00054594
0.000486622
0.000619718
0.000616306
0.000748541
0.000702041
8.76463e-05
-0.000232017
0.000105298
-0.000222192
0.000125123
-0.000205686
0.000147381
-0.000182267
0.000172377
-0.000151636
0.00020046
-0.000113403
0.000232022
-6.70675e-05
0.000267497
-1.20019e-05
0.000307356
5.25528e-05
0.000352108
0.000127482
0.000402293
0.000213757
0.000458491
0.00031231
0.000521383
0.000423729
0.000591763
0.000545926
0.000669821
0.000670483
7.10075e-05
-0.000248831
8.61325e-05
-0.000247142
0.000103073
-0.000239132
0.000122033
-0.000224646
0.000143257
-0.000203492
0.000167035
-0.000175414
0.000193696
-0.000140064
0.000223613
-9.69841e-05
0.000257199