/*--------------------------------*- C++ -*----------------------------------*\
  =========                 |
  \\      /  F ield         | OpenFOAM: The Open Source CFD Toolbox
   \\    /   O peration     | Website:  https://openfoam.org
    \\  /    A nd           | Version:  7
     \\/     M anipulation  |
\*---------------------------------------------------------------------------*/
FoamFile
{
    version     2.0;
    format      ascii;
    class       volScalarField;
    location    "260";
    object      p;
}
// * * * * * * * * * * * * * * * * * * * * * * * * * * * * * * * * * * * * * //

dimensions      [0 2 -2 0 0 0 0];

internalField   nonuniform List<scalar> 
7156
(
-0.148663
-0.164749
-0.152505
-0.140573
-0.168635
-0.156039
-0.144051
-0.132364
-0.172851
-0.159496
-0.147195
-0.135473
-0.124041
-0.17736
-0.163262
-0.150216
-0.138223
-0.126775
-0.115606
-0.198341
-0.182197
-0.167295
-0.153526
-0.140803
-0.129127
-0.117963
-0.107065
-0.204542
-0.187413
-0.171628
-0.157077
-0.143649
-0.131259
-0.119911
-0.109039
-0.0984198
-0.211252
-0.193054
-0.176309
-0.160898
-0.146712
-0.133636
-0.121591
-0.110581
-0.10001
-0.0896761
-0.218521
-0.199169
-0.181382
-0.165036
-0.150014
-0.136205
-0.123495
-0.111805
-0.101142
-0.0908806
-0.0808385
-0.226398
-0.205808
-0.186894
-0.169534
-0.153603
-0.138984
-0.125564
-0.113231
-0.101907
-0.0916006
-0.0816562
-0.0719124
-0.234918
-0.213016
-0.192893
-0.174435
-0.157518
-0.142017
-0.127814
-0.114796
-0.102851
-0.091903
-0.081963
-0.0723434
-0.0629035
-0.244091
-0.220832
-0.199424
-0.179786
-0.161801
-0.145343
-0.130286
-0.116511
-0.103908
-0.0923622
-0.0818009
-0.072236
-0.0629488
-0.0538185
-0.229265
-0.206525
-0.185632
-0.166497
-0.149001
-0.133016
-0.118417
-0.105085
-0.0929081
-0.0817725
-0.071608
-0.0624272
-0.05348
-0.0446648
-0.238278
-0.214209
-0.192011
-0.17165
-0.153035
-0.136044
-0.120547
-0.10642
-0.0935421
-0.0818036
-0.0710894
-0.061332
-0.0525442
-0.043945
-0.0354512
-0.247741
-0.222442
-0.198937
-0.177299
-0.15749
-0.139411
-0.122939
-0.107945
-0.0943019
-0.0818915
-0.0706027
-0.0603209
-0.050981
-0.0425955
-0.0343528
-0.0261881
-0.257383
-0.231102
-0.206381
-0.183461
-0.162404
-0.143162
-0.125636
-0.109698
-0.0952189
-0.0820727
-0.0701412
-0.0593135
-0.049475
-0.0405635
-0.0325899
-0.0247134
-0.0168877
-0.266724
-0.239931
-0.21423
-0.190109
-0.167795
-0.147336
-0.128679
-0.111719
-0.096329
-0.0823782
-0.0697409
-0.0582997
-0.047944
-0.0385599
-0.030088
-0.0225363
-0.0150375
-0.00756499
-0.275008
-0.248463
-0.222235
-0.197139
-0.173642
-0.151952
-0.132109
-0.114052
-0.0976732
-0.0828434
-0.0694326
-0.0573154
-0.0463752
-0.0365023
-0.0275835
-0.019563
-0.012444
-0.00533645
0.00176173
-0.255962
-0.229948
-0.204313
-0.179846
-0.156993
-0.135948
-0.116737
-0.0992943
-0.083509
-0.0692516
-0.0563919
-0.0448051
-0.0343762
-0.024996
-0.0165534
-0.0089965
-0.00232148
0.00437691
0.0110671
-0.261381
-0.236653
-0.211199
-0.186183
-0.162368
-0.14018
-0.119795
-0.101231
-0.0844172
-0.0692381
-0.0555643
-0.0432659
-0.0322193
-0.0223108
-0.0134326
-0.00547668
0.00160422
0.00782332
0.0140889
0.020319
-0.263387
-0.241324
-0.217102
-0.192237
-0.167864
-0.144723
-0.123218
-0.10351
-0.0856077
-0.0694341
-0.0548724
-0.0417924
-0.0300646
-0.0195669
-0.0101871
-0.00181915
0.00564053
0.012233
0.0179845
0.0237886
0.0294876
-0.242645
-0.221018
-0.197332
-0.17308
-0.149374
-0.126928
-0.106123
-0.0871072
-0.0698794
-0.054358
-0.0404241
-0.0279471
-0.0167984
-0.00685711
0.00198698
0.00983785
0.0167927
0.0228847
0.02816
0.0334755
0.0385481
-0.239145
-0.221651
-0.200487
-0.177363
-0.15375
-0.130734
-0.109
-0.0889119
-0.0706018
-0.0540607
-0.0392021
-0.0259055
-0.0140399
-0.00347759
0.00590069
0.0142034
0.0215322
0.0279748
0.0335564
0.0383564
0.0431562
0.0474291
-0.229523
-0.217541
-0.20043
-0.179755
-0.157218
-0.134268
-0.111961
-0.0909579
-0.0716011
-0.0540097
-0.0381662
-0.0239801
-0.0113291
-8.24238e-05
0.00988706
0.018697
0.0264543
0.0332578
0.0391831
0.0442523
0.0485968
0.0528221
0.0559275
-0.207393
-0.195713
-0.179007
-0.158846
-0.136921
-0.114655
-0.0930761
-0.0728196
-0.0542077
-0.0373466
-0.0222107
-0.00870577
0.00329201
0.0139134
0.0232845
0.0315218
0.0387312
0.045008
0.0504158
0.0549881
0.0589218
0.062445
0.0638037
-0.190505
-0.185049
-0.173688
-0.157408
-0.137784
-0.116492
-0.0949316
-0.0740986
-0.0546035
-0.036749
-0.0206285
-0.00620913
0.00660697
0.0179449
0.0279352
0.0367035
0.0443648
0.0510245
0.0567747
0.0616712
0.0657807
0.0693498
0.072008
0.0714264
-0.167715
-0.162518
-0.151492
-0.135658
-0.116593
-0.0959572
-0.0751198
-0.0550488
-0.0363282
-0.0192422
-0.00387158
0.00982333
0.0219439
0.0326161
0.0419706
0.050132
0.0572147
0.0633235
0.068548
0.0729433
0.0766205
0.0798049
0.0814195
0.0809776
-0.143577
-0.144758
-0.139828
-0.129151
-0.113784
-0.0952989
-0.0753377
-0.0552412
-0.0359466
-0.0180127
-0.00170494
0.0129076
0.0258713
0.0372905
0.0472922
0.0560067
0.063558
0.0700599
0.0756166
0.0803161
0.0842176
0.0874606
0.0902273
0.0913095
0.0914026
-0.120143
-0.121663
-0.117007
-0.106694
-0.0918115
-0.0739255
-0.0546573
-0.0353175
-0.0168124
0.000324255
0.0158452
0.0296927
0.0419193
0.0526322
0.0619593
0.0700304
0.076969
0.0828882
0.0878917
0.0920669
0.0954775
0.0982758
0.100601
0.101274
0.101471
-0.0965999
-0.098459
-0.094084
-0.0841481
-0.069767
-0.052498
-0.0339395
-0.0153705
0.0023334
0.0186636
0.0333904
0.046467
0.0579518
0.0679545
0.0766036
0.0840287
0.0903525
0.0956874
0.100137
0.103788
0.106708
0.109054
0.110938
0.111242
0.111339
-0.0729767
-0.075174
-0.0710865
-0.0615407
-0.0476771
-0.0310415
-0.0132077
0.00457782
0.0214705
0.0369864
0.050913
0.0632139
0.073953
0.0832425
0.0912112
0.0979883
0.103696
0.108445
0.11234
0.115466
0.117895
0.119784
0.121225
0.121167
0.121074
-0.049303
-0.0518375
-0.0480434
-0.0388996
-0.0255683
-0.00958101
0.00751459
0.0245055
0.0405783
0.0552735
0.068395
0.0799166
0.0899074
0.0984814
0.105768
0.111896
0.116986
0.12115
0.124489
0.127089
0.129025
0.130452
0.13145
0.131022
0.130682
-0.0256083
-0.0284784
-0.0249836
-0.0162527
-0.00346698
0.0118584
0.0282039
0.0443907
0.0596365
0.0735058
0.0858187
0.0965585
0.105799
0.113657
0.12026
0.125738
0.130211
0.133788
0.136571
0.138646
0.140088
0.141049
0.1416
0.140793
0.140169
-0.00192214
-0.00512618
-0.00193559
0.00637239
0.0186003
0.0332516
0.0488368
0.0642115
0.0786247
0.0916643
0.103166
0.113123
0.121612
0.128753
0.134674
0.139502
0.143358
0.146349
0.148576
0.150125
0.151071
0.151565
0.151665
0.15047
0.149537
0.0217259
0.0181901
0.0210719
0.0289479
0.040607
0.0545739
0.0693899
0.0839461
0.0975224
0.10973
0.12042
0.129593
0.137332
0.143756
0.148995
0.153175
0.156413
0.15882
0.160492
0.161516
0.161966
0.161989
0.161637
0.160048
0.158789
0.0453064
0.0414414
0.0440102
0.0514461
0.0625269
0.0758002
0.0898399
0.103573
0.116309
0.127684
0.137561
0.145952
0.152941
0.158651
0.163209
0.166742
0.169366
0.171189
0.172308
0.172807
0.17276
0.172313
0.171507
0.16952
0.167923
0.0687899
0.0645984
0.066851
0.0738397
0.0843338
0.096906
0.110164
0.12307
0.134966
0.145507
0.154574
0.162183
0.168426
0.173423
0.177304
0.180192
0.182204
0.183445
0.184013
0.183988
0.183447
0.182528
0.181267
0.17888
0.176936
0.0921472
0.0876325
0.0895658
0.0961012
0.106002
0.117867
0.130339
0.142416
0.153471
0.163181
0.171439
0.178271
0.18377
0.188058
0.191264
0.193511
0.194914
0.195577
0.195596
0.19505
0.194015
0.192626
0.190912
0.188124
0.185825
0.115349
0.110515
0.112127
0.118203
0.127505
0.138658
0.150341
0.16159
0.171806
0.180687
0.18814
0.194199
0.198958
0.202542
0.205077
0.206688
0.207485
0.207574
0.207046
0.205983
0.204456
0.202598
0.200432
0.197245
0.194588
0.138367
0.133217
0.134505
0.14012
0.148817
0.159256
0.17015
0.180571
0.18995
0.198006
0.20466
0.20995
0.213975
0.21686
0.21873
0.219708
0.219905
0.219423
0.218354
0.216776
0.214762
0.212438
0.209823
0.206239
0.20322
0.161172
0.15571
0.156674
0.161823
0.169914
0.179637
0.189742
0.199338
0.207884
0.215122
0.220981
0.225509
0.228806
0.230998
0.232209
0.232561
0.232163
0.231116
0.22951
0.227422
0.224923
0.222138
0.219077
0.2151
0.211716
0.183737
0.177967
0.178607
0.183288
0.19077
0.199777
0.209095
0.21787
0.22559
0.232014
0.237087
0.24086
0.243437
0.244942
0.245501
0.245233
0.244246
0.24264
0.240503
0.23791
0.234932
0.231689
0.228187
0.223821
0.206032
0.199959
0.200275
0.204487
0.211361
0.219653
0.228188
0.236147
0.243047
0.248667
0.252962
0.255988
0.257852
0.258679
0.258593
0.257713
0.256144
0.253985
0.251323
0.248232
0.24478
0.241084
0.237147
0.232397
0.228031
0.221661
0.221652
0.225396
0.231662
0.239242
0.246999
0.254149
0.260238
0.265062
0.268587
0.270876
0.272038
0.272195
0.271474
0.269989
0.267846
0.265142
0.261962
0.258378
0.254459
0.250316
0.24595
0.240821
0.249707
0.243044
0.242713
0.245989
0.25165
0.258522
0.265507
0.271857
0.277144
0.281183
0.283949
0.285511
0.285979
0.285477
0.284129
0.282049
0.279341
0.276099
0.272409
0.26834
0.263961
0.259378
0.254589
0.271032
0.264082
0.263432
0.266242
0.271301
0.277471
0.283692
0.289251
0.293747
0.297011
0.299031
0.299877
0.299663
0.298513
0.296548
0.293881
0.290617
0.286848
0.282655
0.27811
0.273277
0.268261
0.263057
0.291981
0.28475
0.283782
0.28613
0.290592
0.296067
0.301533
0.306313
0.310029
0.312532
0.313817
0.31396
0.313076
0.311288
0.308717
0.305476
0.301666
0.297377
0.292692
0.287678
0.2824
0.276959
0.271348
0.312528
0.305023
0.303741
0.30563
0.309501
0.314289
0.319011
0.323023
0.325974
0.327728
0.328292
0.327745
0.326204
0.323791
0.320626
0.316821
0.312475
0.307678
0.302509
0.297037
0.291323
0.285465
0.279454
0.332647
0.324874
0.323282
0.324718
0.328005
0.332116
0.336107
0.339365
0.341564
0.342585
0.342442
0.341219
0.339034
0.336009
0.332263
0.327906
0.323036
0.317741
0.312099
0.306177
0.300037
0.293771
0.352315
0.344281
0.342383
0.343371
0.346084
0.349529
0.3528
0.355319
0.356782
0.357085
0.356251
0.354368
0.351554
0.347931
0.343617
0.33872
0.333338
0.327557
0.321453
0.315093
0.308535
0.301871
0.371508
0.363219
0.361021
0.361569
0.363715
0.366507
0.369074
0.370869
0.371613
0.371215
0.369706
0.367179
0.363751
0.359544
0.354676
0.349254
0.343372
0.337116
0.330562
0.323774
0.316811
0.309758
0.390201
0.381666
0.379173
0.379288
0.38088
0.383032
0.38491
0.385999
0.386041
0.38496
0.382794
0.379638
0.375613
0.370838
0.365431
0.359496
0.353128
0.346411
0.339419
0.332214
0.324855
0.317424
0.408373
0.399599
0.396818
0.396509
0.397558
0.399085
0.400291
0.400692
0.40005
0.398305
0.3955
0.391734
0.387128
0.381801
0.37587
0.369438
0.362598
0.355433
0.348015
0.340406
0.332663
0.426002
0.416996
0.413934
0.413211
0.41373
0.414648
0.4152
0.414932
0.413627
0.411236
0.407812
0.403455
0.398285
0.392424
0.385984
0.37907
0.371773
0.364173
0.356342
0.348341
0.340227
0.443066
0.433837
0.430501
0.429375
0.429378
0.429703
0.429621
0.428704
0.426756
0.423742
0.419717
0.414787
0.409073
0.402694
0.395764
0.388383
0.380643
0.372623
0.364394
0.356014
0.34754
0.459545
0.450101
0.446499
0.444981
0.444484
0.444235
0.443538
0.441993
0.439425
0.435807
0.431203
0.425721
0.419481
0.412603
0.405198
0.397368
0.389201
0.380776
0.372162
0.363417
0.354596
0.47542
0.46577
0.46191
0.460012
0.459031
0.458226
0.456936
0.454787
0.45162
0.447421
0.44226
0.436245
0.429499
0.42214
0.41428
0.406017
0.397439
0.388624
0.37964
0.370544
0.361389
0.490671
0.480824
0.476716
0.474451
0.473002
0.471663
0.469802
0.46707
0.463328
0.458571
0.452874
0.446349
0.439117
0.431298
0.423
0.414321
0.405349
0.39616
0.386821
0.377388
0.505281
0.495245
0.490899
0.488281
0.486382
0.484529
0.48212
0.47883
0.474537
0.469246
0.463037
0.456023
0.448327
0.440066
0.431349
0.422273
0.412924
0.403377
0.393698
0.383943
0.519232
0.509017
0.504442
0.501486
0.499156
0.496811
0.493878
0.490055
0.485236
0.479435
0.472737
0.465257
0.457118
0.448436
0.43932
0.429866
0.420157
0.410269
0.400267
0.390204
0.532508
0.522124
0.517331
0.514051
0.51131
0.508496
0.505064
0.500734
0.495414
0.489128
0.481965
0.474042
0.465482
0.456401
0.446905
0.437091
0.427042
0.41683
0.40652
0.396165
0.545094
0.53455
0.529549
0.525962
0.52283
0.519571
0.515665
0.510854
0.50506
0.498315
0.490713
0.482371
0.473412
0.463952
0.454098
0.443943
0.433571
0.423053
0.412451
0.401821
0.556975
0.546281
0.541084
0.537206
0.533705
0.530024
0.525671
0.520407
0.514166
0.506988
0.49897
0.490233
0.480899
0.471083
0.460891
0.450416
0.439739
0.428932
0.418057
0.407167
0.568138
0.557304
0.551922
0.54777
0.543921
0.539845
0.535072
0.529381
0.52272
0.515137
0.506731
0.497623
0.487937
0.477787
0.467278
0.456503
0.445541
0.434464
0.423332
0.412198
0.578569
0.567605
0.562051
0.557643
0.553468
0.549022
0.543857
0.537768
0.530716
0.522754
0.513986
0.504533
0.494519
0.484058
0.473254
0.462198
0.450971
0.439642
0.428271
0.588258
0.577174
0.57146
0.566813
0.562336
0.557547
0.552017
0.54556
0.538145
0.529833
0.520728
0.510956
0.500638
0.48989
0.478812
0.467498
0.456025
0.444462
0.43287
0.597192
0.586
0.580138
0.575272
0.570516
0.56541
0.559545
0.552749
0.545001
0.536365
0.526953
0.516887
0.50629
0.495277
0.483949
0.472396
0.460697
0.448921
0.437126
0.605363
0.594072
0.588076
0.583009
0.577999
0.572604
0.566433
0.559328
0.551275
0.542347
0.532653
0.522319
0.511469
0.500215
0.488658
0.476889
0.464985
0.453014
0.441034
0.612762
0.601383
0.595266
0.590017
0.584777
0.579122
0.572675
0.56529
0.556964
0.54777
0.537824
0.527249
0.51617
0.504699
0.492937
0.480973
0.468884
0.456737
0.444591
0.619381
0.607925
0.6017
0.59629
0.590844
0.584956
0.578264
0.570631
0.56206
0.552632
0.54246
0.531672
0.52039
0.508726
0.496782
0.484644
0.472391
0.460089
0.447795
0.625212
0.61369
0.607371
0.601819
0.596194
0.590102
0.583194
0.575344
0.566561
0.556926
0.546558
0.535583
0.524124
0.512292
0.500189
0.4879
0.475504
0.463066
0.450643
0.630251
0.618674
0.612275
0.606601
0.600822
0.594555
0.587463
0.579427
0.570461
0.560651
0.550115
0.538981
0.52737
0.515395
0.503155
0.490738
0.47822
0.465666
0.453133
0.634492
0.622871
0.616405
0.61063
0.604723
0.598311
0.591066
0.582875
0.573758
0.563802
0.553127
0.541861
0.530125
0.518031
0.505679
0.493155
0.480536
0.467886
0.455262
0.637931
0.626277
0.619759
0.613904
0.607894
0.601367
0.594
0.585686
0.576449
0.566378
0.555593
0.544222
0.532387
0.520199
0.507759
0.495151
0.482452
0.469727
0.457031
0.640567
0.628891
0.622335
0.61642
0.610334
0.603721
0.596262
0.587858
0.578533
0.568376
0.55751
0.546062
0.534155
0.521898
0.509393
0.496724
0.483966
0.471185
0.458437
0.642396
0.63071
0.624129
0.618176
0.61204
0.60537
0.597853
0.58939
0.580007
0.569796
0.558878
0.547381
0.535427
0.523127
0.51058
0.497872
0.485078
0.472262
0.459481
0.643419
0.631733
0.625143
0.619171
0.613012
0.606316
0.598771
0.590281
0.580872
0.570637
0.559696
0.548178
0.536204
0.523885
0.511321
0.498596
0.485786
0.472956
0.460161
0.643635
0.631961
0.625375
0.619407
0.61325
0.606557
0.599017
0.590532
0.581128
0.570899
0.559964
0.548452
0.536485
0.524173
0.511615
0.498896
0.486092
0.473268
0.460477
0.643047
0.631395
0.624828
0.618883
0.612756
0.606096
0.598591
0.590143
0.580776
0.570583
0.559684
0.548206
0.536272
0.523991
0.511463
0.498773
0.485996
0.473197
0.460432
0.641656
0.630038
0.623504
0.617603
0.611531
0.604934
0.597496
0.589116
0.579817
0.569691
0.558856
0.54744
0.535565
0.523341
0.510866
0.498227
0.485499
0.472746
0.460024
0.639466
0.627893
0.621405
0.61557
0.609579
0.603073
0.595733
0.587454
0.578254
0.568224
0.557483
0.546156
0.534366
0.522223
0.509826
0.49726
0.484601
0.471914
0.459255
0.636481
0.624964
0.618537
0.612787
0.606903
0.600519
0.593308
0.585159
0.57609
0.566187
0.555567
0.544357
0.532678
0.520641
0.508344
0.495874
0.483306
0.470705
0.458127
0.632707
0.621257
0.614904
0.60926
0.603508
0.597274
0.590223
0.582237
0.573328
0.563581
0.553112
0.542045
0.530503
0.518596
0.506423
0.494071
0.481615
0.46912
0.456642
0.62815
0.616777
0.610513
0.604994
0.5994
0.593344
0.586483
0.57869
0.569973
0.560412
0.550121
0.539225
0.527845
0.516093
0.504067
0.491854
0.47953
0.467161
0.454802
0.622818
0.611534
0.605371
0.599997
0.594585
0.588736
0.582095
0.574526
0.56603
0.556683
0.546599
0.5359
0.524708
0.513135
0.501278
0.489226
0.477055
0.464831
0.45261
0.616719
0.605534
0.599486
0.594276
0.58907
0.583456
0.577065
0.569749
0.561504
0.552401
0.54255
0.532075
0.521096
0.509725
0.498061
0.486191
0.474194
0.462134
0.450069
0.609863
0.598788
0.592867
0.587841
0.582865
0.577513
0.571399
0.564367
0.556402
0.547571
0.537981
0.527756
0.517014
0.505869
0.494419
0.482753
0.470949
0.459073
0.447182
0.602259
0.591305
0.585524
0.580699
0.575977
0.570913
0.565107
0.558388
0.550731
0.542199
0.532898
0.522947
0.512468
0.501571
0.490358
0.478917
0.467326
0.455651
0.443953
0.593921
0.583097
0.577469
0.572863
0.568417
0.563668
0.558197
0.551818
0.544499
0.536294
0.527307
0.517656
0.507463
0.496838
0.485883
0.474687
0.463328
0.451875
0.440385
0.42891
0.584859
0.574176
0.568712
0.564343
0.560196
0.555787
0.550677
0.544667
0.537713
0.529862
0.521215
0.51189
0.502006
0.491675
0.481
0.470069
0.458962
0.447747
0.436484
0.425224
0.575087
0.564555
0.559267
0.555151
0.551325
0.54728
0.542559
0.536946
0.530383
0.522913
0.514631
0.505655
0.496104
0.486089
0.475714
0.465068
0.454232
0.443274
0.432255
0.421226
0.56462
0.554249
0.549147
0.545301
0.541816
0.53816
0.533854
0.528663
0.522518
0.515454
0.507563
0.49896
0.489764
0.480087
0.470032
0.459691
0.449143
0.43846
0.427701
0.416919
0.553472
0.543271
0.538368
0.534807
0.531682
0.528438
0.524572
0.519829
0.514128
0.507496
0.50002
0.491813
0.482994
0.473676
0.463962
0.453944
0.443703
0.433311
0.422829
0.412309
0.541659
0.531638
0.526943
0.523683
0.520938
0.518128
0.514726
0.510457
0.505225
0.499049
0.492011
0.484223
0.475803
0.466864
0.45751
0.447834
0.437918
0.427834
0.417644
0.407402
0.529199
0.519367
0.51489
0.511945
0.509599
0.507244
0.504329
0.500558
0.495819
0.490123
0.483547
0.476199
0.468199
0.459659
0.450684
0.441368
0.431794
0.422034
0.412152
0.402202
0.516109
0.506475
0.502226
0.499608
0.497678
0.4958
0.493395
0.490145
0.485923
0.48073
0.474637
0.467752
0.460191
0.45207
0.443493
0.434555
0.425339
0.415919
0.40636
0.396717
0.387038
0.502408
0.492981
0.488968
0.486691
0.485194
0.483811
0.481937
0.479231
0.475549
0.47088
0.465293
0.45889
0.45179
0.444106
0.435944
0.427401
0.41856
0.409496
0.400275
0.390951
0.381577
0.488114
0.478903
0.475135
0.473211
0.472162
0.471294
0.469972
0.46783
0.464709
0.460587
0.455526
0.449626
0.443005
0.435777
0.428048
0.419915
0.411465
0.402771
0.393902
0.384912
0.375855
0.473249
0.464261
0.460746
0.459186
0.4586
0.458264
0.457513
0.455957
0.453418
0.449863
0.445348
0.43997
0.433847
0.427091
0.419812
0.412107
0.404062
0.395753
0.387249
0.378606
0.369878
0.457832
0.449077
0.445822
0.444636
0.444527
0.444738
0.444577
0.443626
0.44169
0.438722
0.434771
0.429935
0.424326
0.418061
0.411247
0.403984
0.396359
0.388449
0.380324
0.372041
0.363654
0.441886
0.433371
0.430383
0.429581
0.42996
0.430735
0.431181
0.430854
0.429538
0.427176
0.423809
0.419531
0.414454
0.408695
0.402363
0.395557
0.388365
0.380868
0.373134
0.365222
0.357188
0.349102
0.425433
0.417165
0.414451
0.414041
0.414921
0.416273
0.417342
0.417656
0.416979
0.41524
0.412474
0.408771
0.404243
0.399006
0.393169
0.386834
0.38009
0.373017
0.365686
0.358158
0.350487
0.342749
0.408496
0.400483
0.398048
0.398038
0.399428
0.401371
0.403077
0.404048
0.404027
0.402928
0.40078
0.397668
0.393704
0.389003
0.383676
0.377826
0.371542
0.364906
0.35799
0.350856
0.343559
0.336179
0.391098
0.383347
0.381196
0.381593
0.383503
0.386047
0.388405
0.390049
0.390698
0.390256
0.388741
0.386236
0.38285
0.378699
0.373896
0.368542
0.36273
0.356543
0.350053
0.343324
0.336411
0.329398
0.373264
0.365781
0.363919
0.364728
0.367167
0.370323
0.373345
0.375674
0.37701
0.377238
0.376371
0.374487
0.371693
0.368106
0.363838
0.358994
0.353666
0.347938
0.341884
0.335569
0.329051
0.322414
0.315653
0.355019
0.347811
0.346242
0.347468
0.350441
0.354219
0.357915
0.360943
0.362978
0.363891
0.363686
0.362435
0.360246
0.357235
0.353515
0.349191
0.344357
0.339099
0.333492
0.327601
0.321485
0.315232
0.308839
0.336387
0.329461
0.328187
0.329835
0.333348
0.337755
0.342136
0.345874
0.348619
0.35023
0.350699
0.350095
0.348523
0.346099
0.342938
0.339145
0.334815
0.330036
0.324885
0.319426
0.313721
0.307861
0.301844
0.317396
0.310757
0.309782
0.311853
0.315911
0.320953
0.326027
0.330484
0.333952
0.336272
0.337427
0.337481
0.336537
0.334711
0.332119
0.328866
0.325051
0.32076
0.316072
0.311054
0.305768
0.300308
0.294673
0.298071
0.291725
0.29105
0.293547
0.298153
0.303835
0.309609
0.314795
0.318995
0.322034
0.323885
0.324607
0.324301
0.323084
0.32107
0.318367
0.315074
0.311279
0.307063
0.302493
0.297632
0.292579
0.287335
0.281466
0.278439
0.272391
0.272018
0.274942
0.280097
0.286423
0.292903
0.298824
0.303765
0.307532
0.310089
0.311489
0.31183
0.31123
0.309803
0.307658
0.304895
0.301604
0.297867
0.293752
0.289323
0.284683
0.279835
0.274316
0.258527
0.252783
0.252713
0.256063
0.261768
0.26874
0.275929
0.282592
0.28828
0.292784
0.296055
0.298141
0.299139
0.299163
0.29833
0.296751
0.294525
0.291745
0.288493
0.284839
0.280849
0.276627
0.272181
0.267018
0.238363
0.232927
0.233161
0.236936
0.243191
0.250809
0.25871
0.266118
0.272561
0.277808
0.2818
0.284579
0.28624
0.286897
0.286665
0.285658
0.283976
0.281713
0.278952
0.275764
0.272217
0.268418
0.264378
0.259576
0.255339
0.217976
0.212852
0.213388
0.217587
0.224389
0.232653
0.241267
0.249424
0.256625
0.262621
0.26734
0.27082
0.27315
0.274445
0.274821
0.274391
0.273259
0.271517
0.269252
0.266536
0.263435
0.260063
0.256436
0.251998
0.248101
0.197393
0.192585
0.193423
0.198042
0.205388
0.214295
0.223623
0.23253
0.240492
0.247241
0.252693
0.256877
0.259882
0.261821
0.26281
0.262963
0.262384
0.261169
0.259404
0.257163
0.254513
0.251572
0.248358
0.244289
0.240732
0.176642
0.172155
0.173294
0.178328
0.186213
0.19576
0.205799
0.215457
0.224182
0.231686
0.237875
0.242768
0.246453
0.249039
0.250645
0.251385
0.251364
0.250679
0.249418
0.247655
0.245459
0.24295
0.240154
0.236454
0.233234
0.155754
0.15159
0.153027
0.158472
0.16689
0.177072
0.187819
0.198226
0.207714
0.215976
0.222903
0.228509
0.232876
0.236113
0.23834
0.23967
0.240211
0.240059
0.239304
0.238021
0.236281
0.234206
0.231829
0.228501
0.225614
0.134755
0.130918
0.13265
0.138501
0.147445
0.158255
0.169704
0.180858
0.191108
0.200128
0.207795
0.214116
0.219167
0.223059
0.225908
0.227831
0.228935
0.229319
0.229072
0.228272
0.226989
0.225349
0.223391
0.220433
0.217874
0.113676
0.110169
0.112193
0.118441
0.127903
0.139334
0.151479
0.163375
0.174385
0.184162
0.192569
0.199605
0.205342
0.209889
0.213363
0.215881
0.21755
0.218471
0.218734
0.218417
0.217591
0.216385
0.214845
0.212257
0.210017
0.0925463
0.0893707
0.0916836
0.0983214
0.108291
0.120332
0.133166
0.145797
0.157564
0.168095
0.177242
0.184992
0.191416
0.196619
0.200719
0.203832
0.206067
0.207526
0.208299
0.208466
0.208097
0.207323
0.2062
0.203977
0.202046
0.0713939
0.0685524
0.0711494
0.0781682
0.0886346
0.101275
0.114788
0.128148
0.140665
0.151948
0.161831
0.170295
0.177405
0.183263
0.187989
0.191697
0.194499
0.196495
0.197779
0.198429
0.198516
0.198173
0.197463
0.195598
0.193961
0.0502485
0.0477427
0.050619
0.0580092
0.0689603
0.082188
0.0963683
0.110448
0.123709
0.135738
0.146354
0.15553
0.163323
0.169836
0.175186
0.17949
0.182857
0.185391
0.187185
0.188318
0.188858
0.188942
0.188642
0.187126
0.185762
0.029139
0.0269704
0.0301208
0.0378717
0.0492941
0.0630951
0.0779305
0.0927189
0.106715
0.119484
0.13083
0.140713
0.149187
0.156353
0.162326
0.167223
0.171155
0.174226
0.176528
0.178142
0.179134
0.179642
0.179747
0.17857
0.177442
0.00809459
0.0062641
0.00968293
0.0177831
0.0296622
0.0440212
0.0594976
0.074983
0.0897051
0.103207
0.115275
0.125861
0.135013
0.142828
0.14942
0.154909
0.159405
0.16301
0.16582
0.167914
0.169356
0.170283
0.170789
0.169938
0.168993
-0.0128561
-0.0143479
-0.0106667
-0.00222943
0.0100907
0.0249911
0.0410928
0.0572616
0.0726985
0.0869234
0.099707
0.11099
0.120815
0.129275
0.136485
0.142562
0.147618
0.151757
0.155073
0.157646
0.159536
0.160875
0.161781
0.161255
0.160403
-0.0336843
-0.0348373
-0.0309003
-0.0221388
-0.00939436
0.00602937
0.0227393
0.0395764
0.0557154
0.0706533
0.0841441
0.0961174
0.106609
0.115709
0.123532
0.130194
0.135808
0.140478
0.144299
0.14735
0.149687
0.151432
0.152735
0.152559
0.151601
-0.0551763
-0.0509901
-0.0419182
-0.0287673
-0.0128395
0.00446007
0.021949
0.0387759
0.0544152
0.0686034
0.0812589
0.0924105
0.102146
0.110576
0.117819
0.123988
0.129186
0.133509
0.137038
0.139825
0.141966
0.143645
0.143911
0.142449
-0.0753367
-0.0709083
-0.0615405
-0.0480021
-0.031591
-0.0137219
0.00440066
0.0218999
0.0382275
0.0531023
0.0664308
0.0782346
0.0885975
0.0976299
0.105449
0.112168
0.117892
0.122715
0.126722
0.129964
0.132502
0.134535
0.135695
0.134122
-0.0906291
-0.0809804
-0.0670742
-0.0502014
-0.0317842
-0.0130474
0.00510736
0.0221089
0.0376581
0.0516492
0.0640965
0.0750796
0.0847074
0.0930967
0.100361
0.106607
0.111929
0.116413
0.12012
0.123082
0.125459
0.127399
0.127536
-0.110126
-0.100212
-0.0859582
-0.0686467
-0.0497041
-0.0303742
-0.0115823
0.00607735
0.0222877
0.03693
0.0500108
0.0616056
0.0718213
0.0807745
0.0885794
0.0953424
0.10116
0.106122
0.110297
0.113712
0.116474
0.119064
0.120747
-0.119208
-0.10463
-0.0869035
-0.0674597
-0.0475589
-0.0281498
-0.00984898
0.00700782
0.0222889
0.0359924
0.0481893
0.0589845
0.0684942
0.0768331
0.0841087
0.0904192
0.095856
0.100499
0.104377
0.107557
0.110675
0.113405
-0.123064
-0.104948
-0.0850289
-0.064581
-0.0445758
-0.0256524
-0.00816493
0.00774116
0.0220555
0.034844
0.0462096
0.0562676
0.0651333
0.0729153
0.0797134
0.085621
0.0907258
0.0950643
0.0986738
0.102259
0.105707
-0.141237
-0.122759
-0.10239
-0.0814205
-0.0608418
-0.0413153
-0.0232143
-0.00669791
0.00821424
0.021583
0.0335087
0.044106
0.0534904
0.0617717
0.069051
0.0754235
0.0809823
0.0857708
0.0898087
0.0938317
0.0978359
-0.140312
-0.119522
-0.0980573
-0.076929
-0.0568206
-0.0381242
-0.0210135
-0.00551742
0.00841926
0.020894
0.0320206
0.0419147
0.0506869
0.0584397
0.0652697
0.0712736
0.0764999
0.0809573
0.0853932
0.089866
-0.136405
-0.114472
-0.0928195
-0.0721513
-0.0528791
-0.0351909
-0.0191259
-0.00463468
0.0083772
0.0200222
0.030416
0.03967
0.0478876
0.0551663
0.0616054
0.0672572
0.0721224
0.0769451
0.0818243
-0.130646
-0.108495
-0.087291
-0.0674635
-0.049216
-0.032598
-0.0175664
-0.00403026
0.00812152
0.0190043
0.0287298
0.0374025
0.0451204
0.051984
0.058049
0.0633101
0.068498
0.0737376
-0.14656
-0.123939
-0.102223
-0.0818624
-0.0630748
-0.0459207
-0.0303639
-0.0163171
-0.0036711
0.00768905
0.0178753
0.0269925
0.0351392
0.0424165
0.0488827
0.0545286
0.0600651
0.0656352
-0.139134
-0.116933
-0.0960613
-0.0767537
-0.0590813
-0.0430153
-0.0284725
-0.0153455
-0.00352025
0.00711515
0.0166658
0.0252305
0.0329105
0.0397662
0.0457864
0.0516586
0.0575404
-0.131404
-0.110046
-0.0902394
-0.0720676
-0.0555092
-0.0404856
-0.0268916
-0.0146143
-0.00354199
0.00643059
0.0154021
0.0234736
0.0307078
0.0370924
0.0432896
0.0494701
-0.123802
-0.103519
-0.0848677
-0.0678346
-0.0523461
-0.0382999
-0.0255841
-0.0140876
-0.00370513
0.00566171
0.0141138
0.0217158
0.0284552
0.0349682
0.0414379
-0.116581
-0.0974698
-0.0799805
-0.064044
-0.0495608
-0.0364207
-0.0245132
-0.0137333
-0.00398273
0.00483893
0.0127982
0.0198834
0.0267037
0.0334551
-0.109863
-0.0919366
-0.0755694
-0.0606651
-0.0471154
-0.0348105
-0.0236459
-0.0135236
-0.00434339
0.00396297
0.0113848
0.0185045
0.0255314
-0.122036
-0.103693
-0.0869129
-0.0716041
-0.0576599
-0.0449717
-0.0334354
-0.0229533
-0.0134257
-0.00478254
0.002967
0.0103783
0.0176749
-0.115239
-0.0980655
-0.0823691
-0.0680461
-0.054989
-0.0430943
-0.0322646
-0.0224009
-0.0134312
-0.00536308
0.00233213
0.00989245
-0.109018
-0.092952
-0.0782661
-0.0648548
-0.0526154
-0.0414506
-0.0312621
-0.0219763
-0.0135989
-0.00562755
0.00219039
-0.103345
-0.0883125
-0.0745621
-0.0619917
-0.0505045
-0.0400028
-0.0304115
-0.0217342
-0.0134949
-0.00542575
-0.0981781
-0.084104
-0.0712167
-0.0594201
-0.048617
-0.0387309
-0.0297635
-0.0212644
-0.0129509
-0.0802843
-0.0681913
-0.0570987
-0.0469289
-0.0376814
-0.028931
-0.0203805
-0.0768124
-0.0654426
-0.0550003
-0.0454829
-0.0364902
-0.0277101
-0.0736437
-0.0629404
-0.0531636
-0.0439374
-0.0349358
-0.0707446
-0.0607192
-0.0512687
-0.0420539
-0.0681458
-0.0584805
-0.0490608
-0.0559532
0.0653047
0.057205
0.04873
0.0405117
0.0320522
0.0233657
0.0146274
0.0058835
-0.00286597
-0.0116028
-0.0203048
-0.0289586
-0.0375561
-0.0460899
-0.0545538
-0.0629424
-0.0712514
-0.0794767
-0.0876148
-0.0956623
-0.103616
-0.111473
-0.119231
-0.126887
-0.134439
-0.141884
0.0559099
0.0474936
0.0381794
0.029947
0.021955
0.0137759
0.00557312
-0.00253697
-0.0105684
-0.0185394
-0.026444
-0.0342751
-0.0420314
-0.0497129
-0.0573185
-0.0648468
-0.0722965
-0.0796663
-0.0869545
-0.0941597
-0.10128
-0.108315
-0.115262
-0.12212
-0.128887
-0.135564
0.0449851
0.0366801
0.0276648
0.0199695
0.0127242
0.00533601
-0.00209821
-0.00943438
-0.0166739
-0.0238501
-0.0309683
-0.0380224
-0.0450101
-0.0519317
-0.0587866
-0.0655735
-0.0722906
-0.0789364
-0.0855096
-0.0920086
-0.0984321
-0.104779
-0.111048
-0.117238
-0.123349
-0.129379
0.0342625
0.0264835
0.0182654
0.0113123
0.0047947
-0.0018592
-0.0085794
-0.0152219
-0.0217743
-0.0282669
-0.0347078
-0.041091
-0.0474121
-0.0536705
-0.0598657
-0.0659967
-0.0720622
-0.0780613
-0.0839933
-0.0898574
-0.0956532
-0.10138
-0.107038
-0.112626
-0.118145
-0.123593
0.0248737
0.0177608
0.0103705
0.00409219
-0.00181339
-0.00784254
-0.0139348
-0.0199595
-0.0258997
-0.0317809
-0.0376121
-0.0433887
-0.0491068
-0.0547659
-0.0603662
-0.0659076
-0.0713894
-0.0768114
-0.0821732
-0.0874749
-0.0927162
-0.0978971
-0.103017
-0.108077
-0.113077
-0.118016
0.0168166
0.0103109
0.00365895
-0.00203037
-0.00740718
-0.0128872
-0.0184157
-0.0238811
-0.0292679
-0.0345978
-0.0398798
-0.0451108
-0.0502879
-0.0554108
-0.0604801
-0.0654959
-0.0704583
-0.0753671
-0.0802223
-0.0850242
-0.0897729
-0.0944684
-0.099111
-0.103701
-0.108238
-0.112724
0.00986238
0.00389732
-0.0020848
-0.00723259
-0.0121249
-0.0171035
-0.0221161
-0.0270696
-0.031952
-0.0367819
-0.0415674
-0.0463062
-0.0509963
-0.0556375
-0.0602306
-0.0647758
-0.0692735
-0.0737237
-0.0781267
-0.0824827
-0.0867921