/*--------------------------------*- C++ -*----------------------------------*\
  =========                 |
  \\      /  F ield         | OpenFOAM: The Open Source CFD Toolbox
   \\    /   O peration     | Website:  https://openfoam.org
    \\  /    A nd           | Version:  7
     \\/     M anipulation  |
\*---------------------------------------------------------------------------*/
FoamFile
{
    version     2.0;
    format      ascii;
    class       surfaceScalarField;
    location    "260";
    object      phi;
}
// * * * * * * * * * * * * * * * * * * * * * * * * * * * * * * * * * * * * * //

dimensions      [0 3 -1 0 0 0 0];

internalField   nonuniform List<scalar> 
13974
(
-0.00336311
-0.000215766
-0.000193011
-0.00320661
-0.000214697
-0.00327315
-0.00334099
-0.000236821
-0.000190282
-0.00312067
-0.000212325
-0.00318456
-0.000234797
-0.00325067
-0.00331808
-0.000257701
-0.000186292
-0.00303773
-0.000208636
-0.00309833
-0.000231463
-0.00316174
-0.000254719
-0.00322742
-0.0032944
-0.000278403
-0.000181142
-0.00295822
-0.000203694
-0.00301518
-0.000226808
-0.00307521
-0.000250418
-0.00313813
-0.00027446
-0.00320337
-0.00326994
-0.000298922
-0.000152887
-0.00283162
-0.000174937
-0.00288222
-0.000197614
-0.00293555
-0.000220912
-0.00299188
-0.000244794
-0.00305133
-0.000269186
-0.00311373
-0.000294015
-0.00317854
-0.0032447
-0.000319255
-0.000145619
-0.00276192
-0.000167748
-0.00280949
-0.000190504
-0.00285946
-0.000213902
-0.00291215
-0.000237942
-0.00296784
-0.000262588
-0.00302669
-0.000287763
-0.00308856
-0.000313379
-0.00315293
-0.00321868
-0.000339397
-0.000137411
-0.00269477
-0.000159614
-0.00273972
-0.000182436
-0.00278667
-0.000205892
-0.002836
-0.000230005
-0.00288804
-0.00025478
-0.00294307
-0.000280186
-0.00300128
-0.000306142
-0.0030626
-0.000332548
-0.00312652
-0.00319189
-0.000359343
-0.000128289
-0.00262967
-0.000150553
-0.00267251
-0.00017344
-0.00271683
-0.000196949
-0.00276316
-0.000221099
-0.00281185
-0.000245918
-0.00286322
-0.000271421
-0.00291756
-0.000297583
-0.00297512
-0.00032432
-0.00303587
-0.000351516
-0.00309933
-0.00316431
-0.00037909
-0.000118293
-0.00256592
-0.000140584
-0.00260738
-0.00016353
-0.00264956
-0.000187097
-0.00269327
-0.000211287
-0.00273897
-0.000236123
-0.00278702
-0.00026164
-0.0028377
-0.000287863
-0.00289134
-0.000314774
-0.00294821
-0.000342289
-0.00300835
-0.000370277
-0.00307134
-0.00313596
-0.000398631
-0.000107496
-0.00250245
-0.000129744
-0.00254367
-0.00015272
-0.0025844
-0.000176343
-0.00262594
-0.000200584
-0.00266903
-0.000225447
-0.00271411
-0.000250961
-0.0027615
-0.000277169
-0.00281149
-0.000304102
-0.00286441
-0.000331753
-0.00292056
-0.000360043
-0.00298006
-0.000388825
-0.00304256
-0.00310682
-0.000417961
-9.60125e-05
-0.00243757
-0.000118102
-0.00248036
-0.000141043
-0.00252073
-0.000164697
-0.00256075
-0.00018899
-0.00260164
-0.000213898
-0.00264412
-0.000239429
-0.00268858
-0.000265614
-0.00273532
-0.000292501
-0.0027846
-0.000320134
-0.00283678
-0.000348517
-0.00289217
-0.000377577
-0.002951
-0.000407154
-0.00301298
-0.0030769
-0.000437074
-0.000105765
-0.00241581
-0.000128562
-0.00245756
-0.000152188
-0.0024971
-0.000176513
-0.00253642
-0.00020147
-0.00257668
-0.00022704
-0.00261855
-0.000253231
-0.00266239
-0.00028008
-0.00270847
-0.000307637
-0.00275705
-0.000335957
-0.00280846
-0.00036506
-0.00286307
-0.000394883
-0.00292118
-0.000425256
-0.00298261
-0.0030462
-0.000455964
-9.28939e-05
-0.00234757
-0.00011538
-0.00239333
-0.000138876
-0.00243406
-0.000163178
-0.0024728
-0.000188167
-0.00251143
-0.000213783
-0.00255107
-0.000240008
-0.00259232
-0.000266854
-0.00263554
-0.000294357
-0.00268097
-0.000322574
-0.00272883
-0.000351569
-0.00277946
-0.000381379
-0.00283326
-0.000411955
-0.0028906
-0.000443124
-0.00295144
-0.0030147
-0.000474623
-7.97129e-05
-0.00227208
-0.000101652
-0.00232563
-0.000124858
-0.00237012
-0.000149042
-0.00240988
-0.000174013
-0.00244783
-0.000199659
-0.00248579
-0.000225928
-0.0025248
-0.000252802
-0.00256545
-0.000280297
-0.00260805
-0.000308448
-0.00265281
-0.000337314
-0.00269997
-0.000366969
-0.00274981
-0.000397469
-0.00280276
-0.000428786
-0.00285928
-0.000460749
-0.00291947
-0.0029824
-0.000493044
-6.65111e-05
-0.00218449
-8.75938e-05
-0.00225099
-0.000110283
-0.00230294
-0.000134197
-0.00234621
-0.00015906
-0.00238502
-0.000184691
-0.0024222
-0.000210988
-0.00245949
-0.000237902
-0.00249789
-0.000265422
-0.00253793
-0.000293559
-0.00257991
-0.00032235
-0.00262402
-0.000351856
-0.00267046
-0.000382157
-0.0027195
-0.000413329
-0.00277159
-0.000445371
-0.00282724
-0.000478123
-0.00288672
-0.00294931
-0.000511219
-5.36381e-05
-0.0020787
-7.34886e-05
-0.00216464
-9.536e-05
-0.00222912
-0.000118786
-0.00227952
-0.000143396
-0.0023216
-0.000168928
-0.00235949
-0.000195212
-0.00239591
-0.000222153
-0.00243255
-0.000249707
-0.00247033
-0.000277865
-0.00250977
-0.00030664
-0.00255114
-0.000336065
-0.0025946
-0.000366201
-0.00264032
-0.000397134
-0.00268857
-0.000428957
-0.00273977
-0.000461703
-0.0027945
-0.000495238
-0.00285319
-0.00291541
-0.000529138
-4.14835e-05
-0.00194746
-5.96828e-05
-0.0020605
-8.03657e-05
-0.00214396
-0.00010301
-0.00220648
-0.000127158
-0.00225537
-0.000152454
-0.0022963
-0.000178645
-0.0023333
-0.000205574
-0.00236899
-0.000233152
-0.00240497
-0.000261341
-0.00244214
-0.000290132
-0.00248098
-0.000319539
-0.00252173
-0.000349594
-0.00256454
-0.000380353
-0.00260956
-0.000411904
-0.00265702
-0.000444357
-0.00270731
-0.000477782
-0.00276107
-0.000512087
-0.00281888
-0.0028807
-0.000546798
-4.65687e-05
-0.00193133
-6.56431e-05
-0.00204142
-8.71407e-05
-0.00212246
-0.000110542
-0.00218308
-0.0001354
-0.00223051
-0.00016137
-0.00227033
-0.000188211
-0.00230645
-0.000215777
-0.00234142
-0.000243985
-0.00237676
-0.000272802
-0.00241333
-0.000302221
-0.00245156
-0.000332256
-0.0024917
-0.000362936
-0.00253386
-0.000394312
-0.00257819
-0.00042647
-0.00262486
-0.000459532
-0.00267425
-0.000493607
-0.002727
-0.000528666
-0.00278382
-0.00284517
-0.000564193
-3.45522e-05
-0.00176926
-5.15863e-05
-0.0019143
-7.15171e-05
-0.00202149
-9.38121e-05
-0.00210017
-0.000117956
-0.00215893
-0.00014351
-0.00220496
-0.000170143
-0.0022437
-0.000197625
-0.00227897
-0.000225819
-0.00231323
-0.000254651
-0.00234793
-0.00028409
-0.00238389
-0.000314132
-0.00242152
-0.000344791
-0.00246104
-0.000376092
-0.00250256
-0.000408082
-0.0025462
-0.000440839
-0.0025921
-0.000474491
-0.0026406
-0.000509183
-0.0026923
-0.000544975
-0.00274803
-0.00280882
-0.000581319
-2.40101e-05
-0.00156642
-3.86108e-05
-0.00175465
-5.65341e-05
-0.00189638
-7.7303e-05
-0.00200072
-0.000100378
-0.00207709
-0.000125249
-0.00213406
-0.000151487
-0.00217872
-0.000178772
-0.00221641
-0.000206886
-0.00225086
-0.000235701
-0.00228441
-0.000265148
-0.00231848
-0.000295203
-0.00235383
-0.000325863
-0.00239086
-0.000357142
-0.00242976
-0.000389063
-0.00247064
-0.000421664
-0.0025136
-0.000455018
-0.00255875
-0.000489243
-0.00260637
-0.000524522
-0.00265703
-0.000561019
-0.00271153
-0.00277166
-0.000598182
-2.71143e-05
-0.00155455
-4.26166e-05
-0.00173915
-6.14105e-05
-0.00187758
-8.29992e-05
-0.00197914
-0.000106838
-0.00205325
-0.000132421
-0.00210848
-0.00015933
-0.00215181
-0.000187256
-0.00218849
-0.000215993
-0.00222212
-0.00024542
-0.00225499
-0.000275476
-0.00228843
-0.00030614
-0.00232317
-0.000337412
-0.00235959
-0.000369307
-0.00239786
-0.000401845
-0.0024381
-0.000435061
-0.00248038
-0.000469012
-0.0025248
-0.000503805
-0.00257158
-0.000539644
-0.00262119
-0.00057682
-0.00267436
-0.00273366
-0.00061482
-1.74309e-05
-0.00130698
-3.01813e-05
-0.0015418
-4.65675e-05
-0.00172277
-6.62136e-05
-0.00185794
-8.86042e-05
-0.00195674
-0.000113191
-0.00202867
-0.000139471
-0.0020822
-0.000167038
-0.00212424
-0.000195594
-0.00215993
-0.000224945
-0.00219277
-0.000254976
-0.00222495
-0.000285633
-0.00225777
-0.000316899
-0.0022919
-0.000348777
-0.00232771
-0.000381283
-0.00236536
-0.000414438
-0.00240495
-0.000448272
-0.00244655
-0.000482828
-0.00249024
-0.000518191
-0.00253622
-0.000554575
-0.0025848
-0.000592414
-0.00263652
-0.00269479
-0.000631288
-9.79474e-06
-0.00100673
-1.95948e-05
-0.00129718
-3.32094e-05
-0.00152819
-5.04619e-05
-0.00170551
-7.09418e-05
-0.00183746
-9.41166e-05
-0.00193357
-0.000119434
-0.00200335
-0.000146398
-0.00205523
-0.000174611
-0.00209603
-0.000203787
-0.00213076
-0.00023374
-0.00216281
-0.000264367
-0.00219433
-0.000295617
-0.00222652
-0.000327478
-0.00226004
-0.000359956
-0.00229523
-0.000393068
-0.00233224
-0.000426838
-0.00237118
-0.000461292
-0.00241209
-0.000496466
-0.00245507
-0.000532418
-0.00250027
-0.000569358
-0.00254786
-0.000607824
-0.00259805
-0.00265501
-0.000647603
-1.11369e-05
-0.00099992
-2.17338e-05
-0.00128658
-3.6197e-05
-0.00151372
-5.42982e-05
-0.00168741
-7.55937e-05
-0.00181616
-9.95352e-05
-0.00190963
-0.000125567
-0.00197732
-0.0001532
-0.0020276
-0.000182047
-0.00206718
-0.000211832
-0.00210097
-0.000242379
-0.00213227
-0.000273592
-0.00216311
-0.000305427
-0.00219468
-0.000337875
-0.0022276
-0.000370945
-0.00226216
-0.000404657
-0.00229853
-0.000439038
-0.0023368
-0.000474116
-0.00237702
-0.00050992
-0.00241926
-0.000546501
-0.00246369
-0.000584052
-0.00251031
-0.000623062
-0.00255904
-0.00261412
-0.000663951
-4.9858e-06
-0.000647206
-1.24655e-05
-0.00099244
-2.38467e-05
-0.0012752
-3.91426e-05
-0.00149843
-5.80747e-05
-0.00166848
-8.01679e-05
-0.00179407
-0.000104859
-0.00188494
-0.00013159
-0.00195058
-0.000159878
-0.00199931
-0.000189346
-0.00203772
-0.000219729
-0.00207059
-0.00025086
-0.00210114
-0.000282651
-0.00213132
-0.000315062
-0.00216227
-0.000348088
-0.00219457
-0.000381742
-0.00222851
-0.000416046
-0.00226423
-0.000451031
-0.00230181
-0.000486728
-0.00234132
-0.000523174
-0.00238282
-0.00056043
-0.00242643
-0.000598701
-0.00247204
-0.000638552
-0.00251919
-0.00257303
-0.000679643
-5.63783e-06
-0.000642807
-1.37757e-05
-0.000984302
-2.59275e-05
-0.00126305
-4.20398e-05
-0.00148232
-6.1785e-05
-0.00164874
-8.46577e-05
-0.0017712
-0.000110081
-0.00185951
-0.000137496
-0.00192317
-0.000166425
-0.00197038
-0.000196502
-0.00200764
-0.000227472
-0.00203962
-0.000259178
-0.00206943
-0.000291537
-0.00209897
-0.000324515
-0.00212929
-0.000358111
-0.00216097
-0.00039234
-0.00219428
-0.000427226
-0.00222934
-0.000462804
-0.00226623
-0.000499111
-0.00230501
-0.000536194
-0.00234574
-0.000574147
-0.00238848
-0.000613051
-0.00243314
-0.000652355
-0.00247989
-0.00253018
-0.000695207
-1.42574e-06
-0.000237616
-6.28633e-06
-0.000637947
-1.50741e-05
-0.000975515
-2.79841e-05
-0.00125014
-4.48972e-05
-0.0014654
-6.54382e-05
-0.00162819
-8.90729e-05
-0.00174756
-0.000115211
-0.00183338
-0.000143294
-0.00189509
-0.000172851
-0.00194083
-0.000203525
-0.00197697
-0.000235071
-0.00200807
-0.000267341
-0.00203716
-0.000300258
-0.00206605
-0.000333795
-0.00209576
-0.000367951
-0.00212682
-0.000402744
-0.00215948
-0.000438202
-0.00219388
-0.000474361
-0.00223008
-0.00051126
-0.00226811
-0.000548955
-0.00230804
-0.000587537
-0.00234989
-0.000627047
-0.00239362
-0.000667456
-0.00243948
-0.00248761
-0.000710026
-1.61106e-06
-0.000236005
-6.92793e-06
-0.00063263
-1.6356e-05
-0.000966087
-3.00108e-05
-0.00123648
-4.77085e-05
-0.00144771
-6.90278e-05
-0.00160687
-9.34068e-05
-0.00172318
-0.000120244
-0.00180654
-0.00014898
-0.00186635
-0.00017915
-0.00191066
-0.000210408
-0.00194571
-0.000242519
-0.00197596
-0.000275343
-0.00200434
-0.00030881
-0.00203258
-0.000342895
-0.00206167
-0.000377601
-0.00209211
-0.000412949
-0.00212414
-0.000448967
-0.00215786
-0.000485692
-0.00219335
-0.000523166
-0.00223064
-0.000561445
-0.00226976
-0.000600605
-0.00231073
-0.000640693
-0.00235354
-0.000681812
-0.00239836
-0.00244493
-0.000724491
-1.79466e-06
-0.00023421
-7.56219e-06
-0.000626862
-1.76206e-05
-0.000956028
-3.20065e-05
-0.0012221
-5.04726e-05
-0.00142924
-7.25527e-05
-0.00158479
-9.76584e-05
-0.00169808
-0.000125177
-0.00177902
-0.000154551
-0.00183698
-0.000185322
-0.00187989
-0.000217152
-0.00191388
-0.000249817
-0.0019433
-0.000283185
-0.00197097
-0.000317191
-0.00199858
-0.000351814
-0.00202705
-0.000387061
-0.00205686
-0.000422952
-0.00208825
-0.000459519
-0.0021213
-0.000496797
-0.00215607
-0.000534829
-0.00219261
-0.000573667
-0.00223092
-0.000613377
-0.00227102
-0.000654009
-0.0023129
-0.000695677
-0.00235669
-0.00240199
-0.000738612
-1.97641e-06
-0.000232234
-8.18862e-06
-0.00062065
-1.88671e-05
-0.00094535
-3.39703e-05
-0.00120699
-5.31884e-05
-0.00141002
-7.60118e-05
-0.00156197
-0.000101827
-0.00167226
-0.000130012
-0.00175084
-0.000160008
-0.00180698
-0.000191365
-0.00184853
-0.000223756
-0.00188149
-0.000256964
-0.00191009
-0.000290865
-0.00193707
-0.0003254
-0.00196404
-0.000360551
-0.0019919
-0.000396328
-0.00202109
-0.000432753
-0.00205182
-0.000469856
-0.00208419
-0.000507674
-0.00211826
-0.000546248
-0.00215403
-0.000585628
-0.00219154
-0.000625868
-0.00223078
-0.000667019
-0.00227175
-0.000709172
-0.00231454
-0.00235873
-0.000752434
-2.15615e-06
-0.000230078
-8.80677e-06
-0.000614
-2.00948e-05
-0.000934062
-3.59012e-05
-0.00119119
-5.58549e-05
-0.00139007
-7.94041e-05
-0.00153842
-0.000105911
-0.00164575
-0.000134745
-0.001722
-0.000165349
-0.00177638
-0.00019728
-0.0018166
-0.000230219
-0.00184855
-0.000263959
-0.00187635
-0.000298383
-0.00190264
-0.000333437
-0.00192899
-0.000369106
-0.00195623
-0.000405403
-0.00198479
-0.000442349
-0.00201487
-0.000479977
-0.00204657
-0.000518323
-0.00207991
-0.000557425
-0.00211493
-0.00059733
-0.00215164
-0.000638086
-0.00219003
-0.000679737
-0.0022301
-0.000722352
-0.00227193
-0.0023151
-0.000765982
-2.33377e-06
-0.000227744
-9.41621e-06
-0.000606917
-2.1303e-05
-0.000922175
-3.77982e-05
-0.00117469
-5.84711e-05
-0.00136939
-8.27288e-05
-0.00151416
-0.000109911
-0.00161857
-0.000139378
-0.00169253
-0.000170575
-0.00174518
-0.000203066
-0.00178411
-0.000236541
-0.00181507
-0.000270802
-0.00184209
-0.000305738
-0.00186771
-0.0003413
-0.00189342
-0.000377478
-0.00192005
-0.000414283
-0.00194799
-0.000451741
-0.00197742
-0.000489883
-0.00200842
-0.000528743
-0.00204105
-0.000568361
-0.00207531
-0.000608778
-0.00211122
-0.000650036
-0.00214877
-0.000692175
-0.00218796
-0.000735246
-0.00222886
-0.00227107
-0.000779272
-2.5091e-06
-0.000225235
-1.00165e-05
-0.00059941
-2.24909e-05
-0.000909701
-3.96606e-05
-0.00115752
-6.10361e-05
-0.00134802
-8.5985e-05
-0.00148922
-0.000113825
-0.00159073
-0.000143909
-0.00166245
-0.000175684
-0.00171341
-0.000208722
-0.00175107
-0.000242721
-0.00178107
-0.000277492
-0.00180732
-0.00031293
-0.00183227
-0.00034899
-0.00185736
-0.000385665
-0.00188338
-0.00042297
-0.00191068
-0.000460928
-0.00193946
-0.000499572
-0.00196978
-0.000538936
-0.00200169
-0.000579056
-0.00203519
-0.000619973
-0.00207031
-0.000661722
-0.00210702
-0.000704341
-0.00214534
-0.000747866
-0.00218533
-0.00222663
-0.000792313
-2.68202e-06
-0.000222553
-1.06073e-05
-0.000591484
-2.3658e-05
-0.00089665
-4.14876e-05
-0.00113969
-6.35491e-05
-0.00132596
-8.91719e-05
-0.00146359
-0.000117653
-0.00156225
-0.000148339
-0.00163177
-0.000180677
-0.00168107
-0.000214249
-0.0017175
-0.00024876
-0.00174656
-0.000284029
-0.00177205
-0.000319958
-0.00179634
-0.000356506
-0.00182082
-0.000393668
-0.00184621
-0.000431461
-0.00187289
-0.000469909
-0.00190101
-0.000509044
-0.00193065
-0.0005489
-0.00196183
-0.000589512
-0.00199458
-0.000630917
-0.0020289
-0.00067315
-0.00206479
-0.000716241
-0.00210225
-0.000760222
-0.00214135
-0.00218175
-0.000805103
-2.85239e-06
-0.000219701
-1.11883e-05
-0.000583149
-2.48036e-05
-0.000883034
-4.32783e-05
-0.00112122
-6.60093e-05
-0.00130323
-9.22888e-05
-0.00143731
-0.000121394
-0.00153314
-0.000152665
-0.00160049
-0.000185554
-0.00164818
-0.000219645
-0.00168341
-0.000254657
-0.00171155
-0.000290413
-0.00173629
-0.000326822
-0.00175993
-0.000363847
-0.00178379
-0.000401486
-0.00180857
-0.000439756
-0.00183462
-0.000478683
-0.00186208
-0.000518299
-0.00189103
-0.000558636
-0.00192149
-0.00059973
-0.00195349
-0.000641614
-0.00198702
-0.00068432
-0.00202208
-0.000727878
-0.00205869
-0.000772315
-0.00209691
-0.00213642
-0.000817642
-3.0201e-06
-0.000216681
-1.17589e-05
-0.00057441
-2.59272e-05
-0.000868866
-4.50322e-05
-0.00110211
-6.84159e-05
-0.00127984
-9.5335e-05
-0.00141039
-0.000125048
-0.00150343
-0.000156889
-0.00156865
-0.000190312
-0.00161476
-0.000224911
-0.00164881
-0.000260411
-0.00167605
-0.000296643
-0.00170006
-0.000333521
-0.00172305
-0.000371013
-0.0017463
-0.000409119
-0.00177047
-0.000447856
-0.00179588
-0.000487252
-0.00182269
-0.000527337
-0.00185094
-0.000568145
-0.00188068
-0.000609709
-0.00191192
-0.000652062
-0.00194466
-0.000695236
-0.00197891
-0.000739255
-0.00201467
-0.000784148
-0.00205202
-0.00209064
-0.000829926
-3.185e-06
-0.000213496
-1.2319e-05
-0.000565276
-2.70282e-05
-0.000854157
-4.67484e-05
-0.00108239
-7.07683e-05
-0.00125582
-9.83099e-05
-0.00138285
-0.000128614
-0.00147313
-0.000161009
-0.00153626
-0.000194953
-0.00158081
-0.000230047
-0.00161371
-0.000266022
-0.00164008
-0.000302719
-0.00166336
-0.000340056
-0.00168571
-0.000378004
-0.00170835
-0.000416566
-0.00173191
-0.000455759
-0.00175669
-0.000495613
-0.00178283
-0.000536158
-0.0018104
-0.000577426
-0.00183942
-0.000619451
-0.0018699
-0.000662265
-0.00190185
-0.000705897
-0.00193528
-0.000750373
-0.0019702
-0.00079572
-0.00200667
-0.00204441
-3.34699e-06
-0.000210149
-1.28681e-05
-0.000555755
-2.81061e-05
-0.000838919
-4.84264e-05
-0.00106207
-7.30658e-05
-0.00123118
-0.000101213
-0.00135471
-0.000132091
-0.00144225
-0.000165026
-0.00150332
-0.000199477
-0.00154636
-0.000235052
-0.00157814
-0.000271491
-0.00160364
-0.000308641
-0.00162621
-0.000346426
-0.00164793
-0.000384819
-0.00166996
-0.000423826
-0.0016929
-0.000463466
-0.00171705
-0.000503767
-0.00174253
-0.000544761
-0.00176941
-0.00058648
-0.0017977
-0.000628956
-0.00182742
-0.000672221
-0.00185858
-0.000716304
-0.00189119
-0.000761232
-0.00192527
-0.00080703
-0.00196087
-0.00199772
-3.50595e-06
-0.000206643
-1.3406e-05
-0.000545855
-2.91603e-05
-0.000823165
-5.00656e-05
-0.00104117
-7.53078e-05
-0.00120594
-0.000104043
-0.00132597
-0.00013548
-0.00141081
-0.000168938
-0.00146987
-0.000203882
-0.00151142
-0.000239925
-0.00154209
-0.000276817
-0.00156675
-0.000314409
-0.00158862
-0.00035263
-0.00160971
-0.000391459
-0.00163113
-0.0004309
-0.00165346
-0.000470976
-0.00167697
-0.000511714
-0.00170179
-0.000553146
-0.00172797
-0.000595305
-0.00175554
-0.000638223
-0.0017845
-0.00068193
-0.00181488
-0.000726457
-0.00184667
-0.00077183
-0.0018799
-0.000818075
-0.00191463
-0.00195059
-3.66177e-06
-0.000202981
-1.39323e-05
-0.000535584
-3.01905e-05
-0.000806906
-5.16654e-05
-0.00101969
-7.74936e-05
-0.00118011
-0.000106801
-0.00129666
-0.000138779
-0.00137883
-0.000172746
-0.0014359
-0.000208168
-0.00147599
-0.000244668
-0.00150559
-0.000281999
-0.00152942
-0.000320022
-0.0015506
-0.000358669
-0.00157106
-0.000397921
-0.00159188
-0.000437787
-0.00161359
-0.000478288
-0.00163647
-0.000519453
-0.00166063
-0.000561313
-0.00168611
-0.000603902
-0.00171295
-0.000647252
-0.00174115
-0.000691393
-0.00177074
-0.000736356
-0.0018017
-0.000782167
-0.00183409
-0.000828854
-0.00186794
-3.81433e-06
-0.000199167
-1.44468e-05
-0.000524951
-3.11961e-05
-0.000790157
-5.32253e-05
-0.000997663
-7.96229e-05
-0.00115372
-0.000109485
-0.0012668
-0.000141989
-0.00134633
-0.000176449
-0.00140144
-0.000212336
-0.00144011
-0.000249278
-0.00146865
-0.000287038
-0.00149166
-0.00032548
-0.00151216
-0.000364542
-0.001532
-0.000404208
-0.00155221
-0.000444487
-0.00157331
-0.000485402
-0.00159556
-0.000526983
-0.00161905
-0.000569262
-0.00164383
-0.000612271
-0.00166994
-0.000656043
-0.00169738
-0.000700609
-0.00172617
-0.000745999
-0.00175631
-0.00079224
-0.00178785
-0.00182082
-3.96355e-06
-0.000195203
-1.49492e-05
-0.000513966
-3.21767e-05
-0.00077293
-5.47447e-05
-0.000975095
-8.1695e-05
-0.00112677
-0.000112095
-0.0012364
-0.000145109
-0.00131332
-0.000180047
-0.0013665
-0.000216385
-0.00140377
-0.000253758
-0.00143128
-0.000291933
-0.00145348
-0.000330783
-0.00147331
-0.000370249
-0.00149253
-0.000410317
-0.00151214
-0.000450999
-0.00153263
-0.000492318
-0.00155424
-0.000534305
-0.00157706
-0.000576991
-0.00160115
-0.000620411
-0.00162652
-0.000664595
-0.0016532
-0.000709576
-0.00168119
-0.000755385
-0.00171051
-0.00080205
-0.00174118
-0.00177327
-4.10932e-06
-0.000191094
-1.54392e-05
-0.000502636
-3.3132e-05
-0.000755237
-5.62231e-05
-0.000952004
-8.37096e-05
-0.00109928
-0.000114631
-0.00120548
-0.000148138
-0.00127981
-0.00018354
-0.0013311
-0.000220315
-0.00136699
-0.000258105
-0.00139349
-0.000296684
-0.0014149
-0.000335931
-0.00143406
-0.000375789
-0.00145267
-0.000416249
-0.00147168
-0.000457323
-0.00149156
-0.000499035
-0.00151253
-0.000541417
-0.00153468
-0.000584501
-0.00155806
-0.00062832
-0.0015827
-0.000672907
-0.00160861
-0.000718294
-0.0016358
-0.000764512
-0.00166429
-0.000811592
-0.0016941
-4.25154e-06
-0.000186842
-1.59165e-05
-0.000490971
-3.40614e-05
-0.000737092
-5.76602e-05
-0.000928405
-8.5666e-05
-0.00107127
-0.000117092
-0.00117405
-0.000151077
-0.00124582
-0.000186927
-0.00129525
-0.000224126
-0.00132979
-0.00026232
-0.0013553
-0.000301292
-0.00137593
-0.000340923
-0.00139443
-0.000381163
-0.00141243
-0.000422004
-0.00143084
-0.000463458
-0.0014501
-0.000505553
-0.00147043
-0.00054832
-0.00149191
-0.00059179
-0.00151459
-0.000635999
-0.00153849
-0.000680978
-0.00156363
-0.000726761
-0.00159002
-0.00077338
-0.00161767
-0.00164662
-4.39013e-06
-0.000182452
-1.6381e-05
-0.00047898
-3.49648e-05
-0.000718508
-5.90555e-05
-0.000904314
-8.7564e-05
-0.00104276
-0.000119478
-0.00114214
-0.000153925
-0.00121138
-0.000190209
-0.00125897
-0.000227817
-0.00129219
-0.000266403
-0.00131671
-0.000305755
-0.00133658
-0.00034576
-0.00135443
-0.00038637
-0.00137182
-0.00042758
-0.00138963
-0.000469405
-0.00140828
-0.000511872
-0.00142796
-0.000555012
-0.00144877
-0.000598858
-0.00147075
-0.000643446
-0.00149391
-0.000688807
-0.00151827
-0.000734977
-0.00154385
-0.000781986
-0.00157066
-0.00159873
-4.52499e-06
-0.000177927
-1.68323e-05
-0.000466673
-3.58416e-05
-0.000699499
-6.04086e-05
-0.000879747
-8.94031e-05
-0.00101377
-0.000121788
-0.00110976
-0.000156681
-0.00117648
-0.000193385
-0.00122226
-0.000231389
-0.00125418
-0.000270354
-0.00127774
-0.000310074
-0.00129686
-0.00035044
-0.00131406
-0.00039141
-0.00133085
-0.000432978
-0.00134806
-0.000475162
-0.00136609
-0.00051799
-0.00138514
-0.000561493
-0.00140527
-0.000605705
-0.00142653
-0.00065066
-0.00144895
-0.000696394
-0.00147254
-0.000742939
-0.0014973
-0.000790329
-0.00152327
-0.00155047
-4.65605e-06
-0.000173271
-1.72703e-05
-0.000454059
-3.66916e-05
-0.000680078
-6.1719e-05
-0.00085472
-9.11829e-05
-0.000984306
-0.000124023
-0.00107692
-0.000159346
-0.00114116
-0.000196454
-0.00118515
-0.000234841
-0.00121579
-0.000274173
-0.00123841
-0.000314248
-0.00125678
-0.000354965
-0.00127334
-0.000396282
-0.00128954
-0.000438197
-0.00130615
-0.00048073
-0.00132356
-0.000523907
-0.00134196
-0.000567762
-0.00136142
-0.000612328
-0.00138197
-0.000657641
-0.00140364
-0.000703736
-0.00142644
-0.000750647
-0.00145039
-0.000798407
-0.00147551
-4.78322e-06
-0.000168488
-1.76948e-05
-0.000441147
-3.75144e-05
-0.000660258
-6.29865e-05
-0.000829248
-9.29031e-05
-0.00095439
-0.000126182
-0.00104364
-0.00016192
-0.00110542
-0.000199418
-0.00114766
-0.000238174
-0.00117704
-0.000277859
-0.00119873
-0.000318278
-0.00121636
-0.000359333
-0.00123229
-0.000400986
-0.00124788
-0.000443237
-0.0012639
-0.000486107
-0.00128069
-0.000529622
-0.00129844
-0.000573818
-0.00131722
-0.000618728
-0.00133706
-0.000664388
-0.00135798
-0.000710833
-0.00138
-0.000758098
-0.00140313
-0.00142739
-4.90643e-06
-0.000163581
-1.81055e-05
-0.000427948
-3.83098e-05
-0.000640054
-6.42106e-05
-0.000803347
-9.45633e-05
-0.000924037
-0.000128264
-0.00100994
-0.000164401
-0.00106928
-0.000202274
-0.00110978
-0.000241386
-0.00113793
-0.000281412
-0.0011587
-0.000322163
-0.00117561
-0.000363544
-0.00119091
-0.000405522
-0.00120591
-0.000448098
-0.00122132
-0.000491293
-0.0012375
-0.000535136
-0.0012546
-0.000579661
-0.00127269
-0.000624904
-0.00129182
-0.000670899
-0.00131198
-0.000717683
-0.00133321
-0.000765292
-0.00135552
-0.00137892
-5.0256e-06
-0.000158556
-1.85023e-05
-0.000414471
-3.90775e-05
-0.000619479
-6.5391e-05
-0.000777033
-9.61632e-05
-0.000893265
-0.00013027
-0.000975829
-0.000166791
-0.00103276
-0.000205024
-0.00107155
-0.000244478
-0.00109847
-0.000284832
-0.00111835
-0.000325902
-0.00113454
-0.000367598
-0.00114921
-0.000409889
-0.00116362
-0.000452778
-0.00117843
-0.000496287
-0.00119399
-0.000540447
-0.00121044
-0.00058529
-0.00122785
-0.000630854
-0.00124625
-0.000677174
-0.00126566
-0.000724286
-0.0012861
-0.000772227
-0.00130758
-0.00133011
-5.14067e-06
-0.000153415
-1.88849e-05
-0.000400727
-3.98171e-05
-0.000598547
-6.65275e-05
-0.000750323
-9.77026e-05
-0.00086209
-0.000132199
-0.000941333
-0.000169088
-0.000995875
-0.000207668
-0.00103297
-0.000247449
-0.00105869
-0.000288118
-0.00107768
-0.000329496
-0.00109316
-0.000371495
-0.00110721
-0.000414088
-0.00112102
-0.000457279
-0.00113524
-0.00050109
-0.00115018
-0.000545554
-0.00116598
-0.000590705
-0.0011827
-0.000636578
-0.00120038
-0.000683211
-0.00121903
-0.00073064
-0.00123867
-0.000778902
-0.00125932
-5.25155e-06
-0.000148163
-1.92533e-05
-0.000386725
-4.05284e-05
-0.000577271
-6.76197e-05
-0.000723232
-9.9181e-05
-0.000830528
-0.00013405
-0.000906463
-0.000171292
-0.000958634
-0.000210204
-0.000994058
-0.0002503
-0.0010186
-0.000291272
-0.00103671
-0.000332945
-0.00105149
-0.000375235
-0.00106492
-0.000418117
-0.00107814
-0.000461598
-0.00109176
-0.000505701
-0.00110607
-0.000550458
-0.00112122
-0.000595903
-0.00113725
-0.000642075
-0.00115421
-0.000689009
-0.0011721
-0.000736743
-0.00119094
-0.00121074
-5.3582e-06
-0.000142805
-1.96072e-05
-0.000372476
-4.12112e-05
-0.000555667
-6.86673e-05
-0.000695776
-0.000100598
-0.000798597
-0.000135825
-0.000871237
-0.000173404
-0.000921055
-0.000212633
-0.000954828
-0.00025303
-0.000978198
-0.000294292
-0.000995445
-0.000336247
-0.00100954
-0.000378817
-0.00102235
-0.000421977
-0.00103498
-0.000465736
-0.001048
-0.000510118
-0.00106169
-0.000555157
-0.00107618
-0.000600886
-0.00109153
-0.000647344
-0.00110775
-0.000694567
-0.00112487
-0.000742595
-0.00114291
-0.00116187
-5.46054e-06
-0.000137345
-1.99464e-05
-0.00035799
-4.18653e-05
-0.000533748
-6.96701e-05
-0.000667971
-0.000101954
-0.000766313
-0.000137521
-0.000835669
-0.000175422
-0.000883154
-0.000214955
-0.000915296
-0.00025564
-0.000937513
-0.000297178
-0.000953907
-0.000339404
-0.00096731
-0.000382241
-0.000979514
-0.000425667
-0.000991554
-0.000469693
-0.00100398
-0.000514343
-0.00101704
-0.00055965
-0.00103087
-0.000605651
-0.00104552
-0.000652384
-0.00106102
-0.000699885
-0.00107737
-0.000748194
-0.0010946
-0.00111272
-5.55852e-06
-0.000131786
-2.02709e-05
-0.000343278
-4.24903e-05
-0.000511529
-7.06277e-05
-0.000639833
-0.000103248
-0.000733693
-0.00013914
-0.000799778
-0.000177348
-0.000844947
-0.000217169
-0.000875474
-0.000258128
-0.000896554
-0.000299931
-0.000912104
-0.000342415
-0.000924826
-0.000385506
-0.000936423
-0.000429187
-0.000947874
-0.000473467
-0.000959695
-0.000518373
-0.000972136
-0.000563938
-0.000985309
-0.000610199
-0.000999263
-0.000657194
-0.00101402
-0.000704961
-0.0010296
-0.000753539
-0.00104602
-0.00106329
-5.65209e-06
-0.000126134
-2.05804e-05
-0.00032835
-4.30862e-05
-0.000489023
-7.15401e-05
-0.000611379
-0.000104481
-0.000700752
-0.000140681
-0.000763577
-0.00017918
-0.000806448
-0.000219275
-0.000835378
-0.000260496
-0.000855334
-0.00030255
-0.00087005
-0.000345279
-0.000882097
-0.000388613
-0.000893088
-0.000432536
-0.000903951
-0.000477058
-0.000915173
-0.000522208
-0.000926987
-0.000568019
-0.000939498
-0.000614528
-0.000952754
-0.000661774
-0.000966777
-0.000709795
-0.000981583
-0.00075863
-0.000997187
-5.74118e-06
-0.000120393
-2.08749e-05
-0.000313216
-4.36526e-05
-0.000466245
-7.24068e-05
-0.000582625
-0.000105651
-0.000667509
-0.000142143
-0.000727084
-0.000180918
-0.000767673
-0.000221274
-0.000795022
-0.000262742
-0.000813866
-0.000305034
-0.000827758
-0.000347996
-0.000839134
-0.000391562
-0.000849523
-0.000435714
-0.000859799
-0.000480467
-0.00087042
-0.000525849
-0.000881605
-0.000571893
-0.000893453
-0.000618638
-0.000906009
-0.000666122
-0.000919293
-0.000714384
-0.000933321
-0.000948107
-5.82575e-06
-0.000114567
-2.11541e-05
-0.000297888
-4.41894e-05
-0.00044321
-7.32278e-05
-0.000553587
-0.000106758
-0.000633978
-0.000143527
-0.000690315
-0.000182563
-0.000728637
-0.000223165
-0.000754421
-0.000264866
-0.000772165
-0.000307384
-0.00078524
-0.000350567
-0.000795951
-0.000394351
-0.00080574
-0.000438721
-0.000815429
-0.000483692
-0.000825448
-0.000529294
-0.000836004
-0.00057556
-0.000847187
-0.000622528
-0.00085904
-0.000670238
-0.000871583
-0.000718729
-0.00088483
-0.000898795
-5.90575e-06
-0.000108661
-2.14181e-05
-0.000282375
-4.46964e-05
-0.000419932
-7.40028e-05
-0.00052428
-0.000107804
-0.000600177
-0.000144833
-0.000653286
-0.000184114
-0.000689356
-0.000224948
-0.000713587
-0.000266869
-0.000730244
-0.000309599
-0.00074251
-0.000352991
-0.00075256
-0.00039698
-0.00076175
-0.000441556
-0.000770853
-0.000486734
-0.00078027
-0.000532543
-0.000790195
-0.000579018
-0.000800712
-0.000626198
-0.00081186
-0.000674121
-0.000823659
-0.000722829
-0.000836123
-0.000849264
-5.98113e-06
-0.00010268
-2.16666e-05
-0.00026669
-4.51735e-05
-0.000396425
-7.47315e-05
-0.000494722
-0.000108786
-0.000566123
-0.000146059
-0.000616013
-0.000185571
-0.000649844
-0.000226622
-0.000672537
-0.00026875
-0.000688115
-0.00031168
-0.00069958
-0.000355267
-0.000708973
-0.00039945
-0.000717567
-0.000444219
-0.000726084
-0.000489591
-0.000734899
-0.000535595
-0.000744191
-0.000582267
-0.00075404
-0.000629646
-0.000764482
-0.00067777
-0.000775534
-0.000726682
-0.000787212
-0.000799525
-6.05186e-06
-9.66284e-05
-2.18996e-05
-0.000250842
-4.56204e-05
-0.000372704
-7.54139e-05
-0.000464929
-0.000109705
-0.000531831
-0.000147207
-0.000578511
-0.000186934
-0.000610117
-0.000228188
-0.000631283
-0.000270509