/*--------------------------------*- C++ -*----------------------------------*\
  =========                 |
  \\      /  F ield         | OpenFOAM: The Open Source CFD Toolbox
   \\    /   O peration     | Website:  https://openfoam.org
    \\  /    A nd           | Version:  7
     \\/     M anipulation  |
\*---------------------------------------------------------------------------*/
FoamFile
{
    version     2.0;
    format      ascii;
    class       volVectorField;
    location    "260";
    object      U;
}
// * * * * * * * * * * * * * * * * * * * * * * * * * * * * * * * * * * * * * //

dimensions      [0 1 -1 0 0 0 0];

internalField   nonuniform List<vector> 
7156
(
(1.17909 0.335787 2.92436e-20)
(1.18263 0.365312 -1.18817e-19)
(1.17738 0.351456 -9.2616e-20)
(1.17162 0.338956 -1.37596e-19)
(1.17942 0.383464 2.56724e-20)
(1.1744 0.368667 1.40699e-19)
(1.1695 0.354623 -4.06422e-22)
(1.16405 0.341966 -5.88106e-20)
(1.17584 0.402455 5.58977e-20)
(1.17068 0.386859 1.08585e-19)
(1.16603 0.371841 1.84009e-19)
(1.16149 0.357616 6.05465e-20)
(1.15637 0.344812 -4.54205e-21)
(1.17202 0.422462 -4.95218e-20)
(1.16659 0.405896 3.34774e-20)
(1.1618 0.390062 -1.48941e-19)
(1.15752 0.374829 -1.67331e-19)
(1.15336 0.360432 4.60983e-20)
(1.14858 0.347489 1.12466e-19)
(1.1744 0.461853 3.20299e-20)
(1.168 0.443533 -1.21231e-22)
(1.16226 0.425953 3.18641e-20)
(1.15719 0.409132 6.14176e-20)
(1.15277 0.393066 -2.65586e-20)
(1.14889 0.377626 -4.57278e-20)
(1.14512 0.363065 -1.11824e-19)
(1.14068 0.349992 3.85631e-20)
(1.17029 0.485037 4.42538e-20)
(1.16371 0.465686 -6.39874e-20)
(1.15771 0.447074 2.1328e-20)
(1.15234 0.429225 7.45478e-20)
(1.14765 0.412157 -9.03643e-20)
(1.14361 0.395867 7.00442e-20)
(1.14012 0.380226 4.21253e-20)
(1.13675 0.365509 5.11813e-20)
(1.13269 0.352317 -1.94731e-20)
(1.16561 0.509301 -1.81494e-19)
(1.15901 0.48893 2.73262e-22)
(1.15286 0.469272 -1.098e-19)
(1.14726 0.450379 -2.02291e-20)
(1.14228 0.432271 -1.02761e-19)
(1.13797 0.414965 2.81365e-20)
(1.13431 0.398458 4.11381e-20)
(1.13124 0.382624 1.31394e-19)
(1.12828 0.36776 7.55127e-22)
(1.1246 0.354458 -2.85789e-20)
(1.16013 0.534581 -1.55704e-19)
(1.1537 0.513251 6.42509e-20)
(1.14756 0.492555 -4.18145e-20)
(1.14184 0.472604 2.04297e-19)
(1.13667 0.453443 -9.79605e-20)
(1.13209 0.435086 8.33454e-20)
(1.12817 0.41755 -3.63617e-20)
(1.12489 0.400834 2.60149e-20)
(1.12223 0.384816 -1.63807e-19)
(1.11969 0.369812 2.44428e-20)
(1.11641 0.356411 -1.40172e-20)
(1.1535 0.560721 -1.77253e-19)
(1.14757 0.538593 3.78334e-20)
(1.14162 0.516911 1.03614e-19)
(1.13594 0.495905 1.16033e-19)
(1.13068 0.475675 -1.11003e-19)
(1.12594 0.456258 1.05403e-19)
(1.12177 0.437664 -1.5146e-19)
(1.11823 0.419909 1.54473e-19)
(1.11535 0.402992 -1.10142e-19)
(1.1131 0.386795 1.11013e-19)
(1.11099 0.37166 -7.90684e-20)
(1.10813 0.358171 7.21505e-20)
(1.14521 0.587391 8.55796e-20)
(1.14027 0.564806 5.04265e-20)
(1.13481 0.542288 8.05677e-20)
(1.12935 0.520272 -6.21699e-21)
(1.12417 0.498972 -8.06445e-20)
(1.11938 0.478478 -7.5813e-20)
(1.11508 0.458818 -5.34226e-20)
(1.11132 0.439999 2.66312e-20)
(1.10818 0.422035 1.28405e-20)
(1.10569 0.404926 -3.88923e-20)
(1.10385 0.388559 7.79166e-20)
(1.10219 0.373301 1.56226e-20)
(1.09975 0.359734 -1.0254e-19)
(1.13446 0.613984 7.10341e-20)
(1.13132 0.591572 -2.50948e-19)
(1.12683 0.568544 1.57474e-19)
(1.12188 0.545659 -1.21262e-19)
(1.11693 0.523327 -1.09077e-19)
(1.11225 0.50175 4.77494e-20)
(1.10795 0.481006 9.34843e-20)
(1.1041 0.461118 1.65192e-19)
(1.10076 0.442088 -1.12756e-19)
(1.09802 0.423925 -8.87462e-20)
(1.09592 0.406632 3.33201e-20)
(1.0945 0.390102 -1.04125e-19)
(1.09328 0.374728 -1.27163e-20)
(1.09129 0.361096 3.36606e-20)
(1.11996 0.618299 8.27943e-20)
(1.11721 0.595373 1.97663e-19)
(1.1132 0.571929 9.73196e-20)
(1.10877 0.548696 3.97414e-20)
(1.10436 0.526068 5.7264e-20)
(1.10019 0.504231 -9.69915e-21)
(1.09639 0.483253 -4.33129e-21)
(1.093 0.463152 -1.48074e-19)
(1.0901 0.443923 -1.53143e-20)
(1.08776 0.425575 8.55152e-20)
(1.08604 0.408107 2.21543e-20)
(1.08504 0.391422 7.23496e-20)
(1.08427 0.375939 -1.9175e-20)
(1.08274 0.362252 4.83156e-20)
(1.10502 0.643982 4.60838e-20)
(1.10521 0.622199 1.0664e-19)
(1.10289 0.598788 -1.01949e-19)
(1.09939 0.574951 -9.30689e-20)
(1.0955 0.551394 8.33632e-20)
(1.09164 0.528489 -1.05922e-19)
(1.08801 0.506408 4.07618e-20)
(1.08472 0.485214 -3.96739e-20)
(1.08181 0.464914 -3.467e-20)
(1.07935 0.445501 1.39506e-19)
(1.0774 0.426979 -1.08211e-20)
(1.07608 0.409348 -6.8429e-20)
(1.07548 0.392515 -2.6337e-20)
(1.07515 0.376929 3.50061e-20)
(1.07411 0.363197 -1.14148e-21)
(1.08482 0.667035 1.13176e-20)
(1.08973 0.648033 -7.1842e-20)
(1.09024 0.625676 -6.0474e-20)
(1.08838 0.601809 -7.015e-20)
(1.08541 0.577605 3.11558e-20)
(1.08208 0.553744 -3.11944e-20)
(1.07879 0.530582 1.23597e-19)
(1.07571 0.508277 -3.35447e-20)
(1.07294 0.486881 -3.7895e-20)
(1.07052 0.466399 2.33017e-20)
(1.0685 0.446816 -6.98653e-20)
(1.06697 0.428134 2.53017e-20)
(1.06602 0.41035 -2.18452e-20)
(1.06583 0.393379 1.80195e-20)
(1.06594 0.377695 -2.91667e-20)
(1.06539 0.363927 -5.903e-21)
(1.05703 0.685123 -2.27701e-19)
(1.06912 0.671303 -8.73605e-20)
(1.07418 0.65162 -1.48819e-20)
(1.07505 0.628722 4.57053e-21)
(1.07368 0.604428 -1.1358e-19)
(1.07127 0.579882 5.85065e-22)
(1.06853 0.555741 4.78688e-20)
(1.06581 0.532341 -3.88974e-20)
(1.0633 0.509829 5.72934e-20)
(1.06106 0.48825 4.09545e-20)
(1.05914 0.467601 2.62836e-20)
(1.05758 0.447864 1.4809e-20)
(1.05646 0.429037 -9.93439e-20)
(1.0559 0.411112 7.4358e-20)
(1.05609 0.39401 -1.64241e-20)
(1.05664 0.378234 -1.52952e-20)
(1.05658 0.364437 2.13175e-21)
(1.01861 0.695028 -2.88662e-19)
(1.04112 0.689683 -1.21543e-19)
(1.05312 0.675066 6.72928e-21)
(1.05839 0.654737 1.8571e-19)
(1.05967 0.63133 -1.15417e-20)
(1.05882 0.606638 5.68591e-20)
(1.05699 0.581776 -4.21976e-20)
(1.05484 0.557377 -1.61788e-20)
(1.05272 0.53376 -3.0242e-20)
(1.05078 0.51106 -3.32415e-20)
(1.04909 0.489314 6.20663e-20)
(1.04769 0.468514 -7.34512e-20)
(1.0466 0.44864 1.53804e-20)
(1.0459 0.429682 9.28746e-21)
(1.04571 0.411629 -3.1239e-20)
(1.04627 0.394408 -1.30506e-21)
(1.04724 0.378543 7.62749e-21)
(1.0477 0.36472 2.14952e-21)
(0.96589 0.692601 -4.07693e-20)
(1.00278 0.699946 2.98968e-20)
(1.02489 0.693697 3.58719e-19)
(1.03687 0.678317 -2.85476e-20)
(1.04239 0.657377 -1.13184e-19)
(1.0441 0.633494 3.24805e-20)
(1.0438 0.608433 -9.17666e-21)
(1.04257 0.583281 1.06394e-19)
(1.04105 0.558647 -7.30388e-20)
(1.03953 0.534833 -2.99646e-20)
(1.03818 0.511963 -2.02783e-20)
(1.03705 0.490067 -4.97686e-20)
(1.03617 0.469134 3.07322e-20)
(1.03556 0.449138 -6.06121e-21)
(1.03528 0.430066 4.1015e-20)
(1.03548 0.4119 -1.1103e-20)
(1.0364 0.394571 2.88599e-21)
(1.03775 0.378619 6.4659e-21)
(1.03874 0.36477 -2.38996e-21)
(0.950482 0.697905 3.80558e-20)
(0.98658 0.70428 3.02019e-19)
(1.00835 0.697157 -2.20971e-19)
(1.02037 0.681049 3.73761e-20)
(1.02618 0.659532 3.10358e-21)
(1.02838 0.635207 1.0227e-19)
(1.02865 0.609807 -3.8249e-20)
(1.02804 0.584391 6.59045e-20)
(1.02714 0.559545 7.03956e-21)
(1.02625 0.535555 -3.95265e-21)
(1.0255 0.512533 3.44766e-20)
(1.02494 0.490506 7.35046e-21)
(1.02459 0.469456 -7.19225e-20)
(1.02447 0.449354 2.0632e-20)
(1.02464 0.430183 -2.45168e-20)
(1.02521 0.411919 1.41741e-20)
(1.02647 0.394496 -4.3729e-21)
(1.02819 0.378459 -1.58121e-21)
(1.0297 0.364578 1.24564e-20)
(0.880139 0.678486 -2.10576e-19)
(0.934675 0.702595 -1.3897e-19)
(0.970049 0.70802 -1.89674e-19)
(0.99155 0.700054 -7.04786e-20)
(1.00365 0.683254 5.95788e-20)
(1.0098 0.661198 1.0142e-19)
(1.0125 0.636463 -7.60732e-20)
(1.01337 0.610754 -4.15321e-20)
(1.0134 0.5851 -2.3545e-20)
(1.01314 0.560066 4.18459e-20)
(1.01288 0.53592 -3.82472e-20)
(1.01274 0.512766 -4.68716e-21)
(1.01276 0.490624 2.63389e-20)
(1.01296 0.469474 2.29446e-20)
(1.01335 0.449283 3.79871e-21)
(1.01396 0.43003 -3.03136e-21)
(1.01493 0.411684 4.4556e-21)
(1.01652 0.394182 2.62882e-21)
(1.01857 0.378059 -9.08733e-21)
(1.0206 0.364132 1.17537e-21)
(0.787487 0.635959 -6.9664e-21)
(0.86515 0.683501 -1.22151e-19)
(0.918497 0.706661 1.04903e-19)
(0.953208 0.711158 1.38188e-19)
(0.974495 0.702383 5.6522e-20)
(0.986724 0.684927 6.95247e-20)
(0.99326 0.662368 -9.77169e-20)
(0.99649 0.637257 -8.44837e-20)
(0.997976 0.611268 1.17461e-20)
(0.998662 0.585404 3.08156e-20)
(0.999066 0.560204 -7.79062e-21)
(0.999449 0.535924 1.11118e-20)
(0.999924 0.512657 3.55019e-21)
(1.00053 0.490418 -1.36351e-20)
(1.00129 0.469183 1.05635e-20)
(1.0022 0.448919 -8.25914e-21)
(1.00328 0.429599 9.89377e-21)
(1.00464 0.411188 3.93071e-21)
(1.00656 0.393626 -9.09126e-21)
(1.0089 0.377415 2.28567e-20)
(1.01146 0.363411 1.57716e-20)
(0.773809 0.641165 -1.35269e-19)
(0.849761 0.687879 1.95564e-19)
(0.901976 0.710094 -1.69285e-19)
(0.936086 0.713688 -1.45264e-19)
(0.957213 0.704136 4.67034e-20)
(0.969622 0.686063 -4.28997e-20)
(0.976573 0.663037 6.9165e-21)
(0.980365 0.637584 8.59455e-20)
(0.982491 0.611346 -2.13299e-22)
(0.983846 0.585297 -1.05439e-20)
(0.984919 0.559956 2.40724e-20)
(0.985954 0.535562 -1.12361e-20)
(0.987056 0.512201 1.79359e-20)
(0.988263 0.489882 6.792e-21)
(0.989584 0.468579 -2.95843e-21)
(0.991022 0.448257 2.85556e-21)
(0.992588 0.428885 4.93583e-21)
(0.994372 0.410424 2.13319e-20)
(0.996604 0.392821 3.0697e-20)
(0.999197 0.376517 -1.6072e-20)
(1.00227 0.362383 -3.32229e-20)
(0.656704 0.569445 4.83802e-20)
(0.759716 0.645743 3.35375e-20)
(0.833999 0.691609 -2.32152e-19)
(0.885139 0.712887 2.95794e-19)
(0.918706 0.715603 8.65191e-20)
(0.939728 0.70531 6.78398e-20)
(0.952361 0.686657 -6.07138e-20)
(0.959762 0.6632 3.51955e-20)
(0.964141 0.637439 -3.45764e-20)
(0.966925 0.610983 1.10451e-20)
(0.968963 0.584777 2.85716e-20)
(0.970715 0.559317 7.10792e-21)
(0.972409 0.534832 1.37124e-20)
(0.974145 0.511396 3.92794e-21)
(0.975956 0.489014 -1.47894e-20)
(0.977852 0.467658 8.91924e-21)
(0.979831 0.447292 -2.74544e-20)
(0.981899 0.427882 -3.69154e-20)
(0.984129 0.409385 -3.29463e-20)
(0.986685 0.391762 -3.53023e-20)
(0.989488 0.37535 1.55533e-20)
(0.993077 0.361001 1.28513e-20)
(0.51058 0.462391 3.13705e-20)
(0.64448 0.573975 2.22102e-20)
(0.745236 0.649682 -1.2359e-21)
(0.817894 0.694683 -1.54251e-20)
(0.868015 0.715033 -2.59083e-20)
(0.901096 0.716897 -6.34312e-21)
(0.922064 0.705899 -4.71617e-20)
(0.934963 0.686704 4.8822e-21)
(0.942845 0.662855 -2.47979e-20)
(0.947834 0.636819 -1.05211e-20)
(0.951293 0.610175 -2.17858e-20)
(0.954025 0.583838 -3.46661e-20)
(0.956466 0.558285 -4.38864e-22)
(0.958827 0.533729 -3.15212e-21)
(0.961201 0.510238 5.96956e-21)
(0.963623 0.487811 1.29086e-20)
(0.966099 0.466418 -1.34213e-20)
(0.968628 0.446021 3.20583e-20)
(0.971216 0.426582 -2.20964e-20)
(0.973919 0.408061 5.12518e-21)
(0.97681 0.39044 3.61589e-20)
(0.979806 0.373899 -2.459e-20)
(0.983989 0.359215 7.76732e-21)
(0.500857 0.466469 8.04301e-20)
(0.631878 0.577912 4.14928e-20)
(0.730396 0.652973 8.40494e-20)
(0.801474 0.697092 -5.04181e-20)
(0.850631 0.716526 1.55671e-20)
(0.883281 0.717567 5.79263e-20)
(0.904243 0.705899 -8.38231e-20)
(0.917447 0.686201 6.84977e-21)
(0.92584 0.661996 6.6378e-21)
(0.931462 0.635721 -7.23853e-21)
(0.93561 0.608919 -1.25581e-21)
(0.939048 0.582478 1.2951e-20)
(0.942184 0.556856 -5.35702e-21)
(0.945218 0.532251 4.23192e-21)
(0.948237 0.508725 -2.21813e-20)
(0.951271 0.48627 7.28782e-22)
(0.954332 0.464856 3.91099e-20)
(0.957417 0.44444 2.3752e-20)
(0.960538 0.424981 -1.61165e-20)
(0.963737 0.406443 -8.05467e-20)
(0.966979 0.388831 4.89718e-20)
(0.970222 0.372127 5.02665e-20)
(0.975194 0.357013 -5.16977e-20)
(0.32676 0.317779 -2.68968e-20)
(0.490798 0.470041 -3.23025e-20)
(0.618922 0.581243 -2.65207e-21)
(0.715226 0.655608 -9.99716e-20)
(0.784768 0.698831 1.62259e-19)
(0.833015 0.717361 -1.27042e-19)
(0.865287 0.717607 -6.63625e-20)
(0.886289 0.705307 8.37042e-20)
(0.899834 0.685145 4.12306e-20)
(0.908766 0.660622 -2.59966e-20)
(0.91504 0.634142 1.91942e-20)
(0.919892 0.607212 -2.5318e-22)
(0.924044 0.580696 4.48202e-21)
(0.927883 0.555028 2.18025e-20)
(0.931594 0.530397 -1.21412e-20)
(0.93526 0.506855 1.77446e-20)
(0.938911 0.484391 -1.81819e-20)
(0.942558 0.462971 -1.79892e-20)
(0.946202 0.44255 -3.83602e-20)
(0.949861 0.423078 7.04531e-20)
(0.953562 0.404525 1.05633e-19)
(0.957178 0.386907 -9.09891e-20)
(0.960842 0.369941 -8.45054e-20)
(0.966728 0.354268 3.96878e-20)
(0.319991 0.320477 1.96199e-20)
(0.480427 0.473099 -2.21412e-20)
(0.605641 0.583961 8.85178e-21)
(0.699754 0.657579 -1.14431e-20)
(0.767806 0.699894 2.47029e-20)
(0.815195 0.717534 7.10468e-20)
(0.847139 0.717015 -1.55121e-20)
(0.868225 0.70412 -5.3569e-22)
(0.882146 0.683534 -1.68139e-20)
(0.891643 0.658731 1.52142e-20)
(0.898585 0.632079 3.62632e-21)
(0.904152 0.605053 2.98319e-21)
(0.909028 0.578487 -1.1706e-20)
(0.913574 0.552799 -2.04621e-20)
(0.917967 0.528164 2.48205e-20)
(0.922283 0.504626 7.65804e-21)
(0.926552 0.482173 1.62098e-20)
(0.930785 0.460764 2.09485e-20)
(0.934986 0.440352 -2.03358e-20)
(0.93918 0.42088 -1.0471e-19)
(0.943371 0.402319 -9.38229e-20)
(0.947402 0.384689 -4.00533e-20)
(0.951769 0.367338 1.13762e-19)
(0.957923 0.349821 6.14879e-20)
(0.119291 0.124243 -4.00434e-20)
(0.31299 0.32281 5.59894e-20)
(0.469764 0.475634 -6.32483e-20)
(0.592061 0.586058 2.29186e-20)
(0.684009 0.65888 -3.19053e-20)
(0.750615 0.700275 2.98645e-20)
(0.797198 0.717041 -3.92312e-20)
(0.828864 0.715788 2.55866e-20)
(0.850074 0.702337 -2.33644e-20)
(0.864404 0.681365 -1.69656e-20)
(0.874487 0.656319 -4.47243e-21)
(0.882114 0.62953 -1.48657e-21)
(0.888408 0.602439 -4.40584e-21)
(0.894012 0.575851 2.47827e-20)
(0.899271 0.550168 3.33851e-20)
(0.904348 0.525551 -1.72216e-20)
(0.909316 0.502039 1.82995e-21)
(0.914204 0.479615 3.11793e-20)
(0.919022 0.458236 2.73368e-20)
(0.923778 0.43785 5.58505e-20)
(0.928497 0.418396 1.20421e-20)
(0.933166 0.399844 8.76518e-20)
(0.93766 0.382217 8.89932e-20)
(0.94271 0.364856 -7.77021e-20)
(0.949025 0.34737 -4.70866e-20)
(0.116631 0.125248 1.84964e-20)
(0.305773 0.324768 3.03136e-20)
(0.458834 0.477637 -8.15162e-21)
(0.578209 0.587526 6.03899e-20)
(0.66802 0.659504 2.02065e-20)
(0.733226 0.699971 -7.14983e-20)
(0.779052 0.715879 -4.14653e-21)
(0.810485 0.713924 -1.86528e-20)
(0.83186 0.699955 1.78908e-20)
(0.846627 0.678638 4.48902e-21)
(0.857318 0.653387 -3.06078e-21)
(0.865645 0.626496 2.50875e-20)
(0.872672 0.599369 -9.27433e-21)
(0.879013 0.572788 -8.30783e-20)
(0.884987 0.547133 3.93449e-20)
(0.89075 0.522558 -1.1317e-20)
(0.896371 0.499093 3.84757e-20)
(0.901878 0.476718 -9.39082e-20)
(0.90728 0.455387 -8.3103e-20)
(0.912588 0.435048 -6.94901e-20)
(0.917824 0.415633 -3.94869e-21)
(0.922962 0.397114 -3.23204e-20)
(0.927902 0.379505 6.83377e-20)
(0.933412 0.362143 -7.22323e-20)
(0.93978 0.34467 -3.79485e-20)
(0.113879 0.126102 -3.96674e-20)
(0.298358 0.326346 8.29965e-22)
(0.447658 0.479102 -3.95209e-20)
(0.564111 0.588359 -3.04367e-20)
(0.651815 0.659448 -3.54415e-20)
(0.715665 0.698979 5.02915e-20)
(0.760783 0.714047 -7.03388e-21)
(0.79203 0.711423 -7.49258e-21)
(0.813604 0.696975 -8.24358e-22)
(0.828836 0.675352 -1.61884e-20)
(0.840155 0.649934 2.87503e-20)
(0.849193 0.622974 -5.08714e-20)
(0.856963 0.595843 1.54894e-20)
(0.864042 0.569295 1.81068e-20)
(0.870734 0.543695 -1.14755e-19)
(0.877185 0.519184 2.59388e-20)
(0.88346 0.495788 -7.7717e-20)
(0.889584 0.473483 1.69527e-19)
(0.895571 0.452221 -5.34091e-20)
(0.901428 0.431946 2.38688e-19)
(0.907176 0.412593 9.05599e-21)
(0.912783 0.394132 -3.72599e-20)
(0.918165 0.376569 -1.16624e-19)
(0.924072 0.359257 7.39075e-20)
(0.930569 0.341908 2.18393e-20)
(0.111042 0.126802 2.45001e-20)
(0.290759 0.327538 -4.65088e-20)
(0.43626 0.480022 2.36906e-20)
(0.549795 0.588552 -2.35131e-20)
(0.635423 0.658708 3.10954e-20)
(0.697963 0.697297 -4.11713e-20)
(0.74242 0.711544 2.32943e-20)
(0.773522 0.708284 1.17921e-20)
(0.795331 0.693396 9.27195e-21)
(0.811053 0.671508 -2.10228e-20)
(0.823015 0.64596 1.97306e-21)
(0.832775 0.618965 7.8881e-20)
(0.841293 0.59186 -3.5001e-20)
(0.849115 0.565373 9.13671e-21)
(0.856527 0.539853 1.01649e-19)
(0.863666 0.515429 1.41605e-21)
(0.870593 0.492124 -1.72589e-20)
(0.877336 0.469909 2.07433e-21)
(0.883905 0.448736 8.40216e-20)
(0.890309 0.428547 -1.83642e-19)
(0.896568 0.409277 7.19316e-21)
(0.902644 0.390895 3.19694e-20)
(0.908467 0.373405 5.37796e-20)
(0.914757 0.356181 1.10422e-19)
(0.921454 0.339023 -6.85216e-20)
(0.108127 0.127344 1.84469e-20)
(0.282993 0.328338 1.85096e-20)
(0.424664 0.480392 3.44643e-20)
(0.535288 0.588101 -6.21103e-21)
(0.618874 0.657282 1.94913e-21)
(0.680148 0.694924 1.61316e-21)
(0.72399 0.70837 -1.04178e-20)
(0.754986 0.704508 -2.84079e-20)
(0.777062 0.68922 8.20604e-21)
(0.793296 0.667105 -1.40878e-20)
(0.805917 0.641465 -3.28973e-21)
(0.816408 0.614469 -4.98983e-20)
(0.825679 0.587421 1.36841e-20)
(0.834246 0.561023 6.46866e-20)
(0.842378 0.535607 -1.25227e-19)
(0.850205 0.511294 2.58789e-20)
(0.857784 0.488102 4.2569e-20)
(0.865143 0.465998 8.91226e-20)
(0.872293 0.444934 5.74787e-20)
(0.879243 0.424851 3.19779e-20)
(0.886011 0.405684 -2.27525e-20)
(0.892558 0.387404 1.25857e-19)
(0.898822 0.370008 5.53004e-20)
(0.905497 0.352903 -1.51583e-19)
(0.912438 0.335962 -5.56859e-20)
(0.10514 0.127727 -7.45795e-21)
(0.275078 0.328742 1.49102e-20)
(0.412892 0.480208 -1.20034e-20)
(0.520618 0.587003 9.35071e-21)
(0.602196 0.655167 -6.74104e-21)
(0.662248 0.69186 2.2017e-20)
(0.705518 0.704526 2.94231e-20)
(0.736448 0.700095 -2.51561e-20)
(0.758819 0.684447 -4.11973e-20)
(0.775587 0.662146 -5.90341e-21)
(0.78888 0.636451 -1.0439e-20)
(0.800109 0.609488 1.16796e-20)
(0.810137 0.582527 -7.92665e-20)
(0.81945 0.556245 -3.49249e-20)
(0.828301 0.530959 7.87522e-20)
(0.836814 0.50678 -7.15733e-21)
(0.845044 0.483722 -8.237e-20)
(0.853018 0.461751 -6.33318e-20)
(0.860747 0.440815 1.05039e-19)
(0.868242 0.420859 5.19099e-20)
(0.875518 0.401815 -1.70569e-20)
(0.882537 0.383658 -4.1582e-20)
(0.889244 0.366378 9.02399e-20)
(0.896309 0.349415 4.39388e-20)
(0.903527 0.332705 1.90289e-19)
(0.102088 0.127948 -6.72953e-21)
(0.26703 0.328747 -3.47271e-21)
(0.400968 0.479468 1.2896e-21)
(0.505811 0.585256 2.44288e-21)
(0.585417 0.652364 -3.16535e-21)
(0.64429 0.688105 -2.86511e-20)
(0.687033 0.700013 -2.33676e-20)
(0.717932 0.695049 1.34172e-20)
(0.740625 0.679079 3.10261e-20)
(0.757945 0.656632 1.00321e-19)
(0.771922 0.630919 3.80155e-20)
(0.783895 0.604023 -3.04043e-20)
(0.794681 0.577179 1.44452e-19)
(0.804739 0.551041 -1.57232e-20)
(0.814309 0.525909 -3.24131e-20)
(0.823506 0.501888 -4.27545e-20)
(0.832385 0.478986 -3.11892e-20)
(0.840971 0.457168 -2.7554e-19)
(0.849277 0.436382 -2.52942e-19)
(0.857315 0.416571 6.22169e-20)
(0.865099 0.397671 5.20934e-20)
(0.872591 0.379655 6.38069e-20)
(0.879744 0.362512 -2.05838e-19)
(0.887206 0.345711 -1.15863e-19)
(0.894722 0.32924 -1.61185e-19)
(0.0989785 0.128006 -6.53521e-21)
(0.258866 0.328349 7.94672e-21)
(0.388916 0.478167 1.07049e-20)
(0.490896 0.58286 -1.83489e-20)
(0.568567 0.648874 1.84033e-20)
(0.626305 0.683661 2.44977e-20)
(0.668559 0.694834 2.35034e-20)
(0.699461 0.689372 2.70362e-20)
(0.722502 0.67312 -1.67383e-20)
(0.740391 0.650566 -8.82307e-20)
(0.75506 0.624871 -4.91061e-20)
(0.767781 0.598076 -1.18851e-20)
(0.779327 0.571379 2.88336e-20)
(0.79013 0.545411 1.06725e-19)
(0.800416 0.520459 -1.29824e-19)
(0.810295 0.496619 1.04326e-19)
(0.819819 0.473895 6.89766e-21)
(0.829015 0.452251 2.47729e-19)
(0.837896 0.431634 1.69747e-19)
(0.846474 0.411988 -1.62138e-20)
(0.854764 0.393251 -1.39485e-19)
(0.862731 0.375395 -1.53801e-19)
(0.870331 0.358407 8.85952e-20)
(0.878197 0.341786 2.98151e-19)
(0.886027 0.325562 -6.97936e-20)
(0.095818 0.127899 -5.37821e-21)
(0.250603 0.327547 -1.30009e-20)
(0.37676 0.476306 -1.96378e-20)
(0.475899 0.579813 1.36696e-20)
(0.551673 0.644696 -1.91383e-20)
(0.608317 0.678531 -3.55427e-20)
(0.650123 0.688991 -6.18257e-20)
(0.68106 0.683067 5.97291e-20)
(0.704472 0.666573 1.77287e-20)
(0.722944 0.643951 9.71224e-20)
(0.738313 0.618311 1.27008e-19)
(0.751785 0.591649 -1.32105e-20)
(0.76409 0.565128 7.89852e-20)
(0.775635 0.539359 -2.36563e-19)
(0.786634 0.514611 6.73936e-20)
(0.797192 0.490975 4.09015e-20)
(0.807359 0.468452 2.2851e-20)
(0.817161 0.447002 -1.8756e-19)
(0.826614 0.426574 5.1541e-20)
(0.83573 0.407112 1.81965e-20)
(0.844525 0.388556 2.63236e-19)
(0.852965 0.370878 -1.41471e-19)
(0.861015 0.354061 1.11721e-19)
(0.869288 0.337636 -1.0504e-19)
(0.877445 0.321663 1.67036e-19)
(0.0926136 0.127626 -2.06214e-20)
(0.242259 0.32634 2.67202e-20)
(0.364523 0.473883 5.24092e-20)
(0.460847 0.576118 -1.39499e-20)
(0.534763 0.639835 -3.24063e-20)
(0.590356 0.672718 8.63851e-21)
(0.631751 0.68249 9.03099e-20)
(0.662753 0.676138 -7.56183e-20)
(0.686556 0.659443 3.24397e-20)
(0.705623 0.636791 -4.53811e-20)
(0.721698 0.611242 1.05324e-20)
(0.735922 0.584745 -1.66645e-20)
(0.748985 0.558432 -1.48535e-19)
(0.761269 0.532886 6.08833e-20)
(0.772978 0.508368 2.48204e-20)
(0.78421 0.484959 -1.3833e-21)
(0.795015 0.462657 -6.89433e-20)
(0.80542 0.441422 6.4488e-20)
(0.815441 0.421203 -8.79702e-20)
(0.825092 0.401944 1.33432e-19)
(0.834391 0.383586 -2.87314e-19)
(0.843304 0.366102 1.12611e-19)
(0.851804 0.349473 -2.63389e-19)
(0.860486 0.333258 4.24532e-20)
(0.868979 0.317541 -1.78381e-19)
(0.0893724 0.127186 1.91882e-21)
(0.233851 0.324725 -5.68605e-21)
(0.352229 0.470899 -3.81772e-20)
(0.445767 0.571775 -3.91141e-20)
(0.517865 0.634292 1.51298e-20)
(0.572449 0.666227 3.51674e-20)
(0.613469 0.675335 -1.44491e-19)
(0.644562 0.668591 9.4793e-20)
(0.668775 0.651732 -3.1071e-20)
(0.688448 0.62909 1.54917e-20)
(0.705233 0.603668 -4.05741e-20)
(0.72021 0.577369 -1.05288e-19)
(0.734027 0.551291 1.90352e-20)
(0.747047 0.525997 1.47503e-19)
(0.75946 0.501732 -1.20071e-19)
(0.771361 0.478573 8.52082e-20)
(0.7828 0.456514 1.31381e-19)
(0.793803 0.435514 3.09473e-20)
(0.804388 0.415523 -2.61284e-19)
(0.814572 0.396485 -1.24521e-19)
(0.824371 0.378342 1.26893e-19)
(0.833756 0.36107 5.99134e-20)
(0.842705 0.344644 1.85653e-19)
(0.851798 0.328651 -2.3493e-19)
(0.860633 0.313195 1.45099e-19)
(0.0861017 0.126578 -2.07222e-20)
(0.225395 0.322704 5.40238e-20)
(0.3399 0.467355 5.43224e-21)
(0.430687 0.566789 8.21695e-20)
(0.501007 0.628074 -3.20735e-20)
(0.554621 0.659062 -3.78347e-20)
(0.5953 0.667532 5.24129e-21)
(0.626512 0.660431 7.07418e-20)
(0.651151 0.643448 -3.35559e-20)
(0.671438 0.620854 -7.25549e-20)
(0.688936 0.595593 2.84053e-20)
(0.704663 0.569524 4.21983e-20)
(0.719231 0.54371 3.10938e-21)
(0.732981 0.518693 -4.15501e-20)
(0.746093 0.494707 -2.68836e-20)
(0.758658 0.47182 9.32852e-20)
(0.770724 0.450025 -2.30818e-19)
(0.782321 0.42928 -1.15915e-20)
(0.793466 0.409536 4.78672e-19)
(0.804178 0.390737 1.55953e-19)
(0.814475 0.372827 1.48206e-19)
(0.824329 0.35578 9.65685e-20)
(0.833726 0.339572 1.01331e-19)
(0.843229 0.323814 1.63963e-19)
(0.85241 0.308625 4.42042e-20)
(0.0828084 0.125803 6.01206e-21)
(0.21691 0.320277 3.36351e-20)
(0.327562 0.463253 5.35651e-20)
(0.415631 0.561162 -8.27816e-20)
(0.484216 0.621184 7.34531e-20)
(0.5369 0.651231 1.27343e-20)
(0.577271 0.659086 -9.92855e-21)
(0.608623 0.651665 -8.38479e-20)
(0.633704 0.634596 -3.79042e-20)
(0.654611 0.612087 5.57463e-20)
(0.672824 0.587023 -1.54999e-20)
(0.689299 0.561216 3.9704e-20)
(0.704612 0.535694 2.37943e-19)
(0.719086 0.510981 -9.82699e-20)
(0.73289 0.487296 -1.15889e-20)
(0.746112 0.464703 -6.3414e-20)
(0.758801 0.443193 -9.1278e-20)
(0.770985 0.422724 5.13365e-20)
(0.782685 0.403245 -1.97549e-19)
(0.79392 0.384702 -1.24425e-19)
(0.804711 0.367041 -6.54334e-20)
(0.815031 0.350236 -2.04707e-19)
(0.824875 0.33426 -2.77686e-19)
(0.834785 0.318749 2.07637e-19)
(0.844314 0.303832 -5.83067e-20)
(0.0794999 0.124861 2.76928e-20)
(0.208412 0.317445 -1.44115e-20)
(0.315236 0.458598 -1.00614e-19)
(0.400626 0.5549 1.33853e-19)
(0.467518 0.613629 -8.885e-20)
(0.519312 0.642739 1.26351e-20)
(0.559406 0.650006 -6.5734e-21)
(0.59092 0.642299 -4.87299e-20)
(0.616454 0.625183 -1.10945e-19)
(0.637987 0.602795 -9.59012e-20)
(0.656913 0.577963 2.3319e-20)
(0.674132 0.552448 -5.30139e-20)
(0.690185 0.527248 -2.07523e-19)
(0.705375 0.502863 1.29636e-19)
(0.719864 0.479503 1.89447e-19)
(0.733737 0.457227 -1.3195e-19)
(0.74704 0.436023 3.15432e-19)
(0.759806 0.415847 1.72731e-20)
(0.772054 0.396652 -5.892e-20)
(0.783808 0.378383 -1.37931e-19)
(0.795087 0.360987 -2.6772e-19)
(0.805871 0.344438 -1.15935e-19)
(0.816157 0.328708 -2.20692e-19)
(0.826472 0.313455 -2.55928e-19)
(0.836351 0.298816 5.72146e-20)
(0.0761831 0.123751 3.85571e-20)
(0.199917 0.31421 -5.16875e-20)
(0.302945 0.453391 5.49046e-20)
(0.385699 0.548008 -8.41381e-20)
(0.450941 0.605415 8.44613e-20)
(0.501881 0.633595 -1.07374e-19)
(0.541727 0.640299 3.74865e-20)
(0.573424 0.632341 5.86898e-20)
(0.599421 0.615215 1.88622e-20)
(0.621584 0.592987 5.56432e-20)
(0.64122 0.568419 7.35979e-20)
(0.659177 0.543227 -1.60062e-19)
(0.675963 0.518375 1.11588e-19)
(0.691862 0.494344 1.50316e-20)
(0.707028 0.471333 -5.37165e-20)
(0.721543 0.449396 1.80872e-19)
(0.735454 0.428517 -1.47525e-19)
(0.748793 0.408655 -7.65623e-20)
(0.761584 0.389761 -2.7958e-20)
(0.77385 0.371782 2.56918e-19)
(0.785614 0.354667 3.78345e-19)
(0.796855 0.338389 -9.9234e-20)
(0.807581 0.322918 2.29004e-19)
(0.818296 0.307935 5.08836e-20)
(0.0728653 0.122474 -4.96801e-20)
(0.191444 0.310575 -5.90505e-20)
(0.290713 0.447639 -4.93776e-20)
(0.370874 0.540493 7.12528e-20)
(0.434509 0.596552 -4.53033e-20)
(0.484634 0.623806 1.29601e-20)
(0.52426 0.629973 2.91925e-21)
(0.556157 0.6218 2.06926e-19)
(0.582626 0.604702 -1.77621e-19)
(0.605419 0.582668 -1.05379e-20)
(0.625763 0.558398 -2.17892e-19)
(0.644452 0.533559 1.34129e-19)
(0.661961 0.509083 -1.33647e-19)
(0.67856 0.485431 -1.23306e-19)
(0.694394 0.462791 -9.41927e-21)
(0.709542 0.441213 -1.11508e-19)
(0.724053 0.42068 9.07978e-20)
(0.737958 0.401151 -4.29647e-21)
(0.751285 0.382576 2.676e-19)
(0.764056 0.364903 -1.42778e-19)
(0.776298 0.348084 -7.83165e-20)
(0.787993 0.332091 1.1072e-19)
(0.799152 0.316892 -2.47696e-20)
(0.810262 0.302191 1.71371e-19)
(0.0695535 0.121033 -2.1771e-20)
(0.183008 0.306544 6.46054e-20)
(0.278561 0.441347 9.15231e-20)
(0.356177 0.532362 -1.93376e-19)
(0.418249 0.587047 -7.88598e-21)
(0.467594 0.613383 -7.9755e-22)
(0.507026 0.619039 -2.37372e-20)
(0.539139 0.610685 -1.42142e-19)
(0.566086 0.593651 1.5834e-19)
(0.58951 0.571848 -1.49167e-20)
(0.610556 0.547908 1.93453e-19)
(0.629969 0.523451 2.4873e-20)
(0.648193 0.499378 2.1851e-19)
(0.665482 0.476128 2.79481e-20)
(0.681974 0.453883 -4.41244e-20)
(0.697746 0.432685 -2.44476e-19)
(0.712847 0.412518 -1.07607e-19)
(0.727311 0.393339 -1.83738e-20)
(0.741165 0.3751 -1.29637e-19)
(0.754435 0.35775 -2.5726e-20)
(0.767148 0.341242 2.11936e-19)
(0.77929 0.325547 7.91664e-20)
(0.790877 0.310634 2.20057e-19)
(0.802377 0.296225 -2.30743e-19)
(0.0662546 0.119427 1.5469e-20)
(0.174627 0.30212 2.62085e-20)
(0.266512 0.434522 1.37512e-20)
(0.341632 0.523624 4.25013e-20)
(0.402186 0.57691 -5.04382e-20)
(0.450787 0.602336 2.92402e-20)
(0.490049 0.607506 -3.28332e-20)
(0.522391 0.599005 2.20647e-20)
(0.549823 0.582071 1.80717e-19)
(0.573874 0.560533 1.35932e-20)
(0.595617 0.536956 -1.06459e-19)
(0.615744 0.51291 2.76133e-19)
(0.634673 0.489265 -1.37583e-19)
(0.652641 0.466443 -7.55473e-20)
(0.66978 0.444613 9.65017e-20)
(0.686167 0.423817 -5.87849e-20)
(0.701848 0.404034 1.05091e-19)
(0.716861 0.385224 5.95098e-21)
(0.731234 0.367338 1.24225e-19)
(0.744995 0.350327 -1.34054e-19)
(0.758172 0.334144 5.59985e-20)
(0.770754 0.318761 1.25309e-19)
(0.782763 0.304146 -3.02088e-19)
(0.0629757 0.117658 -1.5643e-20)
(0.166316 0.297308 -8.90202e-20)
(0.254588 0.42717 -2.29995e-19)
(0.327264 0.514289 2.13919e-19)
(0.386345 0.566152 9.45611e-20)
(0.434235 0.590675 7.3665e-20)
(0.473351 0.595384 -2.76636e-20)
(0.505934 0.58677 2.12103e-19)
(0.533853 0.569973 6.35906e-21)
(0.558529 0.548733 -3.21204e-19)
(0.580961 0.52555 -2.68895e-19)
(0.601792 0.501944 -5.7814e-20)
(0.621414 0.478753 2.99938e-19)
(0.640049 0.456381 5.11234e-21)
(0.657824 0.434989 -2.71144e-20)
(0.674814 0.414614 7.45129e-20)
(0.691066 0.395235 -7.71563e-20)
(0.706618 0.37681 -9.36663e-20)
(0.721501 0.359294 -1.33923e-19)
(0.735744 0.342638 1.61748e-19)
(0.749377 0.326795 -2.73867e-19)
(0.762393 0.311737 -2.79887e-19)
(0.774817 0.297432 3.69563e-19)
(0.0597235 0.115729 7.82954e-20)
(0.158092 0.292114 1.15632e-20)
(0.242809 0.4193 2.13577e-19)
(0.313096 0.504365 -1.05986e-19)
(0.370749 0.554783 1.35341e-19)
(0.417962 0.578412 -5.89675e-20)
(0.456953 0.582686 -5.66334e-21)
(0.489788 0.573992 -1.92484e-19)
(0.518195 0.557365 7.35635e-20)
(0.543491 0.536458 2.09924e-19)
(0.566602 0.513699 2.0794e-19)
(0.588127 0.49056 1.73575e-19)
(0.608429 0.467848 -1.90611e-19)
(0.627719 0.44595 4.99631e-20)
(0.646119 0.425017 -3.16611e-19)
(0.663699 0.405083 2.06065e-19)
(0.680511 0.386126 1.78321e-19)
(0.696592 0.368105 -6.59454e-20)
(0.711975 0.350974 -1.75054e-19)
(0.726692 0.334687 -1.3721e-19)
(0.740772 0.319198 -1.16515e-19)
(0.754213 0.304479 5.17466e-20)
(0.767044 0.290497 -6.14417e-20)
(0.056505 0.113642 8.27258e-20)
(0.149969 0.286543 1.1998e-19)
(0.231197 0.410921 -1.37557e-19)
(0.299151 0.493865 -7.99752e-20)
(0.355422 0.542817 -2.0824e-19)
(0.401991 0.565559 -1.89099e-20)
(0.440876 0.569424 5.09926e-20)
(0.473971 0.560682 -7.78797e-20)
(0.502867 0.54426 -9.70204e-20)
(0.528777 0.523718 2.74751e-19)
(0.552556 0.501413 3.18877e-20)
(0.574761 0.478768 -2.73473e-19)
(0.595731 0.456559 9.2662e-20)
(0.615663 0.435157 -7.53192e-20)
(0.634674 0.414704 1.34688e-19)
(0.652833 0.39523 8.08146e-20)
(0.670193 0.376713 -1.78687e-19)
(0.686792 0.359113 2.93847e-19)
(0.702665 0.342384 9.46487e-20)
(0.717845 0.326481 8.49506e-20)
(0.732364 0.311359 -2.92822e-20)
(0.746222 0.296991 3.8345e-19)
(0.759451 0.283343 -1.5867e-20)
(0.0533267 0.111399 -9.57053e-20)
(0.141965 0.280603 1.18328e-19)
(0.219773 0.402043 7.59761e-20)
(0.285453 0.482799 7.5562e-21)
(0.340387 0.530264 9.99322e-20)
(0.386344 0.552129 -1.07368e-19)
(0.425142 0.55561 2.88748e-20)
(0.458504 0.546852 -1.8078e-20)
(0.487885 0.530669 -3.23624e-20)
(0.514401 0.510523 -1.40299e-19)
(0.538838 0.488701 -2.68771e-19)
(0.56171 0.466577 1.13748e-20)