/*--------------------------------*- C++ -*----------------------------------*\
  =========                 |
  \\      /  F ield         | OpenFOAM: The Open Source CFD Toolbox
   \\    /   O peration     | Website:  https://openfoam.org
    \\  /    A nd           | Version:  7
     \\/     M anipulation  |
\*---------------------------------------------------------------------------*/
FoamFile
{
    version     2.0;
    format      ascii;
    class       surfaceScalarField;
    location    "220";
    object      phi;
}
// * * * * * * * * * * * * * * * * * * * * * * * * * * * * * * * * * * * * * //

dimensions      [0 3 -1 0 0 0 0];

internalField   nonuniform List<scalar> 
13975
(
2.82254e-06
-2.65227e-05
-9.92591e-05
2.94731e-06
-2.947e-05
1.19947e-05
-0.000108306
2.7504e-05
-0.000209431
-0.000332991
3.07112e-06
-3.25411e-05
1.24406e-05
-0.000117676
2.84219e-05
-0.000225412
5.11973e-05
-0.000355766
8.073e-05
-0.000507885
0.000116685
-0.00067988
-0.00086876
3.19351e-06
-3.57346e-05
1.28771e-05
-0.00012736
2.9311e-05
-0.000241846
5.26103e-05
-0.000379066
8.26535e-05
-0.000537928
0.000119006
-0.000716233
0.000160875
-0.000910629
0.000207106
-0.0011167
0.000256242
-0.00132921
-0.00154251
3.31399e-06
-3.90486e-05
1.3302e-05
-0.000137348
3.01671e-05
-0.000258711
5.39525e-05
-0.000402851
8.44486e-05
-0.000568424
0.00012112
-0.000752904
0.000163066
-0.000952575
0.000209038
-0.00116267
0.000257505
-0.00137767
0.000306786
-0.00159179
0.000355207
-0.00179949
0.000401266
-0.00199606
-0.002178
3.43204e-06
-4.24807e-05
1.37136e-05
-0.000147629
3.09864e-05
-0.000275984
5.52175e-05
-0.000427082
8.61061e-05
-0.000599313
0.000123014
-0.000789812
0.000164938
-0.0009945
0.000210538
-0.00120827
0.00025822
-0.00142536
0.000306284
-0.00163985
0.000353079
-0.00184629
0.000397174
-0.00204015
0.000437482
-0.00221831
0.000473327
-0.00237917
0.000504456
-0.00252264
0.000530989
-0.0026499
-0.00276307
3.54714e-06
-4.60278e-05
1.411e-05
-0.000158192
3.17647e-05
-0.000293639
5.63987e-05
-0.000451716
8.76173e-05
-0.000630531
0.00012468
-0.000826874
0.000166482
-0.0010363
0.000211599
-0.00125339
0.000258389
-0.00147215
0.000305138
-0.0016866
0.000350237
-0.00189138
0.000392331
-0.00208225
0.000430439
-0.00225642
0.000464003
-0.00241274
0.00049288
-0.00255152
0.000517278
-0.0026743
0.000537661
-0.00278345
0.000554645
-0.00288177
0.000568901
-0.00297215
0.000581071
-0.00305724
-0.00313936
3.65877e-06
-4.96866e-05
1.44893e-05
-0.000169022
3.24983e-05
-0.000311648
5.74903e-05
-0.000476708
8.89745e-05
-0.000662016
0.000126108
-0.000864008
0.00016769
-0.00107788
0.00021222
-0.00129792
0.000258015
-0.00151794
0.000303364
-0.00173195
0.000346706
-0.00193473
0.000386773
-0.00212231
0.000422693
-0.00229234
0.00045402
-0.00244406
0.000480715
-0.00257821
0.000503065
-0.00269665
0.000521585
-0.00280197
0.000536911
-0.0028971
0.000549708
-0.00298494
0.000560598
-0.00306813
0.000570113
-0.00314887
0.000578677
-0.00322888
0.0005866
-0.00330938
0.00059409
-0.00339112
-0.00347443
0.000601277
3.76645e-06
-5.3453e-05
1.48496e-05
-0.000180106
3.31836e-05
-0.000329982
5.84867e-05
-0.000502011
9.01705e-05
-0.000693699
0.000127291
-0.000901129
0.000168557
-0.00111915
0.0002124
-0.00134176
0.000257106
-0.00156265
0.000300979
-0.00177583
0.000342517
-0.00197626
0.000380543
-0.00216034
0.000414293
-0.00232609
0.000443435
-0.0024732
0.000468021
-0.0026028
0.000488411
-0.00271704
0.000505158
-0.00281872
0.000518912
-0.00291085
0.000530328
-0.00299636
0.00054
-0.00307781
0.000548429
-0.0031573
0.000556
-0.00323645
0.000562992
-0.00331637
0.000569588
-0.00339771
-0.00348074
0.000575894
3.86967e-06
-5.73227e-05
1.51893e-05
-0.000191425
3.38172e-05
-0.00034861
5.93827e-05
-0.000527577
9.11994e-05
-0.000725516
0.000128225
-0.000938154
0.000169081
-0.00116001
0.000212141
-0.00138482
0.000255672
-0.00160618
0.000298003
-0.00181816
0.000337699
-0.00201596
0.000373679
-0.00219632
0.000405289
-0.0023577
0.0004323
-0.00250022
0.000454854
-0.00262535
0.000473368
-0.00273555
0.00048843
-0.00283378
0.000500693
-0.00292312
0.000510797
-0.00300646
0.000519309
-0.00308632
0.000526692
-0.00316469
0.000533302
-0.00324306
0.000539384
-0.00332245
0.000545097
-0.00340343
-0.00348617
0.00055053
3.96797e-06
-6.12906e-05
1.55068e-05
-0.000202964
3.43958e-05
-0.000367499
6.01737e-05
-0.000553355
9.20559e-05
-0.000757398
0.000128904
-0.000975002
0.00016926
-0.00120036
0.000211448
-0.00142701
0.000253725
-0.00164845
0.000294459
-0.00185889
0.000332286
-0.00205379
0.000366225
-0.00223026
0.000395728
-0.0023872
0.000420669
-0.00252516
0.000441265
-0.00264595
0.000457988
-0.00275227
0.000471446
-0.00284724
0.000482294
-0.00293397
0.000491149
-0.00301532
0.000498549
-0.00309372
0.000504926
-0.00317106
0.000510599
-0.00324874
0.000515787
-0.00332764
0.000520627
-0.00340827
-0.00349074
0.000525193
4.06087e-06
-6.53515e-05
1.58005e-05
-0.000214704
3.49166e-05
-0.000386615
6.08557e-05
-0.000579294
9.27356e-05
-0.000789278
0.000129325
-0.00101159
0.000169094
-0.00124013
0.000210326
-0.00146824
0.000251281
-0.00168941
0.00029037
-0.00189798
0.00032631
-0.00208973
0.00035822
-0.00226217
0.000385659
-0.00241464
0.000408591
-0.00254809
0.000427306
-0.00266466
0.000442317
-0.00276728
0.000454249
-0.00285917
0.000463749
-0.00294347
0.000471412
-0.00302298
0.000477745
-0.00310005
0.000483146
-0.00317646
0.000487904
-0.00325349
0.000492213
-0.00333195
0.000496188
-0.00341224
-0.00349444
0.00049989
4.14795e-06
-6.94995e-05
1.60689e-05
-0.000226625
3.53769e-05
-0.000405923
6.14253e-05
-0.000605342
9.32353e-05
-0.000821088
0.000129488
-0.00104784
0.000168587
-0.00127923
0.000208786
-0.00150844
0.000248356
-0.00172898
0.000285763
-0.00193539
0.000319807
-0.00212377
0.000349708
-0.00229207
0.000375127
-0.00244006
0.000396114
-0.00256907
0.000413022
-0.00268157
0.000426398
-0.00278066
0.000436876
-0.00286965
0.000445091
-0.00295168
0.000451613
-0.0030295
0.000456917
-0.00310535
0.00046137
-0.00318092
0.000465231
-0.00325736
0.000468671
-0.00333539
0.000471788
-0.00341536
-0.00349728
0.00047463
4.22878e-06
-7.37283e-05
1.63107e-05
-0.000238707
3.57744e-05
-0.000425386
6.18794e-05
-0.000631447
9.35525e-05
-0.000852761
0.000129391
-0.00108368
0.000167742
-0.00131758
0.000206837
-0.00154753
0.000244969
-0.00176711
0.000280664
-0.00197108
0.00031281
-0.00215591
0.000340729
-0.00231999
0.000364177
-0.00246351
0.000383283
-0.00258818
0.000398457
-0.00269674
0.00041027
-0.00279247
0.000419361
-0.00287874
0.000426348
-0.00295867
0.000431774
-0.00303493
0.000436084
-0.00310966
0.000439611
-0.00318444
0.000442591
-0.00326034
0.000445171
-0.00333797
0.000447435
-0.00341763
-0.00349927
0.000449419
4.30297e-06
-7.80312e-05
1.65247e-05
-0.000250928
3.61069e-05
-0.000444969
6.22158e-05
-0.000657556
9.36857e-05
-0.000884231
0.000129037
-0.00111903
0.000166565
-0.00135511
0.000204492
-0.00158546
0.00024114
-0.00180376
0.0002751
-0.00200504
0.000305354
-0.00218617
0.000331321
-0.00234596
0.00035285
-0.00248504
0.000370141
-0.00260547
0.00038365
-0.00271025
0.00039397
-0.00280279
0.000401736
-0.0028865
0.000407546
-0.00296448
0.000411917
-0.0030393
0.00041526
-0.00311301
0.000417883
-0.00318706
0.000419993
-0.00326245
0.000421721
-0.0033397
0.000423136
-0.00341904
-0.0035004
0.000424264
4.37075e-06
-8.2402e-05
1.6711e-05
-0.000263269
3.63748e-05
-0.000464632
6.24351e-05
-0.000683616
9.36376e-05
-0.000915434
0.000128431
-0.00115383
0.000165068
-0.00139175
0.000201769
-0.00162216
0.000236894
-0.00183888
0.000269107
-0.00203726
0.00029748
-0.00221454
0.000321531
-0.00237001
0.000341193
-0.0025047
0.000356734
-0.00262101
0.000368646
-0.00272216
0.000377537
-0.00281169
0.000384034
-0.002893
0.000388714
-0.00296916
0.000392065
-0.00304265
0.000394468
-0.00311541
0.000396201
-0.0031888
0.000397453
-0.0032637
0.000398334
-0.00334058
0.000398902
-0.00341961
-0.00350067
0.000399175
4.43065e-06
-8.68326e-05
1.68663e-05
-0.000275704
3.65728e-05
-0.000484339
6.25313e-05
-0.000709575
9.34023e-05
-0.000946305
0.000127568
-0.00118799
0.00016325
-0.00142743
0.000198673
-0.00165758
0.000232243
-0.00187245
0.0002627
-0.00206771
0.000289209
-0.00224105
0.000311383
-0.00239218
0.000329233
-0.00252255
0.000343086
-0.00263487
0.000353466
-0.00273254
0.000360989
-0.00281921
0.000366269
-0.00289828
0.000369861
-0.00297275
0.000372222
-0.00304501
0.000373706
-0.00311689
0.000374566
-0.00318966
0.000374967
-0.0032641
0.000375006
-0.00334062
0.00037473
-0.00341933
-0.00350009
0.00037415
4.48295e-06
-9.13156e-05
1.6991e-05
-0.000288212
3.67017e-05
-0.00050405
6.25062e-05
-0.000735379
9.29839e-05
-0.000976782
0.000126458
-0.00122147
0.000161126
-0.0014621
0.000195224
-0.00169168
0.000227214
-0.00190444
0.000255914
-0.00209641
0.000280582
-0.00226572
0.000300919
-0.00241252
0.000317013
-0.00253864
0.000329239
-0.00264709
0.000338148
-0.00274145
0.000344358
-0.00282542
0.000348469
-0.00290239
0.00035101
-0.00297529
0.00035241
-0.00304641
0.000352994
-0.00311748
0.000352991
-0.00318966
0.000352548
-0.00326366
0.000351749
-0.00333982
0.000350631
-0.00341821
-0.00349866
0.000349198
4.52736e-06
-9.58429e-05
1.70843e-05
-0.000300769
3.67607e-05
-0.000523726
6.23597e-05
-0.000760978
9.23844e-05
-0.00100681
0.000125106
-0.00125419
0.000158705
-0.00149569
0.00019144
-0.00172442
0.000221831
-0.00193483
0.000248778
-0.00212336
0.000271629
-0.00228857
0.000290173
-0.00243106
0.000304565
-0.00255304
0.000315224
-0.00265775
0.00032272
-0.00274895
0.000327669
-0.00283037
0.000330654
-0.00290538
0.000332177
-0.00297681
0.00033264
-0.00304688
0.00033234
-0.00311718
0.000331484
-0.0031888
0.000330203
-0.00326238
0.000328569
-0.00333818
0.00032661
-0.00341626
-0.00349637
0.000324326
4.56364e-06
-0.000100407
1.71457e-05
-0.000313351
3.67492e-05
-0.000543329
6.20923e-05
-0.000786322
9.16065e-05
-0.00103632
0.000123519
-0.0012861
0.000155999
-0.00152817
0.000187338
-0.00175576
0.000216116
-0.00196361
0.000241318
-0.00214856
0.000262383
-0.00230964
0.000279179
-0.00244786
0.000291922
-0.00256578
0.000301071
-0.0026669
0.000307209
-0.00275509
0.000310945
-0.0028341
0.000312843
-0.00290728
0.000313378
-0.00297735
0.000312924
-0.00304642
0.000311754
-0.00311601
0.000310054
-0.0031871
0.00030794
-0.00326026
0.000305472
-0.00333572
0.000302673
-0.00341346
-0.00349324
0.000299538
4.5916e-06
-0.000104998
1.71748e-05
-0.000325935
3.66671e-05
-0.000562822
6.17048e-05
-0.000811359
9.06536e-05
-0.00106527
0.000121703
-0.00131715
0.00015302
-0.00155949
0.000182935
-0.00178567
0.000210092
-0.00199077
0.000233563
-0.00217203
0.000252873
-0.00232895
0.000267965
-0.00246295
0.000279114
-0.00257693
0.000286808
-0.00267459
0.000291639
-0.00275992
0.000294206
-0.00283667
0.000295052
-0.00290812
0.000294626
-0.00297692
0.000293274
-0.00304507
0.000291245
-0.00311398
0.000288707
-0.00318456
0.000285762
-0.00325732
0.000282463
-0.00333242
0.000278826
-0.00340982
-0.00348925
0.000274841
4.61105e-06
-0.000109609
1.71714e-05
-0.000338495
3.65145e-05
-0.000582165
6.11988e-05
-0.000836044
8.95296e-05
-0.0010936
0.000119666
-0.00134729
0.000149782
-0.00158961
0.000178248
-0.00181414
0.000203782
-0.0020163
0.000225539
-0.00219379
0.000243127
-0.00234653
0.000256563
-0.00247638
0.000266169
-0.00258653
0.00027246
-0.00268089
0.000276031
-0.00276349
0.00027747
-0.00283811
0.000277296
-0.00290795
0.000275932
-0.00297556
0.000273697
-0.00304284
0.000270819
-0.0031111
0.000267449
-0.00318119
0.000263677
-0.00325355
0.000259548
-0.00332829
0.000255072
-0.00340534
-0.00348442
0.000250238
4.62188e-06
-0.000114231
1.71351e-05
-0.000351008
3.62918e-05
-0.000601321
6.05762e-05
-0.000860328
8.82393e-05
-0.00112126
0.000117417
-0.00137647
0.000146297
-0.00161849
0.000173297
-0.00184114
0.000197209
-0.00204021
0.000217271
-0.00221385
0.000233174
-0.00236244
0.000244999
-0.00248821
0.000253112
-0.00259465
0.000258049
-0.00268582
0.000260406
-0.00276585
0.000260754
-0.00283846
0.000259589
-0.00290678
0.000257307
-0.00297328
0.000254203
-0.00303973
0.000250484
-0.00310738
0.000246287
-0.00317699
0.00024169
-0.00324895
0.000236731
-0.00332333
0.000231418
-0.00340003
-0.00347874
0.000225736
4.62398e-06
-0.000118855
1.70662e-05
-0.00036345
3.59998e-05
-0.000620255
5.98392e-05
-0.000884167
8.67876e-05
-0.00114821
0.000114964
-0.00140464
0.000142578
-0.0016461
0.0001681
-0.00186666
0.000190395
-0.00206251
0.000208785
-0.00223224
0.000223039
-0.00237669
0.000233299
-0.00249847
0.000239968
-0.00260132
0.000243598
-0.00268945
0.000244781
-0.00276703
0.000244071
-0.00283775
0.000241941
-0.00290465
0.000238759
-0.00297009
0.000234799
-0.00303577
0.000230247
-0.00310283
0.000225225
-0.00317197
0.000219805
-0.00324353
0.000214018
-0.00331754
0.000207868
-0.00339388
-0.00347221
0.000201339
4.61729e-06
-0.000123472
1.69646e-05
-0.000375798
3.56392e-05
-0.00063893
5.89907e-05
-0.000907519
8.51803e-05
-0.0011744
0.000112318
-0.00143178
0.00013864
-0.00167242
0.000162674
-0.00189069
0.00018336
-0.0020832
0.000200105
-0.00224899
0.000212748
-0.00238933
0.000221486
-0.00250721
0.000226758
-0.00260659
0.000229125
-0.00269182
0.000229173
-0.00276708
0.000227437
-0.00283601
0.000224364
-0.00290158
0.000220299
-0.00296603
0.000215492
-0.00303096
0.000210112
-0.00309745
0.00020427
-0.00316613
0.000198028
-0.00323729
0.000191413
-0.00331093
0.000184426
-0.00338689
-0.00346483
0.000177051
4.60178e-06
-0.000128074
1.68306e-05
-0.000388027
3.52114e-05
-0.00065731
5.80335e-05
-0.000930341
8.34231e-05
-0.00119979
0.000109488
-0.00145785
0.000134497
-0.00169743
0.000157036
-0.00191323
0.000176127
-0.00210229
0.000191252
-0.00226411
0.000202322
-0.0024004
0.000209584
-0.00251447
0.000213503
-0.00261051
0.000214649
-0.00269297
0.000213596
-0.00276603
0.000210862
-0.00283328
0.000206868
-0.00289759
0.000201933
-0.00296109
0.000196288
-0.00302532
0.000190086
-0.00309125
0.000183426
-0.00315947
0.000176363
-0.00323022
0.000168921
-0.00330349
0.000161097
-0.00337907
-0.00345661
0.000152877
4.57746e-06
-0.000132652
1.66646e-05
-0.000400114
3.47176e-05
-0.000675363
5.69712e-05
-0.000952595
8.15225e-05
-0.00122434
0.000106484
-0.00148281
0.000130161
-0.00172111
0.000151206
-0.00193428
0.000168715
-0.0021198
0.00018225
-0.00227765
0.000191785
-0.00240994
0.000197612
-0.0025203
0.000200221
-0.00261312
0.000200184
-0.00269293
0.000198065
-0.00276391
0.000194358
-0.00282957
0.00018946
-0.00289269
0.00018367
-0.0029553
0.000177194
-0.00301884
0.000170174
-0.00308423
0.000162698
-0.00315199
0.000154814
-0.00322234
0.000146545
-0.00329522
0.000137885
-0.00337041
-0.00344755
0.000128822
4.54437e-06
-0.000137196
1.64671e-05
-0.000412036
3.41595e-05
-0.000693056
5.58072e-05
-0.000974242
7.9485e-05
-0.00124802
0.000103316
-0.00150664
0.000125648
-0.00174344
0.0001452
-0.00195383
0.000161145
-0.00213574
0.000173118
-0.00228962
0.000181156
-0.00241798
0.000185591
-0.00252473
0.00018693
-0.00261446
0.000185747
-0.00269175
0.000182591
-0.00276075
0.000177934
-0.00282491
0.00017215
-0.0028869
0.000165514
-0.00294867
0.000158216
-0.00301154
0.000150381
-0.00307639
0.00014209
-0.0031437
0.000133387
-0.00321364
0.00012429
-0.00328612
0.000114794
-0.00336092
-0.00343764
0.000104888
4.50258e-06
-0.000141699
1.62385e-05
-0.000423772
3.35389e-05
-0.000710356
5.45456e-05
-0.000995249
7.73173e-05
-0.00127079
9.9994e-05
-0.00152931
0.00012097
-0.00176442
0.000139033
-0.00197189
0.000153433
-0.00215014
0.000163876
-0.00230006
0.000170455
-0.00242456
0.000173537
-0.00252781
0.000173646
-0.00261456
0.000171351
-0.00268945
0.000167185
-0.00275658
0.0001616
-0.00281933
0.000154944
-0.00288025
0.000147473
-0.0029412
0.000139357
-0.00300343
0.000130712
-0.00306775
0.000121607
-0.0031346
0.000112085
-0.00320412
0.000102161
-0.00327619
9.18289e-05
-0.00335058
-0.00342689
8.10796e-05
4.45219e-06
-0.000146151
1.59797e-05
-0.0004353
3.28577e-05
-0.000727234
5.31903e-05
-0.00101558
7.50265e-05
-0.00129263
9.65285e-05
-0.00155082
0.000116142
-0.00178403
0.000132724
-0.00198847
0.000145599
-0.00216302
0.000154543
-0.00230901
0.000159699
-0.00242971
0.000161468
-0.00252958
0.000160383
-0.00261348
0.000157007
-0.00268607
0.000151857
-0.00275143
0.000145363
-0.00281283
0.00013785
-0.00287274
0.000129551
-0.0029329
0.000120624
-0.0029945
0.00011117
-0.0030583
0.000101254
-0.00312468
9.09136e-05
-0.00319377
8.01606e-05
-0.00326544
6.89927e-05
-0.00333942
-0.0034153
5.73969e-05
4.39332e-06
-0.000150544
1.56913e-05
-0.000446598
3.2118e-05
-0.000743661
5.17456e-05
-0.00103521
7.26194e-05
-0.0013135
9.29296e-05
-0.00157113
0.000111176
-0.00180228
0.000126287
-0.00200359
0.00013766
-0.00217439
0.000145136
-0.00231648
0.000148907
-0.00243348
0.000149399
-0.00253007
0.000147154
-0.00261123
0.000142727
-0.00268165
0.000136617
-0.00274532
0.00012923
-0.00280545
0.000120872
-0.00286438
0.000111755
-0.00292378
0.000102021
-0.00298477
9.17617e-05
-0.00304804
8.10359e-05
-0.00311396
6.9877e-05
-0.00318262
5.82954e-05
-0.00325386
4.62875e-05
-0.00332741
-0.00340285
3.38374e-05
4.32612e-06
-0.00015487
1.53741e-05
-0.000457646
3.1322e-05
-0.000759609
5.02158e-05
-0.0010541
7.01033e-05
-0.00133339
8.92073e-05
-0.00159023
0.000106085
-0.00181915
0.000119736
-0.00201724
0.000129631
-0.00218429
0.000135671
-0.00232252
0.000138092
-0.0024359
0.000137343
-0.00252932
0.000133971
-0.00260786
0.00012852
-0.0026762
0.000121471
-0.00273828
0.000113209
-0.00279718
0.000104017
-0.00285518
9.40881e-05
-0.00291385
8.35519e-05
-0.00297423
7.249e-05
-0.00303697
6.09559e-05
-0.00310242
4.89815e-05
-0.00317064
3.65777e-05
-0.00324146
2.37124e-05
-0.00331454
-0.00338948
1.03394e-05
4.25077e-06
-0.000159121
1.50291e-05
-0.000468424
3.04721e-05
-0.000775052
4.86055e-05
-0.00107224
6.74853e-05
-0.00135227
8.53718e-05
-0.00160812
0.000100883
-0.00183467
0.000113088
-0.00202944
0.000121529
-0.00219273
0.000126164
-0.00232716
0.000127269
-0.00243701
0.000125313
-0.00252737
0.000120844
-0.00260339
0.000114396
-0.00266975
0.000106429
-0.00273031
9.73056e-05
-0.00278806
8.72887e-05
-0.00284517
7.65558e-05
-0.00290312
6.52213e-05
-0.0029629
5.3359e-05
-0.00302511
4.10178e-05
-0.00309008
2.8229e-05
-0.00315785
1.50175e-05
-0.00322824
1.42966e-06
-0.00330095
-0.00337518
-1.28656e-05
4.16747e-06
-0.000163288
1.46572e-05
-0.000478914
2.95706e-05
-0.000789965
4.69191e-05
-0.00108958
6.47724e-05
-0.00137012
8.14327e-05
-0.00162478
9.55796e-05
-0.00184881
0.000106355
-0.00204022
0.000113366
-0.00219974
0.000116628
-0.00233042
0.000116452
-0.00243683
0.000113322
-0.00252424
0.000107785
-0.00259786
0.000100363
-0.00266233
9.14956e-05
-0.00272144
8.15248e-05
-0.00277809
7.06932e-05
-0.00283434
5.91618e-05
-0.00289159
4.70331e-05
-0.00295077
3.43728e-05
-0.00301245
2.12255e-05
-0.00307693
7.62293e-06
-0.00314425
-6.41755e-06
-0.0032142
-2.09313e-05
-0.00328644
-0.00336025
-3.58574e-05
4.07644e-06
-0.000167365
1.42594e-05
-0.000489097
2.86201e-05
-0.000804326
4.51612e-05
-0.00110613
6.19718e-05
-0.00138693
7.73995e-05
-0.00164021
9.01882e-05
-0.0018616
9.95496e-05
-0.00204958
0.000105158
-0.00220535
0.000107078
-0.00233234
0.000105652
-0.00243541
0.000101379
-0.00251997
9.48026e-05
-0.00259128
8.64281e-05
-0.00265395
7.66778e-05
-0.00271169
6.5872e-05
-0.00276728
5.42342e-05
-0.0028227
4.19103e-05
-0.00287926
2.89912e-05
-0.00293785
1.55351e-05
-0.002999
1.58341e-06
-0.00306298
-1.28323e-05
-0.00312983
-2.76949e-05
-0.00319934
-4.30181e-05
-0.00327112
-0.0033445
-5.87747e-05
3.9779e-06
-0.000171343
1.38368e-05
-0.000498956
2.76231e-05
-0.000818112
4.33364e-05
-0.00112184
5.90904e-05
-0.00140269
7.32817e-05
-0.0016544
8.47195e-05
-0.00187304
9.26855e-05
-0.00205754
9.69165e-05
-0.00220958
9.75247e-05
-0.00233295
9.48817e-05
-0.00243276
8.94955e-05
-0.00251458
8.1904e-05
-0.00258369
7.25985e-05
-0.00264465
6.1981e-05
-0.00270107
5.03516e-05
-0.00275565
3.79159e-05
-0.00281026
2.4805e-05
-0.00286615
1.10991e-05
-0.00292414
-3.1503e-06
-0.00298475
-1.79049e-05
-0.00304823
-3.31332e-05
-0.00311461
-4.88152e-05
-0.00318366
-6.49524e-05
-0.00325498
-0.0033279
-8.1546e-05
3.87212e-06
-0.000175215
1.33905e-05
-0.000508474
2.65821e-05
-0.000831304
4.14494e-05
-0.00113671
5.6135e-05
-0.00141737
6.90881e-05
-0.00166735
7.91843e-05
-0.00188314
8.57739e-05
-0.00206413
8.86539e-05
-0.00221246
8.79807e-05
-0.00233227
8.41508e-05
-0.00242893
7.76794e-05
-0.00250811
6.90973e-05
-0.00257511
5.88801e-05
-0.00263443
4.74102e-05
-0.0026896
3.4968e-05
-0.00274321
2.17419e-05
-0.00279704
7.84939e-06
-0.00285226
-6.6394e-06
-0.00290965
-2.16795e-05
-0.00296971
-3.72357e-05
-0.00303267
-5.32757e-05
-0.00309857
-6.97759e-05
-0.00316716
-8.67313e-05
-0.00323802
-0.00331048
-0.000104158
3.75935e-06
-0.000178974
1.29216e-05
-0.000517636
2.54998e-05
-0.000843882
3.95046e-05
-0.00115071
5.31125e-05
-0.00143098
6.48277e-05
-0.00167906
7.35929e-05
-0.0018919
7.88261e-05
-0.00206937
8.03815e-05
-0.00221401
7.84562e-05
-0.00233035
7.34689e-05
-0.00242395
6.59391e-05
-0.00250058
5.63893e-05
-0.00256556
4.52785e-05
-0.00262332
3.29699e-05
-0.0026773
1.9725e-05
-0.00272997
5.71583e-06
-0.00278303
-8.95297e-06
-0.00283759
-2.42209e-05
-0.00289439
-4.00491e-05
-0.00295388
-5.64052e-05
-0.00301632
-7.3256e-05
-0.00308172
-9.05739e-05
-0.00314984
-0.000108349
-0.00322025
-0.00329222
-0.000126604
3.63987e-06
-0.000182614
1.24313e-05
-0.000526428
2.43788e-05
-0.00085583
3.75066e-05
-0.00116384
5.00292e-05
-0.0014435
6.05087e-05
-0.00168954
6.79552e-05
-0.00189935
7.18525e-05
-0.00207326
7.21097e-05
-0.00221427
6.89613e-05
-0.0023272
6.28448e-05
-0.00241783
5.42822e-05
-0.00249202
4.3786e-05
-0.00255506
3.17988e-05
-0.00261133
1.86643e-05
-0.00266416
4.62612e-06
-0.00271593
-1.0159e-05
-0.00276824
-2.55989e-05
-0.00282215
-4.16419e-05
-0.00287834
-5.82554e-05
-0.00293726
-7.54095e-05
-0.00299916
-9.30703e-05
-0.00306405
-0.000111205
-0.00313171
-0.000129801
-0.00320165
-0.000148879
3.51397e-06
-0.000186128
1.19207e-05
-0.000534834
2.32216e-05
-0.000867131
3.54597e-05
-0.00117608
4.68917e-05
-0.00145494
5.61393e-05
-0.00169879
6.22804e-05
-0.00190549
6.48631e-05
-0.00207585
6.38482e-05
-0.00221325
5.95048e-05
-0.00232286
5.22865e-05
-0.00241061
4.27154e-05
-0.00248245
3.12932e-05
-0.00254364
1.84453e-05
-0.00259848
4.49719e-06
-0.00265021
-1.03252e-05
-0.00270111
-2.58796e-05
-0.00275269
-4.20852e-05
-0.00280595
-5.88992e-05
-0.00286153
-7.62947e-05
-0.00291987
-9.42447e-05
-0.00298121
-0.000112714
-0.00304558
-0.000131666
3.38194e-06
-0.00018951
1.1391e-05
-0.000542844
2.2031e-05
-0.00087777
3.33685e-05
-0.00118741
4.37061e-05
-0.00146527
5.17273e-05
-0.00170681
5.65775e-05
-0.00191034
5.78671e-05
-0.00207714
5.56062e-05
-0.00221099
5.00954e-05
-0.00231734
4.18013e-05
-0.00240232
3.12449e-05
-0.00247189
1.89158e-05
-0.00253131
5.22242e-06
-0.00258479
-9.528e-06
-0.00263546
-2.5126e-05
-0.00268551
-4.14429e-05
-0.00273637
-5.8409e-05
-0.00278898
-7.59894e-05
-0.00284395
-9.41635e-05
-0.00290169
-0.000112907
-0.00296247
3.24408e-06
-0.000192754
1.08435e-05
-0.000550443
2.08094e-05
-0.000887736
3.12371e-05
-0.00119784
4.04783e-05
-0.00147451
4.728e-05
-0.00171361
5.08546e-05
-0.00191391
5.08732e-05
-0.00207715
4.73922e-05
-0.00220751
4.07405e-05
-0.00231069
3.1396e-05
-0.00239297
1.98762e-05
-0.00246037
6.65838e-06
-0.00251809
-7.8663e-06
-0.00257026
-2.34081e-05
-0.00261992
-3.97734e-05
-0.00266914
-5.68464e-05
-0.0027193
-7.45673e-05
-0.00277126
-9.29094e-05
-0.00282561
-0.000111858
-0.00288275
3.10071e-06
-0.000195855
1.02792e-05
-0.000557621
1.95594e-05
-0.000897017
2.90697e-05
-0.00120735
3.72143e-05
-0.00148266
4.28047e-05
-0.00171921
4.51199e-05
-0.00191623
4.38897e-05
-0.00207592
3.92139e-05
-0.00220284
3.14474e-05
-0.00230293
2.10767e-05
-0.0023826
8.6146e-06
-0.00244791
-5.47488e-06
-0.002504
-2.08174e-05
-0.00255492
-3.71404e-05
-0.0026036
-5.42649e-05
-0.00265202
-7.20874e-05
-0.00270148
-9.05575e-05
-0.00275279
-0.000109656
-0.00280651
2.95213e-06
-0.000198807
9.69937e-06
-0.000564369
1.82836e-05
-0.000905601
2.68704e-05
-0.00121594
3.39195e-05
-0.00148971
3.8308e-05
-0.00172359
3.93808e-05
-0.0019173
3.6924e-05
-0.00207347
3.10787e-05
-0.00219699
2.22226e-05
-0.00229407
1.08489e-05
-0.00237123
-2.53547e-06
-0.00243452
-1.74803e-05
-0.00248906
-3.36279e-05
-0.00253877
-5.0722e-05
-0.0025865
-6.85981e-05
-0.00263414
-8.71636e-05
-0.00268291
-0.000106377
2.79865e-06
-0.000201606
9.10522e-06
-0.000570675
1.69843e-05
-0.00091348
2.46432e-05
-0.0012236
3.05993e-05
-0.00149566
3.37964e-05
-0.00172679
3.36443e-05
-0.00191715
2.99834e-05
-0.00206981
2.29932e-05
-0.00219
1.30721e-05
-0.00228415
7.17895e-07
-0.00235887
-1.35698e-05
-0.00242024
-2.93544e-05
-0.00247327
-4.62949e-05
-0.00252183
-6.4151e-05
-0.00256865
-8.27709e-05
-0.00261552
2.64058e-06
-0.000204246
8.49788e-06
-0.000576533
1.5664e-05
-0.000920646
2.23917e-05
-0.00123033
2.72588e-05
-0.00150053
2.9276e-05
-0.00172881
2.79169e-05
-0.00191579
2.30745e-05
-0.00206496
1.49637e-05
-0.00218189
4.00124e-06
-0.00227319
-9.3121e-06
-0.00234556
-2.44846e-05
-0.00240506
-4.10942e-05
-0.00245666
-5.88161e-05
-0.00250411
-7.74249e-05
-0.00255004
2.47825e-06
-0.000206724
7.8785e-06
-0.000581933
1.4325e-05
-0.000927093
2.01197e-05
-0.00123612
2.39029e-05
-0.00150431
2.47526e-05
-0.00172966
2.2205e-05
-0.00191324
1.62033e-05
-0.00205896
6.9957e-06
-0.00217268
-4.98491e-06
-0.00226121
-1.92366e-05
-0.00233131
-3.52765e-05
-0.00238902
-5.26971e-05
-0.00243924
-7.11893e-05
-0.00248562
2.31195e-06
-0.000209036
7.24823e-06
-0.000586869
1.29697e-05
-0.000932814
1.78309e-05
-0.00124098
2.05363e-05
-0.00150702
2.02316e-05
-0.00172935
1.65143e-05
-0.00190952
9.3757e-06
-0.00205182
-9.04626e-07
-0.0021624
-1.38817e-05
-0.00224823
-2.90518e-05
-0.00231614
-4.59426e-05
-0.00237213
-6.41607e-05
-0.00242102
2.14201e-06
-0.000211178
6.60815e-06
-0.000591335
1.16002e-05
-0.000937806
1.55284e-05
-0.00124491
1.71634e-05
-0.00150866
1.57182e-05
-0.00172791
1.08502e-05
-0.00190466
2.59711e-06
-0.00204357
-8.73467e-06
-0.00215107
-2.26853e-05
-0.00223428
-3.87546e-05
-0.00230007
-5.64801e-05
-0.00235441
1.96874e-06
-0.000213147
5.95938e-06
-0.000595326
1.02187e-05
-0.000942066
1.32158e-05
-0.00124791
1.37885e-05
-0.00150923
1.12174e-05
-0.00172534
5.21763e-06
-0.00189866
-4.12817e-06
-0.00203423
-1.64878e-05
-0.00213871
-3.13916e-05
-0.00221937
-4.83419e-05
-0.00228312
1.79247e-06
-0.00021494
5.30298e-06
-0.000598836
8.82733e-06
-0.00094559
1.08961e-05
-0.00124998
1.04157e-05
-0.00150875
6.73405e-06
-0.00172166
-3.73128e-07
-0.00189155
-1.07947e-05
-0.0020238
-2.41609e-05
-0.00212534
-3.99975e-05
-0.00220354
-0.00226531
1.61352e-06
-0.000216553
4.64001e-06
-0.000601863
7.42808e-06
-0.000948378
8.57222e-06
-0.00125112
7.04858e-06
-0.00150722
2.27169e-06
-0.00171688
-5.9331e-06
-0.00188335
-1.73996e-05
-0.00201234
-3.17503e-05
-0.00211099
-4.84997e-05
-0.00218679
1.43228e-06
-0.000217985
3.97153e-06
-0.000604402
6.02294e-06
-0.000950429
6.24736e-06
-0.00125134
3.69064e-06
-0.00150467
-2.16545e-06
-0.00171102
-1.14426e-05
-0.00187407
-2.39383e-05
-0.00199984
-3.92525e-05
-0.00209568
1.24917e-06
-0.000219235
3.29853e-06
-0.000606451
4.61374e-06
-0.000951745
3.92448e-06
-0.00125066
3.51363e-07
-0.00150109
-6.57363e-06
-0.0017041
-1.69039e-05
-0.00186374
-3.04073e-05
-0.00198634
1.06442e-06
-0.000220299
2.62197e-06
-0.000608009
3.2023e-06
-0.000952325
1.60503e-06
-0.00124906
-2.98282e-06
-0.00149651
-1.09498e-05
-0.00169613
-2.23132e-05
-0.00185237
8.78316e-07
-0.000221177
1.9428e-06
-0.000609073
1.79036e-06
-0.000952172
-7.06558e-07
-0.00124656
-6.29229e-06
-0.00149092
-1.52898e-05
-0.00168713
6.91175e-07
-0.000221868
1.26194e-06
-0.000609644
3.79905e-07
-0.00095129
-3.0121e-06
-0.00124317
-9.58035e-06
-0.00148435
-0.00167712
5.03036e-07
-0.000222371
5.79828e-07
-0.000609721
-1.02924e-06
-0.000949681
-5.30507e-06
-0.00123889
-1.28439e-05
-0.00147681
3.13155e-07
-0.000222685
-1.05413e-07
-0.000609302
-2.43427e-06
-0.000947353
-7.58494e-06
-0.00123374
1.11483e-07
-0.000222796
-7.85959e-07
-0.000608405
-3.83333e-06
-0.000944305
-0.00122773
-8.74379e-08
-0.000222709
-1.46839e-06