/*--------------------------------*- C++ -*----------------------------------*\
  =========                 |
  \\      /  F ield         | OpenFOAM: The Open Source CFD Toolbox
   \\    /   O peration     | Website:  https://openfoam.org
    \\  /    A nd           | Version:  7
     \\/     M anipulation  |
\*---------------------------------------------------------------------------*/
FoamFile
{
    version     2.0;
    format      ascii;
    class       surfaceScalarField;
    location    "220";
    object      phi;
}
// * * * * * * * * * * * * * * * * * * * * * * * * * * * * * * * * * * * * * //

dimensions      [0 3 -1 0 0 0 0];

internalField   nonuniform List<scalar> 
8882
(
5.62147e-06
-4.93903e-05
2.29703e-05
-0.000184458
-0.000361004
5.91666e-06
-5.5307e-05
2.40086e-05
-0.00020255
5.49299e-05
-0.000391925
9.88289e-05
-0.000622791
-0.000891529
6.20798e-06
-6.15149e-05
2.50167e-05
-0.000221359
5.69111e-05
-0.00042382
0.000101809
-0.000667689
0.000158742
-0.000948462
0.000225666
-0.00125804
0.000299494
-0.00158516
-0.00191658
6.49349e-06
-6.80084e-05
2.59874e-05
-0.000240853
5.87811e-05
-0.000456613
0.000104547
-0.000713455
0.000162017
-0.00100593
0.000228835
-0.00132486
0.000301653
-0.00165798
0.00037652
-0.00199144
0.000449459
-0.00231189
0.000517076
-0.0026085
0.000577015
-0.00287442
-0.00310732
6.77118e-06
-7.47796e-05
2.69136e-05
-0.000260995
6.05254e-05
-0.000490225
0.00010702
-0.000759949
0.000164826
-0.00106374
0.000231285
-0.00139132
0.00030282
-0.00172951
0.00037539
-0.00206401
0.0004451
-0.0023816
0.000508789
-0.00267219
0.000564426
-0.00293006
0.000611216
-0.00315412
0.000649456
-0.00334712
0.000680214
-0.00351444
-0.00366264
7.03909e-06
-8.18187e-05
2.77882e-05
-0.000281744
6.21301e-05
-0.000524567
0.000109208
-0.000807027
0.000167146
-0.00112168
0.000232999
-0.00145717
0.000302996
-0.00179951
0.000373048
-0.00213407
0.000439383
-0.00244794
0.000499101
-0.0027319
0.000550497
-0.00298146
0.000593094
-0.00319671
0.000627431
-0.00338146
0.000654722
-0.00354173
0.000676486
-0.0036844
0.000694242
-0.003816
0.000709305
-0.00394205
0.000722686
-0.00406669
-0.00419263
7.29533e-06
-8.9114e-05
2.86048e-05
-0.000303054
6.35824e-05
-0.000559545
0.000111093
-0.000854537
0.000168959
-0.00117954
0.000233969
-0.00152218
0.000302191
-0.00186773
0.000369533
-0.00220141
0.000432383
-0.00251079
0.000488118
-0.00278764
0.000535359
-0.0030287
0.00057392
-0.00323527
0.000604556
-0.00341209
0.000628589
-0.00356577
0.000647552
-0.00370336
0.000662911
-0.00383136
0.000675891
-0.00395503
0.0006874
-0.0040782
0.000698054
-0.00420328
-0.0043316
0.000708169
7.5381e-06
-9.66521e-05
2.9357e-05
-0.000324873
6.48706e-05
-0.000595058
0.000112659
-0.000902326
0.00017025
-0.00123713
0.00023419
-0.00158612
0.000300421
-0.00193396
0.00036489
-0.00226588
0.000424175
-0.00257007
0.000475946
-0.00283941
0.000519134
-0.00307188
0.000553827
-0.00326997
0.000580956
-0.00343922
0.000601925
-0.00358674
0.00061826
-0.0037197
0.000631358
-0.00384446
0.000642349
-0.00396602
0.000652048
-0.0040879
0.000660985
-0.00421222
-0.00434003
0.000669416
7.76565e-06
-0.000104418
3.00391e-05
-0.000347146
6.59844e-05
-0.000631004
0.000113894
-0.000950236
0.000171012
-0.00129425
0.000233665
-0.00164877
0.000297712
-0.00199801
0.000359173
-0.00232734
0.000414843
-0.00262574
0.000462689
-0.00288726
0.000501944
-0.00311114
0.000532936
-0.00330096
0.000556748
-0.00346304
0.000574834
-0.00360482
0.000588692
-0.00373356
0.000599646
-0.00385541
0.00060873
-0.00397511
0.000616667
-0.00409584
0.000623913
-0.00421947
-0.00434678
0.000630671
7.9763e-06
-0.000112394
3.06457e-05
-0.000369815
6.69148e-05
-0.000667273
0.000114789
-0.00099811
0.000171239
-0.0013507
0.000232405
-0.00170994
0.000294095
-0.0020597
0.00035244
-0.00238568
0.000404471
-0.00267777
0.000448452
-0.00293124
0.000483902
-0.00314659
0.000511363
-0.00332842
0.000532036
-0.00348371
0.000547403
-0.00362019
0.000558921
-0.00374507
0.00056783
-0.00386432
0.000575073
-0.00398235
0.000581288
-0.00410205
0.000586863
-0.00422504
-0.00435188
0.000591957
8.16849e-06
-0.000120563
3.11722e-05
-0.000392819
6.76541e-05
-0.000703755
0.000115335
-0.00104579
0.000170932
-0.0014063
0.000230424
-0.00176943
0.000289607
-0.00211888
0.000344752
-0.00244083
0.000393143
-0.00272617
0.000433337
-0.00297143
0.000465116
-0.00317837
0.000489211
-0.00335251
0.000506914
-0.00350141
0.000519713
-0.00363299
0.000529009
-0.00375437
0.000535958
-0.00387127
0.000541415
-0.0039878
0.000545939
-0.00410658
0.000549858
-0.00422896
-0.00435531
0.000553293
8.34076e-06
-0.000128903
3.16142e-05
-0.000416093
6.81963e-05
-0.000740337
0.000115529
-0.00109312
0.000170093
-0.00146086
0.000227741
-0.00182708
0.000284289
-0.00217543
0.000336176
-0.00249272
0.000380946
-0.00277094
0.000417441
-0.00300793
0.000445688
-0.00320662
0.000466577
-0.0033734
0.000481466
-0.0035163
0.000491831
-0.00364335
0.00049901
-0.00376155
0.000504073
-0.00387633
0.000507787
-0.00399152
0.000510644
-0.00410943
0.000512918
-0.00423123
-0.00435709
0.000514697
8.49276e-06
-0.000137396
3.19702e-05
-0.00043957
6.85398e-05
-0.000776906
0.000115373
-0.00113996
0.000168737
-0.00151423
0.000224387
-0.00188273
0.000278194
-0.00222924
0.000326783
-0.00254131
0.000367968
-0.00281212
0.000400865
-0.00304082
0.000425719
-0.00323147
0.000443555
-0.00339124
0.000455775
-0.00352852
0.000463828
-0.00365141
0.000468979
-0.0037667
0.000472216
-0.00387957
0.000474224
-0.00399353
0.000475432
-0.00411064
0.000476068
-0.00423187
-0.00435722
0.000476193
8.62145e-06
-0.000146018
3.22333e-05
-0.000463182
6.86756e-05
-0.000813349
0.000114861
-0.00118614
0.000166865
-0.00156623
0.000220378
-0.00193624
0.000271355
-0.00228021
0.000316628
-0.00258658
0.000354279
-0.00284977
0.000383682
-0.00307023
0.000405281
-0.00325307
0.000420209
-0.00340616
0.000429893
-0.00353821
0.000435741
-0.00365725
0.000438944
-0.0037699
0.000440404
-0.00388103
0.000440735
-0.00399386
0.000440307
-0.00411021
0.000439311
-0.00423088
-0.00435569
0.000437784
8.7267e-06
-0.000154744
3.24031e-05
-0.000486858
6.8605e-05
-0.000849551
0.000113999
-0.00123154
0.000164496
-0.00161673
0.000215751
-0.0019875
0.00026383
-0.00232829
0.000305784
-0.00262853
0.000339962
-0.00288395
0.000365982
-0.00309625
0.000384461
-0.00327155
0.000396618
-0.00341832
0.000403887
-0.00354548
0.000407625
-0.00366099
0.000408946
-0.00377122
0.000408672
-0.00388075
0.000407348
-0.00399253
0.000405296
-0.00410816
0.000402671
-0.00422825
-0.00435251
0.000399492
8.80764e-06
-0.000163552
3.24778e-05
-0.000510528
6.83277e-05
-0.000885401
0.000112794
-0.001276
0.000161648
-0.00166558
0.00021054
-0.00203639
0.000255668
-0.00237342
0.000294317
-0.00266718
0.000325093
-0.00291473
0.000347842
-0.003119
0.000363332
-0.00328704
0.000372846
-0.00342784
0.00037781
-0.00355044
0.000379521
-0.0036627
0.000379018
-0.00377072
0.000377044
-0.00387878
0.000374083
-0.00398957
0.000370413
-0.00410449
0.000366161
-0.004224
-0.00434768
0.000361331
8.86351e-06
-0.000172415
3.24564e-05
-0.000534121
6.78449e-05
-0.000920789
0.000111254
-0.00131941
0.00015834
-0.00171267
0.000204779
-0.00208283
0.000246922
-0.00241556
0.000282291
-0.00270255
0.000309744
-0.00294218
0.000329334
-0.00313859
0.00034196
-0.00329966
0.00034895
-0.00343483
0.000351707
-0.0035532
0.000351466
-0.00366246
0.000349187
-0.00376844
0.000345542
-0.00387514
0.000340958
-0.00398499
0.000335675
-0.00409921
0.000329796
-0.00421812
-0.0043412
0.000323316
8.89374e-06
-0.000181309
3.23385e-05
-0.000557566
6.71592e-05
-0.00095561
0.000109388
-0.00136164
0.000154595
-0.00175788
0.000198505
-0.00212674
0.000237642
-0.0024547
0.000269768
-0.00273468
0.000293981
-0.00296639
0.000310525
-0.00315513
0.000320406
-0.00330954
0.000324981
-0.0034394
0.00032562
-0.00355384
0.000323491
-0.00366033
0.000319477
-0.00376443
0.000314184
-0.00386984
0.000307987
-0.00397879
0.000301094
-0.00409232
0.000293589
-0.00421061
-0.00433307
0.00028546
8.89795e-06
-0.000190207
3.21241e-05
-0.000580792
6.62741e-05
-0.00098976
0.000107208
-0.00140258
0.000150435
-0.0018011
0.000191755
-0.00216806
0.000227879
-0.00249082
0.000256807
-0.0027636
0.000277869
-0.00298745
0.000291476
-0.00316874
0.000298724
-0.00331679
0.000300985
-0.00344166
0.000299585
-0.00355244
0.000295624
-0.00365637
0.000289911
-0.00375871
0.000282987
-0.00386292
0.000275185
-0.00397099
0.000266684
-0.00408381
0.000257553
-0.00420148
-0.00432329
0.000247775
8.87587e-06
-0.000199083
3.18142e-05
-0.00060373
6.51945e-05
-0.00102314
0.000104726
-0.00144211
0.000145886
-0.00184226
0.000184568
-0.00220674
0.000217683
-0.00252394
0.000243466
-0.00278939
0.000261465
-0.00300545
0.000272242
-0.00317951
0.000276964
-0.00332152
0.000277002
-0.0034417
0.000273635
-0.00354907
0.00026789
-0.00365063
0.000260506
-0.00375133
0.000251968
-0.00385438
0.000242567
-0.00396159
0.000232458
-0.00407371
0.000221699
-0.00419072
-0.00431187
0.000210273
8.82743e-06
-0.00020791
3.141e-05
-0.000626313
6.39262e-05
-0.00105566
0.000101958
-0.00148014
0.000140972
-0.00188128
0.000176981
-0.00224275
0.0002071
-0.00255406
0.000229798
-0.00281209
0.000244824
-0.00302048
0.000252874
-0.00318756
0.000255169
-0.00332381
0.000253068
-0.0034396
0.000247796
-0.0035438
0.00024031
-0.00364314
0.000231282
-0.0037423
0.000221141
-0.00384424
0.000210144
-0.00395059
0.000198427
-0.00406199
0.000186038
-0.00417833
-0.00429879
0.000172964
8.75271e-06
-0.000216663
3.09133e-05
-0.000648474
6.24758e-05
-0.00108722
9.89172e-05
-0.00151658
0.00013572
-0.00191808
0.000169031
-0.00227606
0.000196177
-0.0025812
0.000215854
-0.00283176
0.000227997
-0.00303262
0.000233419
-0.00319298
0.000233379
-0.00332377
0.000229216
-0.00343544
0.000222095
-0.00353668
0.000212905
-0.00363395
0.000202253
-0.00373165
0.00019052
-0.00383251
0.00017793
-0.003938
0.000164604
-0.00404866
0.000150582
-0.00416431
-0.00428407
0.000135855
8.65191e-06
-0.000225315
3.03263e-05
-0.000670148
6.08507e-05
-0.00111774
9.56203e-05
-0.00155135
0.000130156
-0.00195261
0.000160755
-0.00230666
0.000184958
-0.00260541
0.000201681
-0.00284849
0.000211031
-0.00304197
0.000213918
-0.00319587
0.00021163
-0.00332148
0.000205473
-0.00342928
0.000196554
-0.00352776
0.000185692
-0.00362309
0.000173434
-0.00371939
0.000160117
-0.00381919
0.000145937
-0.00392382
0.000130997
-0.00403372
0.000115341
-0.00414866
-0.00426768
9.89518e-05
8.52539e-06
-0.00023384
2.96519e-05
-0.000691275
5.9059e-05
-0.00114715
9.20836e-05
-0.00158437
0.000124307
-0.00198484
0.000152188
-0.00233454
0.000173486
-0.0026267
0.000187324
-0.00286233
0.000193968
-0.00304861
0.00019441
-0.00319631
0.000189952
-0.00331702
0.000181864
-0.00342119
0.000171192
-0.00351708
0.000158686
-0.00361058
0.000144839
-0.00370554
0.000129946
-0.0038043
0.000114178
-0.00390805
9.76234e-05
-0.00401717
8.0327e-05
-0.00413136
-0.00424961
6.22553e-05
8.37363e-06
-0.000242214
2.88929e-05
-0.000711794
5.71091e-05
-0.00117537
8.83237e-05
-0.00161559
0.000118198
-0.00201471
0.000143365
-0.00235971
0.000161799
-0.00264514
0.000172824
-0.00287335
0.000176846
-0.00305264
0.000174928
-0.0031944
0.000168374
-0.00331047
0.000158413
-0.00341123
0.000146026
-0.0035047
0.000131903
-0.00359646
0.000116481
-0.00369012
0.00010002
-0.00378783
8.26678e-05
-0.0038907
6.45069e-05
-0.00399901
4.55488e-05
-0.0041124
-0.00422975
2.56908e-05
8.19722e-06
-0.000250411
2.80529e-05
-0.00073165
5.50103e-05
-0.00120232
8.43577e-05
-0.00164494
0.000111855
-0.00204221
0.000134319
-0.00238217
0.000149935
-0.00266075
0.000158219
-0.00288163
0.000159702
-0.00305412
0.000155504
-0.0031902
0.000146922
-0.00330189
0.000135139
-0.00339945
0.000121074
-0.00349063
0.000105355
-0.00358074
8.8371e-05
-0.00367314
7.03479e-05
-0.00376981
5.14181e-05
-0.00387177
3.16755e-05
-0.00397926
1.11212e-05
-0.00409185
-0.0042079
-1.07324e-05
7.99687e-06
-0.000258408
2.71355e-05
-0.000750788
5.27716e-05
-0.00122796
8.02025e-05
-0.00167237
0.000105303
-0.00206731
0.00012508
-0.00240195
0.00013793
-0.0026736
0.000143544
-0.00288725
0.000142567
-0.00305314
0.000136164
-0.0031838
0.000125617
-0.00329134
0.000112059
-0.00338589
9.63478e-05
-0.00347492
7.90535e-05
-0.00356345
6.05201e-05
-0.00365461
4.09425e-05
-0.00375023
2.04344e-05
-0.00385126
-9.45701e-07
-0.00395788
-2.30901e-05
-0.0040697
-0.00418488
-4.6101e-05
7.77338e-06
-0.000266181
2.61445e-05
-0.000769159
5.04026e-05
-0.00125222
7.58749e-05
-0.00169784
9.85665e-05
-0.00209
0.00011568
-0.00241906
0.000125816
-0.00268374
0.000128831
-0.00289026
0.000125472
-0.00304978
0.000116934
-0.00317526
0.000104479
-0.00327889
8.9189e-05
-0.0033706
7.18612e-05
-0.00345759
5.30099e-05
-0.0035446
3.2938e-05
-0.00363453
1.18123e-05
-0.00372911
-1.02631e-05
-0.00382919
-3.3196e-05
-0.00393495
-5.70016e-05
-0.0040459
-0.00416032
-8.15676e-05
7.52761e-06
-0.000273709
2.5084e-05
-0.000786716
4.79129e-05
-0.00127505
7.13916e-05
-0.00172132
9.16691e-05
-0.00211028
0.000106146
-0.00243354
0.000113623
-0.00269121
0.000114109
-0.00289075
0.000108441
-0.00304412
9.78351e-05
-0.00316465
8.35257e-05
-0.00326458
6.6543e-05
-0.00335362
4.76252e-05
-0.00343867
2.72339e-05
-0.0035242
5.63346e-06
-0.00361293
-1.70329e-05
-0.00370644
-4.06734e-05
-0.00380555
-6.52075e-05
-0.00391042
-9.06024e-05
-0.0040205
-0.00413412
-0.000116802
7.26052e-06
-0.00028097
2.39582e-05
-0.000803413
4.53123e-05
-0.0012964
6.67688e-05
-0.00174277
8.46329e-05
-0.00212814
9.6506e-05
-0.00244541
0.000101379
-0.00269609
9.9407e-05
-0.00288878
9.15e-05
-0.00303621
7.88874e-05
-0.00315204
6.27728e-05
-0.00324846
4.41327e-05
-0.00333498
2.36514e-05
-0.00341819
1.73238e-06
-0.00350228
-2.1383e-05
-0.00358982
-4.55839e-05
-0.00368224
-7.07884e-05
-0.00378034
-9.69171e-05
-0.00388429
-0.000123912
-0.00399351
-0.00410628
-0.000151747
6.97312e-06
-0.000287943
2.27715e-05
-0.000819212
4.26102e-05
-0.00131624
6.20225e-05
-0.00176219
7.74796e-05
-0.0021436
8.6784e-05
-0.00245472
8.91114e-05
-0.00269841
8.47481e-05
-0.00288441
7.46691e-05
-0.00302613
6.01084e-05
-0.00313748
4.22343e-05
-0.00323059
2.19684e-05
-0.00331471
-7.84504e-08
-0.00339615
-2.34826e-05
-0.00347888
-4.81033e-05
-0.0035652
-7.38316e-05
-0.00365651
-0.000100596
-0.00375358
-0.000128316
-0.00385657
-0.000156917
-0.00396491
-0.000186381
6.66645e-06
-0.000294609
2.15281e-05
-0.000834073
3.98162e-05
-0.00133453
5.7168e-05
-0.00177954
7.02295e-05
-0.00215666
7.70038e-05
-0.00246149
7.68433e-05
-0.00269825
7.0155e-05
-0.00287773
5.79678e-05
-0.00301394
4.15138e-05
-0.00312102
2.19222e-05
-0.003211
5.79853e-08
-0.00329285
-2.34824e-05
-0.00337261
-4.8401e-05
-0.00345396
-7.45188e-05
-0.00353908
-0.000101767
-0.00362926
-0.000130086
-0.00372526
-0.000159395
-0.00382726
6.34162e-06
-0.000300951
2.02325e-05
-0.000847964
3.69397e-05
-0.00135124
5.22201e-05
-0.00179482
6.29021e-05
-0.00216734
6.71873e-05
-0.00246578
6.45971e-05
-0.00269566
5.56479e-05
-0.00286878
4.14135e-05
-0.00299971
2.31174e-05
-0.00310273
1.84841e-06
-0.00318973
-2.15734e-05
-0.00326943
-4.66254e-05
-0.00334755
-7.30198e-05
-0.00342757
-0.000100622
-0.00351148
-0.00012938
-0.00360051
-0.000159248
5.99976e-06
-0.000306951
1.8889e-05
-0.000860854
3.39899e-05
-0.00136634
4.7193e-05
-0.00180802
5.55155e-05
-0.00217567
5.73548e-05
-0.00246762
5.23928e-05
-0.0026907
4.1245e-05
-0.00285763
2.50214e-05
-0.00298348
4.93143e-06
-0.00308264
-1.79777e-05
-0.00316682
-4.29393e-05
-0.00324446
-6.94745e-05
-0.00332102
-9.73313e-05
-0.00339971
-0.000126405
-0.0034824
5.642e-06
-0.000312593
1.7502e-05
-0.000872714
3.09756e-05
-0.00137981
4.21005e-05
-0.00181915
4.8087e-05
-0.00218165
4.75252e-05
-0.00246705
4.02489e-05
-0.00268343
2.6963e-05
-0.00284434
8.80522e-06
-0.00296533
-1.30332e-05
-0.0030608
-3.75487e-05
-0.0031423
-6.40244e-05
-0.00321799
-9.20239e-05
-0.00329302
-0.000121329
-0.00337041
5.26953e-06
-0.000317862
1.60759e-05
-0.00088352
2.79056e-05
-0.00139164
3.69555e-05
-0.0018282
4.06328e-05
-0.00218533
3.77161e-05
-0.00246414
2.81825e-05
-0.00267389
1.28165e-05
-0.00282898
-7.22264e-06
-0.00294529
-3.0767e-05
-0.00303725
-5.68565e-05
-0.00311621
-8.48222e-05
-0.00319002
-0.000114268
-0.00326357
4.88353e-06
-0.000322746
1.46148e-05
-0.000893251
2.47882e-05
-0.00140181
3.17703e-05
-0.00183518
3.31678e-05
-0.00218673
2.79434e-05
-0.00245891
1.6209e-05
-0.00266216
-1.17755e-06
-0.00281159
-2.30511e-05
-0.00292341
-4.82613e-05
-0.00301204
-7.58944e-05
-0.00308858
-0.000105327
-0.00316059
4.48523e-06
-0.000327231
1.3123e-05
-0.000901889
2.16316e-05
-0.00141032
2.65566e-05
-0.0018401
2.57063e-05
-0.00218588
1.82221e-05
-0.00245143
4.34318e-06
-0.00264828
-1.50166e-05
-0.00279223
-3.86714e-05
-0.00289976
-6.55087e-05
-0.00298521
-9.46563e-05
-0.00305943
4.07591e-06
-0.000331307
1.16046e-05
-0.000909418
1.84434e-05
-0.00141716
2.13256e-05
-0.00184299
1.82622e-05
-0.00218281
8.56478e-06
-0.00244173
-7.40559e-06
-0.00263231
-2.86806e-05
-0.00277096
-5.40743e-05
-0.00287437
-8.25025e-05
-0.00295678
3.65694e-06
-0.000334964
1.00637e-05
-0.000915824
1.5231e-05
-0.00142233
1.60877e-05
-0.00184384
1.08482e-05
-0.00217757
-9.95484e-07
-0.00242989
-1.90214e-05
-0.00261428
-4.21636e-05
-0.00274781
-6.92521e-05
-0.00284728
3.22999e-06
-0.000338194
8.50419e-06
-0.000921099
1.20014e-05
-0.00142582
1.08526e-05
-0.00184269
3.47593e-06
-0.0021702
-1.05052e-05
-0.00241591
-3.04997e-05
-0.00259429
-5.54567e-05
-0.00272286
2.79604e-06
-0.00034099
6.9301e-06
-0.000925233
8.76296e-06
-0.00142766
5.62733e-06
-0.00183956
-3.85016e-06
-0.00216072
-1.98952e-05
-0.00239986
-4.18267e-05
-0.00257236
2.35587e-06
-0.000343346
5.34433e-06
-0.000928221
5.52346e-06
-0.00142784
4.66835e-07
-0.0018345
-1.11164e-05
-0.00214914
-2.91785e-05
-0.0023818
1.91067e-06
-0.000345256
3.75063e-06
-0.000930061
2.28009e-06
-0.00142637
-4.75037e-06
-0.00182747
-1.83173e-05
-0.00213557
1.46114e-06
-0.000346717
2.15211e-06
-0.000930752
-9.46549e-07
-0.00142327
-9.88802e-06
-0.00181853
-0.00212002
1.00677e-06
-0.000347724
5.48493e-07
-0.000930294
-4.18398e-06
-0.00141854
-1.49851e-05
-0.00180773
5.39658e-07
-0.000348264
-1.05702e-06
-0.000928697
-7.3911e-06
-0.0014122
2.70267e-08
-0.000348291
-2.66371e-06
-0.000926006
-0.00140429
-4.07905e-07
-0.000347883
-4.25586e-06
-0.000922158
-8.52091e-07
-0.000347031
-0.000345721
0.000375923
0.000377356
-9.69857e-07
0.000378326
0.00100076
-5.17571e-07
0.000378844
-4.85086e-06
0.00100509
0.0015201
-8.47707e-08
0.000378929
-3.24729e-06
0.00100825
0.00152892
4.27573e-07
0.000378501
-1.62505e-06
0.00101031
-8.87275e-06
0.00153617
0.00195114
9.18354e-07
0.000377583
3.56558e-09
0.00101122
-5.64805e-06
0.00154182
-1.7789e-05
0.00196328
0.00228047
1.38473e-06
0.000376198
1.62921e-06
0.00101098
-2.39563e-06
0.00154585
-1.26865e-05
0.00197357
-2.99185e-05
0.00229771
0.00253181
1.84568e-06
0.000374352
3.25718e-06
0.00100956
8.87517e-07
0.00154822
-7.53081e-06
0.00198199
-2.28233e-05
0.002313
0.00255373
2.30303e-06
0.000372049
4.8806e-06
0.00100699
4.15148e-06
0.00154895
-2.31967e-06
0.00198846
-1.56385e-05
0.00232632
-3.56445e-05
0.00257374
0.00274894
2.75673e-06
0.000369293
6.50191e-06
0.00100324
7.44302e-06
0.001548
2.91768e-06
0.00199298
-8.3738e-06
0.00233761
-2.64164e-05
0.00259178
-5.0401e-05
0.00277292
0.00290112
3.20606e-06
0.000366086
8.1173e-06
0.00099833
1.07388e-05
0.00154538
8.18496e-06
0.00199554
-1.00066e-06
0.00234679
-1.70635e-05
0.00260784
-3.91855e-05
0.00279505
-6.61966e-05
0.00292813
0.00302586
3.64971e-06
0.000362437
9.72291e-06
0.000992257
1.40348e-05
0.00154107
1.34806e-05
0.00199609
6.37786e-06
0.0023539
-7.60007e-06
0.00262182
-2.78041e-05
0.00281525
-5.30752e-05
0.0029534
-8.21619e-05
0.00305495
0.00313533
4.08635e-06
0.00035835
1.13153e-05
0.000985028
1.73245e-05
0.00153506
1.87965e-05
0.00199462
1.38451e-05
0.00235885
1.98529e-06
0.00263368
-1.62642e-05
0.0028335
-3.97492e-05
0.00297688
-6.72165e-05
0.00308242
-9.75674e-05
0.00316568
0.00323808
4.51538e-06
0.000353835
1.28912e-05
0.000976652
2.06016e-05
0.00152735
2.41234e-05
0.0019911
2.13594e-05
0.00236161
1.16448e-05
0.0026434
-4.57413e-06
0.00284972
-2.62249e-05
0.00299853
-5.20327e-05
0.00310822
-8.08636e-05
0.00319452
-0.000111869
0.00326909
0.0033396
4.93532e-06
0.0003489
1.44466e-05
0.000967141
2.38592e-05
0.00151794
2.94508e-05
0.0019855
2.89131e-05
0.00236215
2.14057e-05
0.0026509
7.25563e-06
0.00286387
-1.25101e-05
0.0030183
-3.66162e-05
0.00313233
-6.38944e-05
0.00322179
-9.34496e-05
0.00329864
-0.0001247
0.00337085
0.00344318
5.34479e-06
0.000343555
1.59777e-05
0.000956508
2.70904e-05
0.00150683
3.47689e-05
0.00197783
3.64948e-05
0.00236042
3.12434e-05
0.00265615
1.92175e-05
0.00287589
1.39155e-06
0.00303613
-2.09728e-05
0.00315469
-4.66644e-05
0.00324748
-7.47443e-05
0.00332672
-0.000104587
0.0034007
-0.00013584
0.00347443
0.00355074
5.7425e-06
0.000337812
1.74803e-05
0.00094477
3.02875e-05
0.00149402
4.00675e-05
0.00196805
4.40917e-05
0.0023564
4.1146e-05
0.0026591
3.13003e-05
0.00288574
1.54605e-05
0.00305197
-5.11033e-06
0.00317526
-2.91789e-05
0.00327155
-5.57567e-05
0.0033533
-8.41715e-05
0.00342911
-0.000114035
0.0035043
-0.000145166
0.00358187
0.0036635
6.12725e-06
0.000331685
1.89506e-05
0.000931947
3.3443e-05
0.00147953
4.53354e-05
0.00195615
5.16908e-05
0.00235004
5.11004e-05
0.00265969
4.34918e-05
0.00289335
2.96969e-05
0.00306576
1.09642e-05
0.003194
-1.14438e-05
0.00329396
-3.64915e-05
0.00337835
-6.34581e-05
0.00345608
-9.19157e-05
0.00353275
-0.000121654
0.0036116
-0.0001526
0.00369444
0.00378236
6.49782e-06
0.000325187
2.03841e-05
0.000918061
3.65486e-05
0.00146336
5.05609e-05
0.00194214
5.92781e-05
0.00234133
6.10918e-05
0.00265788
5.57783e-05
0.00289866
4.40856e-05
0.00307745
2.72417e-05
0.00321084
6.5343e-06
0.00331467
-1.69539e-05
0.00340184
-4.24506e-05
0.00348157
-6.9487e-05
0.00355979
-9.78194e-05
0.00363994
-0.000127352
0.00372398
-0.000158054
0.00381306
-0.000189892
0.00390788
0.00400861
6.85305e-06
0.000318334
2.17768e-05
0.000903137
3.9596e-05
0.00144554
5.57317e-05
0.00192601
6.68387e-05
0.00233022
7.11045e-05
0.00265361
6.81448e-05
0.00290162
5.8614e-05
0.00308698
4.37121e-05
0.00322574
2.47477e-05
0.00333363
2.84977e-06
0.00342374
-2.11535e-05
0.00350558
-4.67532e-05
0.00358539
-7.36667e-05
0.00366685
-0.000101775
0.00375208
-0.000131029
0.00384232
-0.000161382
0.00393823
-0.00019275
0.00403998
0.00414699
7.19178e-06
0.000311143
2.31242e-05
0.000887204
4.25765e-05
0.00142609
6.08347e-05
0.00190775
7.43564e-05
0.0023167
8.11211e-05
0.00264685
8.05749e-05
0.00290217
7.32679e-05
0.00309429
6.03638e-05
0.00323865
4.31878e-05
0.00335081
2.29142e-05
0.00344401
4.15778e-07
0.00352808
-2.37192e-05
0.00360952
-4.92007e-05
0.00369233
-7.58751e-05
0.00377876
-0.000103671
0.00387011
-0.000132534
0.00396709
-0.000162379
0.00406983
-0.000193118
0.00417772
0.00428899
-0.000224718
7.51285e-06
0.00030363
2.44221e-05
0.000870295
4.54812e-05
0.00140503
6.58564e-05
0.00188737
8.18142e-05
0.00230074
9.11232e-05
0.00263754
9.30507e-05
0.00290024
8.80316e-05
0.00309931
7.71842e-05
0.00324949
6.18446e-05
0.00336615
4.32328e-05
0.00346262
2.22836e-05
0.00354903
-3.9383e-07
0.0036322
-2.4427e-05
0.00371636
-4.96579e-05
0.00380399
-7.59891e-05
0.00389644
-0.000103357
0.00399446
-0.000131679
0.00409815
-0.000160877
0.00420692
0.00431904
-0.000190926
7.81517e-06
0.000295814
2.56659e-05
0.000852444
4.83007e-05
0.0013824
7.07824e-05
0.00186489
8.91938e-05
0.00228233
0.000101091
0.00262564
0.000105552
0.00289578
0.000102888
0.00310198
9.41588e-05
0.00325822
8.07072e-05
0.0033796
6.3795e-05
0.00347953
4.44124e-05
0.00356841
2.32303e-05
0.00365338
6.38145e-07
0.00373896
-2.31304e-05
0.00382776
-4.799e-05
0.0039213
-7.38589e-05
0.00402033
-0.000100658
0.00412495
-0.00012832
0.00423458
0.00434753
-0.000156813
8.09762e-06
0.000287717
2.68514e-05
0.000833691
5.10257e-05
0.00135822
7.55979e-05
0.00184032
9.6476e-05
0.00226145
0.000111002
0.00261111
0.000118058
0.00288872
0.000117816
0.00310222
0.000111271
0.00326477
9.97626e-05
0.00339111
8.45914e-05
0.0034947
6.68057e-05
0.00358619
4.71335e-05
0.00367306
2.60199e-05
0.00376007
3.70263e-06
0.00385008
-1.96814e-05
0.00394469
-4.40491e-05
0.00404469
-6.93243e-05
0.00415022
-9.54583e-05
0.00426072
0.00437446
-0.000122389
8.35914e-06
0.000279358
2.7974e-05
0.000814076
5.36466e-05
0.00133255
8.02872e-05
0.00181368
0.00010364
0.0022381
0.000120833
0.00259392
0.000130545
0.00287901
0.000132796
0.00309997
0.000128504
0.00326906
0.000118997
0.00340062
0.000105612
0.00350809
8.94546e-05
0.00360235
7.13126e-05
0.0036912
5.16796e-05
0.0037797
3.08348e-05
0.00387092
8.92969e-06
0.00396659
-1.3936e-05
0.00406756
-3.7685e-05
0.00417397
-6.23051e-05
0.00428534
0.00439983
-8.76725e-05
8.59875e-06
0.000270759
2.90295e-05
0.000793645
5.61536e-05
0.00130543
8.48346e-05
0.001785
0.000110665
0.00221227
0.00013056
0.00257403
0.000142987
0.00286658
0.000147803
0.00309515
0.000145836
0.00327103
0.000138393
0.00340806
0.000126843
0.00351964
0.000112349
0.00361684
9.57601e-05
0.00370779
7.76228e-05
0.00379784
5.82557e-05
0.00389029
3.78361e-05
0.00398701
1.64732e-05
0.00408892
-5.75394e-06
0.0041962
-2.88498e-05
0.00430843
0.00442368
-5.27078e-05
8.81548e-06
0.000261943
3.00136e-05
0.000772447
5.8537e-05
0.0012769
8.92234e-05
0.00175431
0.000117527
0.00218396
0.000140156
0.0025514
0.000155357
0.00285138
0.000162812
0.0030877
0.000163245
0.00327059
0.000157934
0.00341337
0.000148273
0.0035293
0.000135479
0.00362964
0.000120468
0.0037228
0.000103841
0.00381447
8.59604e-05
0.00390817
6.70303e-05
0.00400594
4.71724e-05
0.00410878
2.64854e-05
0.00421689
5.0715e-06
0.00432985
0.00444646
-1.77015e-05
9.00846e-06
0.000252935
3.09223e-05
0.000750533
6.07871e-05
0.00124704
9.34369e-05
0.00172166
0.000124204
0.0021532
0.000149592
0.00252601
0.000167624
0.00283335
0.000177793
0.00307753
0.000180706
0.00326768
0.000177599
0.00341648
0.000169883
0.00353702
0.000158833
0.00364069
0.000145426
0.00373621
0.000130327
0.00382957
0.000113941
0.00392455
9.65044e-05
0.00402338
7.81514e-05
0.00412713
5.89609e-05
0.00423608
3.89171e-05
0.00434989
0.00446747
1.78993e-05
9.17689e-06
0.000243758
3.17516e-05
0.000727958
6.28942e-05
0.0012159
9.7458e-05
0.0016871
0.000130671
0.00211998
0.000158839
0.00249784
0.000179756
0.00281243
0.000192715
0.00306457
0.000198191
0.00326221
0.000197364
0.0034173
0.000191658
0.00354272
0.000182396
0.00364995
0.000170625
0.00374798
0.000157071
0.00384312
0.00014219
0.00393943
0.00012625
0.00403932
0.000109404
0.00414398
9.17351e-05
0.00425375
7.32908e-05
0.00436834
0.00448672
5.40473e-05
9.32007e-06
0.000234438
3.24978e-05
0.000704781
6.48489e-05
0.00118354
0.000101269
0.00165068
0.000136902
0.00208435
0.000167865
0.00246688
0.000191719
0.00278858
0.000207545
0.00304874
0.00021567
0.00325408
0.000217205
0.00341577
0.000213576
0.00354635
0.000206154
0.00365737
0.000196052
0.00375808
0.000184064
0.00385511
0.000170698
0.0039528
0.000156261
0.00405375
0.000140927
0.00415932
0.00012479
0.00426988
0.000107905
0.00438522
0.00450436
9.02608e-05
9.4374e-06
0.000225001
3.31575e-05
0.00068106
6.66419e-05
0.00115006
0.000104854
0.00161246
0.000142873
0.00204633
0.000176637
0.00243311
0.000203475
0.00276174
0.000222244
0.00302997
0.000233107
0.00324322
0.000237092
0.00341178
0.000235615
0.00354783
0.000230089
0.0036629
0.000221695
0.00376647
0.000211296
0.00386551
0.000199458
0.00396464
0.000186528
0.00406668
0.000172706
0.00417314
0.000158098
0.00428449
0.000142755
0.00440056
0.00452044
0.000126681
9.5284e-06
0.000215472
3.37275e-05
0.000656861
6.82646e-05
0.00111552
0.000108195
0.00157253
0.000148555
0.00200597
0.00018512
0.00239655
0.000214985
0.00273188
0.000236773
0.00300819
0.000250466
0.00322952
0.000256994
0.00340526
0.000257748
0.00354707
0.000254181
0.00366646
0.000247539
0.00377312
0.000238754
0.00387429
0.000228458
0.00397493
0.00021704
0.0040781
0.000204729
0.00418545
0.000191645
0.00429757
0.000177839
0.00441437
0.00453496
0.000163316
9.59272e-06
0.00020588
3.4205e-05
0.000632249
6.97087e-05
0.00108002
0.000111274
0.00153097
0.000153922
0.00196332