/*--------------------------------*- C++ -*----------------------------------*\
  =========                 |
  \\      /  F ield         | OpenFOAM: The Open Source CFD Toolbox
   \\    /   O peration     | Website:  https://openfoam.org
    \\  /    A nd           | Version:  7
     \\/     M anipulation  |
\*---------------------------------------------------------------------------*/
FoamFile
{
    version     2.0;
    format      ascii;
    class       volVectorField;
    location    "220";
    object      U;
}
// * * * * * * * * * * * * * * * * * * * * * * * * * * * * * * * * * * * * * //

dimensions      [0 1 -1 0 0 0 0];

internalField   nonuniform List<vector> 
4575
(
(0.0265147 -0.00471731 2.88103e-20)
(0.0978888 -0.0112242 3.01549e-20)
(0.188583 -0.00947085 1.12274e-19)
(0.0298866 -0.00479254 3.37921e-20)
(0.107878 -0.0107827 1.23164e-19)
(0.205032 -0.00771871 9.68654e-20)
(0.318529 0.0022176 2.69938e-20)
(0.44468 0.0186266 2.51425e-19)
(0.0334373 -0.00476815 -1.52684e-19)
(0.118283 -0.0100378 -5.50668e-20)
(0.222001 -0.00547217 -1.80025e-19)
(0.341479 0.00644415 -9.86241e-20)
(0.472594 0.0250818 -5.06967e-20)
(0.609834 0.0492315 -1.58735e-19)
(0.746717 0.0770771 -9.88108e-20)
(0.876533 0.106458 1.76354e-19)
(0.037162 -0.00463399 5.03774e-20)
(0.129081 -0.0089663 -8.36959e-20)
(0.239442 -0.00270367 1.40989e-19)
(0.36483 0.0113475 6.55864e-20)
(0.500681 0.0323063 -9.35791e-20)
(0.641034 0.0586831 1.14501e-19)
(0.779075 0.0883891 2.84485e-20)
(0.908002 0.119055 -5.10121e-20)
(1.022 0.148332 6.12187e-20)
(1.1171 0.174242 -4.7421e-20)
(1.19158 0.195439 -1.32908e-19)
(1.24591 0.211315 -1.30826e-20)
(0.0410541 -0.00438006 -2.49856e-20)
(0.140244 -0.00754578 1.3601e-20)
(0.2573 0.000612025 -1.28433e-19)
(0.388497 0.0169472 8.20383e-20)
(0.528826 0.0403064 7.62381e-20)
(0.671901 0.0689067 -1.08184e-19)
(0.810633 0.100388 4.96033e-20)
(0.938205 0.132191 -9.60784e-20)
(1.04909 0.161895 -1.36025e-19)
(1.13984 0.187577 4.88778e-20)
(1.20937 0.208039 8.97177e-21)
(1.25876 0.222867 7.51163e-20)
(1.29066 0.232317 1.1639e-19)
(1.30856 0.237107 -5.64719e-21)
(1.31608 0.23818 1.96929e-20)
(0.0451057 -0.00399658 -2.79771e-20)
(0.151741 -0.0057553 -3.49656e-20)
(0.275518 0.00449741 1.35685e-19)
(0.412391 0.0232586 -1.67942e-20)
(0.556913 0.0490835 7.35804e-22)
(0.702304 0.0798859 -7.33703e-20)
(0.841264 0.113041 -1.29585e-20)
(0.967044 0.145823 5.15349e-20)
(1.07448 0.175775 1.75372e-19)
(1.16071 0.201059 -5.59918e-20)
(1.22528 0.220654 9.50724e-21)
(1.26987 0.23435 3.00508e-20)
(1.29755 0.242592 -5.83023e-20)
(1.31204 0.246237 -3.7272e-20)
(1.31701 0.246311 9.97454e-21)
(1.31566 0.243809 4.91103e-20)
(1.31051 0.239579 -1.2161e-20)
(1.30331 0.234283 -7.48122e-22)
(1.29515 0.228372 4.30833e-20)
(0.0493071 -0.00347404 4.87306e-20)
(0.16354 -0.00357527 9.76685e-20)
(0.294031 0.00897202 6.69622e-20)
(0.436418 0.0302929 -3.65422e-20)
(0.584826 0.0586336 1.34767e-19)
(0.732118 0.0915994 7.93885e-20)
(0.870854 0.126312 -1.18504e-19)
(0.994437 0.159907 -4.11761e-20)
(1.09814 0.189927 6.28912e-22)
(1.17972 0.214654 -3.39663e-20)
(1.23938 0.233262 -9.74856e-20)
(1.27935 0.245754 1.61468e-20)
(1.30306 0.252758 1.72312e-22)
(1.31441 0.255262 -1.00053e-19)
(1.31708 0.254356 4.55232e-20)
(1.31417 0.251054 -2.43412e-20)
(1.30803 0.246188 -1.06497e-19)
(1.30024 0.240387 5.11998e-20)
(1.29175 0.234048 -1.07361e-19)
(1.28304 0.227262 4.66735e-20)
(0.0536476 -0.00280344 -1.70861e-20)
(0.175601 -0.000987934 -4.19461e-20)
(0.312773 0.0140521 -6.96965e-20)
(0.460484 0.0380563 -3.34634e-21)
(0.612448 0.0689476 -6.38369e-21)
(0.761223 0.104021 -7.50184e-20)
(0.899298 0.140163 1.71814e-20)
(1.02032 0.174399 1.60565e-20)
(1.12005 0.204309 -3.31804e-20)
(1.1969 0.228328 2.70037e-21)
(1.25174 0.245841 5.13867e-20)
(1.28727 0.257069 -6.7326e-21)
(1.30728 0.262818 3.85959e-20)
(1.31577 0.264187 1.71451e-20)
(1.31639 0.262323 -9.36534e-20)
(1.31211 0.258245 7.17492e-21)
(1.30513 0.252762 5.65299e-20)
(1.29686 0.246471 -1.33297e-20)
(1.28812 0.239711 2.55615e-21)
(1.27927 0.232646 -9.01494e-21)
(0.0581147 -0.00197635 -1.56535e-20)
(0.187887 0.00202243 -1.49081e-20)
(0.331675 0.0197505 -2.63163e-20)
(0.484492 0.0465507 -1.725e-20)
(0.639667 0.0800113 -4.4842e-20)
(0.789504 0.117121 5.18189e-20)
(0.926505 0.15455 1.02227e-19)
(1.04462 0.189254 3.55072e-20)
(1.1402 0.218882 1.80927e-20)
(1.2123 0.242051 -4.29648e-20)
(1.26242 0.258374 -4.46381e-22)
(1.29374 0.26829 2.75495e-20)
(1.3103 0.272771 -3.51882e-20)
(1.31619 0.273018 1.33142e-20)
(1.31499 0.270218 4.45922e-20)
(1.30953 0.265388 -1.53124e-20)
(1.30184 0.259306 -2.69692e-20)
(1.29318 0.252533 -2.47882e-20)
(1.28424 0.245359 8.7555e-20)
(1.2753 0.238015 3.06234e-20)
(0.062695 -0.000985017 -2.79281e-20)
(0.200352 0.00546925 3.29572e-20)
(0.350664 0.026076 -7.48502e-21)
(0.508346 0.0557728 2.34133e-20)
(0.666372 0.0918057 -2.09156e-20)
(0.816857 0.130865 -1.27385e-20)
(0.952391 0.169432 -4.96795e-20)
(1.06732 0.204425 5.79509e-21)
(1.1586 0.233605 1.39303e-20)
(1.22596 0.255794 3.11033e-20)
(1.2715 0.270845 -1.20833e-20)
(1.29883 0.279411 -9.42587e-21)
(1.31221 0.28262 8.59608e-21)
(1.31575 0.281761 -1.50311e-20)
(1.31294 0.278048 3.40277e-20)
(1.30648 0.272486 2.24441e-20)
(1.2982 0.26582 -3.81851e-21)
(1.28923 0.258574 -2.47994e-21)
(1.28014 0.25099 -2.36259e-20)
(1.27113 0.243364 -2.94897e-20)
(0.0673734 0.000177487 6.0186e-21)
(0.212953 0.00936347 -1.02924e-20)
(0.369666 0.0330337 6.99674e-21)
(0.531948 0.0657149 -9.57603e-21)
(0.692458 0.104307 -3.65683e-20)
(0.843185 0.145215 1.6858e-20)
(0.976888 0.184762 8.1762e-21)
(1.08838 0.21987 -3.86662e-20)
(1.17525 0.248443 -2.42451e-20)
(1.23792 0.269532 -2.302e-21)
(1.27905 0.283239 -3.34044e-20)
(1.30264 0.290427 3.43144e-20)
(1.31309 0.292365 -7.72244e-23)
(1.31451 0.290418 -4.52103e-21)
(1.31031 0.285815 -8.63104e-21)
(1.30298 0.27954 4.19115e-21)
(1.29422 0.272305 2.9192e-21)
(1.285 0.264591 -1.12542e-21)
(1.27582 0.256599 -8.63942e-21)
(1.26677 0.248689 1.05266e-20)
(0.072134 0.00151722 2.01189e-21)
(0.225641 0.0137134 6.783e-21)
(0.388605 0.0406244 3.76262e-21)
(0.555203 0.0763642 -1.74254e-21)
(0.717823 0.117487 2.41402e-20)
(0.868398 0.160131 -5.36538e-21)
(0.999936 0.200495 8.48111e-21)
(1.10777 0.235543 1.86813e-20)
(1.19018 0.263358 -3.35073e-21)
(1.24824 0.283241 8.34809e-22)
(1.28516 0.295544 9.17865e-21)
(1.30523 0.301332 -4.8606e-21)
(1.313 0.302008 6.27477e-21)
(1.31255 0.298992 1.13164e-21)
(1.30711 0.293521 -1.17124e-20)
(1.29906 0.286551 5.74087e-22)
(1.28991 0.278757 1.4982e-20)
(1.28052 0.270579 -3.0953e-21)
(1.27127 0.262182 4.56678e-21)
(1.2622 0.253984 -5.1131e-21)
(0.0769601 0.00303926 8.26611e-22)
(0.238369 0.0185244 1.00045e-20)
(0.407407 0.0488449 5.37276e-21)
(0.578018 0.0877033 -1.09167e-21)
(0.74237 0.131313 2.22861e-20)
(0.892416 0.175569 -6.2687e-21)
(1.02149 0.216584 1.16652e-20)
(1.1255 0.251402 1.55888e-20)
(1.20342 0.278318 -3.20321e-21)
(1.25698 0.296898 7.15258e-22)
(1.28988 0.307747 1.04014e-20)
(1.30669 0.312124 -4.17874e-21)
(1.31203 0.311548 4.08043e-21)
(1.3099 0.307484 -9.97369e-22)
(1.30341 0.301166 -9.52887e-21)
(1.29475 0.293517 -2.74752e-22)
(1.28529 0.285173 1.48469e-20)
(1.27578 0.276535 -2.88492e-21)
(1.2665 0.267732 5.37731e-21)
(1.25744 0.259244 -5.75049e-21)
(0.0818339 0.00474766 7.19454e-21)
(0.251085 0.0237992 -1.28555e-20)
(0.425993 0.057688 6.51295e-21)
(0.600301 0.0997105 -5.21995e-21)
(0.766012 0.14575 -3.53038e-20)
(0.91517 0.191485 1.426e-20)
(1.0415 0.23298 6.50603e-21)
(1.14155 0.267404 -4.40147e-20)
(1.215 0.293289 -1.83614e-20)
(1.2642 0.310481 -1.63976e-23)
(1.29329 0.319837 -2.8038e-20)
(1.30708 0.322797 2.32463e-20)
(1.31021 0.320983 -5.18018e-21)
(1.30661 0.315893 3.24967e-21)
(1.29922 0.308747 -1.25129e-20)
(1.29006 0.300434 9.42795e-21)
(1.28038 0.291548 5.96178e-21)
(1.27079 0.282451 -1.05328e-21)
(1.26152 0.273244 -1.15589e-20)
(1.25248 0.26446 1.05324e-20)
(0.0867363 0.00664534 -1.55581e-20)
(0.263739 0.0295374 -6.9229e-21)
(0.44429 0.067142 -1.00162e-20)
(0.621965 0.11236 3.42166e-20)
(0.788664 0.160757 1.42385e-22)
(0.936597 0.20783 -1.79478e-20)
(1.05996 0.249636 -7.2638e-20)
(1.15595 0.283508 7.04504e-21)
(1.22496 0.308241 8.12252e-21)
(1.26996 0.323971 3.57829e-20)
(1.29546 0.331803 5.3033e-21)
(1.30646 0.333347 -2.97058e-20)
(1.30762 0.330311 2.77453e-20)
(1.30272 0.324218 -1.11069e-20)
(1.29457 0.316263 4.15319e-20)
(1.28502 0.307297 -3.77061e-21)
(1.27517 0.297876 2.12332e-21)
(1.26554 0.288321 1.80049e-21)
(1.25631 0.27871 -3.07008e-20)
(1.24731 0.269627 -1.84361e-20)
(0.0916481 0.00873402 -5.88387e-21)
(0.276278 0.0357353 -3.32634e-20)
(0.462222 0.0771913 2.6082e-20)
(0.642927 0.12562 -3.29158e-20)
(0.810251 0.176293 -5.88217e-20)
(0.956644 0.224555 5.0955e-20)
(1.07683 0.266505 8.32975e-20)
(1.1687 0.299673 2.95857e-20)
(1.23335 0.323143 2.03959e-20)
(1.27431 0.337348 -5.79462e-20)
(1.29645 0.343633 4.40308e-20)
(1.3049 0.343767 5.05273e-21)
(1.30429 0.33953 -5.46826e-20)
(1.29827 0.332454 2.11841e-20)
(1.28948 0.323708 7.44868e-20)
(1.27962 0.314101 -5.06428e-20)
(1.26966 0.30415 -1.42982e-20)
(1.26005 0.294137 -1.36684e-20)
(1.25089 0.284122 6.25168e-20)
(1.24195 0.274735 3.56637e-20)
(0.0965495 0.0110142 4.06572e-20)
(0.288652 0.0423864 -6.75264e-20)
(0.479717 0.0878163 -9.75841e-20)
(0.663107 0.139458 4.36458e-21)
(0.830703 0.19231 -1.73853e-20)
(0.975266 0.24161 -6.99753e-20)
(1.0921 0.283539 -1.16856e-20)
(1.17982 0.31586 3.53689e-20)
(1.24021 0.337968 -5.64094e-20)
(1.27731 0.350595 4.57929e-20)
(1.29632 0.355318 5.26624e-20)
(1.30245 0.354051 -3.28701e-20)
(1.30026 0.348633 1.334e-20)
(1.29328 0.340596 6.6712e-20)
(1.28397 0.331076 -8.82606e-20)
(1.27388 0.320838 1.52443e-20)
(1.26388 0.31036 4.10374e-20)
(1.25431 0.299891 -1.23327e-20)
(1.24524 0.289471 -1.29994e-20)
(1.23638 0.279777 -2.20173e-21)
(0.10142 0.0134851 5.99825e-20)
(0.300809 0.0494811 1.08691e-19)
(0.496705 0.0989934 5.72833e-20)
(0.682431 0.153835 -6.77e-20)
(0.849957 0.208762 1.75381e-19)
(0.992428 0.258945 2.68306e-20)
(1.10577 0.300689 -7.33986e-20)
(1.18934 0.33203 -5.24835e-20)
(1.24558 0.352686 -4.16318e-20)
(1.27903 0.363691 1.37945e-20)
(1.29513 0.366846 -4.61447e-20)
(1.29916 0.364192 1.46168e-21)
(1.29558 0.357615 -3.0685e-20)
(1.28778 0.348638 -4.15092e-20)
(1.27806 0.338359 -7.00645e-21)
(1.26782 0.3275 -4.26258e-21)
(1.25781 0.3165 -7.59523e-20)
(1.24833 0.305572 5.66967e-20)
(1.23937 0.294748 -8.51922e-20)
(1.23061 0.284744 -4.95614e-20)
(0.10624 0.0161447 -7.27732e-20)
(0.312698 0.0570067 -2.91966e-20)
(0.513118 0.110695 1.28893e-19)
(0.70083 0.168711 3.24985e-20)
(0.867961 0.225599 -1.10369e-19)
(1.0081 0.276506 -6.34749e-20)
(1.11785 0.31791 -2.09119e-20)
(1.19729 0.348145 1.34553e-19)
(1.24952 0.367272 9.5356e-20)
(1.27952 0.376621 -3.23699e-20)
(1.29293 0.378205 -1.8621e-20)
(1.29506 0.374181 4.66222e-20)
(1.29028 0.366469 -5.01732e-20)
(1.2818 0.356572 2.30553e-20)
(1.27175 0.345549 9.8677e-21)
(1.26142 0.334076 -1.23378e-20)
(1.25146 0.322557 9.23569e-20)
(1.24209 0.311172 -3.84906e-20)
(1.23328 0.299943 7.67141e-20)
(1.22464 0.289627 -2.69172e-20)
(0.110989 0.0189898 -4.09053e-20)
(0.32427 0.0649476 -7.36124e-20)
(0.528892 0.122892 -1.15809e-19)
(0.71824 0.184041 6.94319e-20)
(0.884666 0.242768 3.78633e-20)
(1.02227 0.294242 -5.34543e-20)
(1.12834 0.335155 8.82734e-20)
(1.20371 0.36417 -1.34997e-19)
(1.25207 0.381698 -1.42246e-19)
(1.27882 0.389365 8.5118e-20)
(1.28977 0.389384 3.14735e-20)
(1.29021 0.384009 -3.46755e-20)
(1.28439 0.375185 5.21953e-20)
(1.27535 0.36439 4.05412e-20)
(1.26507 0.352637 -2.92867e-20)
(1.25471 0.340558 -9.84517e-21)
(1.24483 0.328522 -7.04268e-20)
(1.23561 0.316681 1.41635e-20)
(1.22696 0.305046 -5.86133e-20)
(1.21847 0.294417 -9.51843e-21)
(0.115646 0.0220157 3.40049e-20)
(0.335478 0.0732852 -5.77496e-20)
(0.543965 0.135549 1.04664e-19)
(0.734604 0.199779 1.75704e-19)
(0.900033 0.260215 -2.50623e-19)
(1.03491 0.3121 2.18931e-19)
(1.13725 0.352378 5.82135e-20)
(1.20862 0.380068 -8.37951e-20)
(1.25329 0.395939 9.8231e-20)
(1.277 0.401906 5.74175e-20)
(1.2857 0.400368 7.04444e-20)
(1.28464 0.393667 -1.20981e-19)
(1.27792 0.383755 -2.46206e-20)
(1.26844 0.372081 5.85961e-20)
(1.25801 0.359611 2.21311e-20)
(1.24767 0.346933 1.00558e-19)
(1.23792 0.334384 1.24724e-19)
(1.22888 0.322086 -3.04049e-20)
(1.22042 0.310047 5.21361e-20)
(1.21209 0.299103 5.83547e-20)
(0.120192 0.0252167 -9.84425e-21)
(0.346273 0.0819984 -1.34108e-19)
(0.558281 0.148629 -1.82851e-19)
(0.749869 0.215875 -2.36859e-19)
(0.914027 0.277888 -2.2818e-20)
(1.04602 0.330027 8.56082e-20)
(1.14461 0.369534 -1.62568e-20)
(1.21207 0.395804 2.83315e-20)
(1.25322 0.409969 -4.33994e-20)
(1.2741 0.414227 7.18739e-20)
(1.28075 0.411147 -1.08552e-19)
(1.27838 0.403142 1.40058e-19)
(1.27092 0.392168 7.95286e-20)
(1.26109 0.379635 3.57253e-20)
(1.25058 0.36646 -5.28797e-20)
(1.24033 0.35319 -5.58412e-20)
(1.23074 0.340132 -5.23907e-20)
(1.2219 0.327378 3.78676e-21)
(1.21366 0.314934 6.7435e-20)
(1.20552 0.303674 -7.09604e-20)
(0.124607 0.0285857 -1.74368e-20)
(0.356613 0.0910634 1.04595e-19)
(0.571786 0.162094 1.30505e-19)
(0.763991 0.232279 -2.02299e-20)
(0.926624 0.295729 6.00484e-20)
(1.0556 0.347972 1.59549e-20)
(1.15044 0.386579 -8.61902e-20)
(1.2141 0.411343 6.77379e-20)
(1.2519 0.423764 6.28392e-20)
(1.27016 0.426308 -1.08143e-19)
(1.27498 0.421704 1.72321e-19)
(1.27146 0.412424 -1.41833e-19)
(1.26339 0.400412 8.09937e-20)
(1.25332 0.387039 -1.16546e-19)
(1.2428 0.373172 1.69526e-19)
(1.23267 0.359318 -1.05713e-19)
(1.22328 0.345752 -3.04831e-20)
(1.21467 0.332544 -4.0491e-20)
(1.20667 0.319694 -8.42676e-20)
(1.19875 0.30812 1.39239e-21)
(0.128871 0.0321144 1.25926e-19)
(0.366455 0.100454 1.30623e-19)
(0.584433 0.175899 -1.87133e-19)
(0.776928 0.248938 -1.13024e-19)
(0.937801 0.313684 1.66388e-19)
(1.06365 0.365881 -6.58302e-20)
(1.15476 0.403468 9.54297e-20)
(1.21474 0.426653 4.07275e-20)
(1.24939 0.437298 -9.37865e-20)
(1.26524 0.438133 -2.30119e-19)
(1.26842 0.432027 -4.07169e-20)
(1.26391 0.421498 -8.42551e-20)
(1.25536 0.408475 -1.23731e-19)
(1.24514 0.39428 9.92879e-21)
(1.23467 0.379734 -1.2672e-20)
(1.2247 0.365303 -1.18207e-20)
(1.21554 0.351235 9.5205e-20)
(1.20719 0.337573 6.76611e-20)
(1.19946 0.324315 7.56596e-21)
(1.19176 0.312432 3.86807e-20)
(0.132967 0.0357936 -3.03425e-20)
(0.37576 0.110142 2.31444e-19)
(0.596177 0.190002 8.94044e-20)
(0.788647 0.265797 1.80372e-19)
(0.947547 0.331695 5.8216e-20)
(1.07018 0.383703 2.2022e-20)
(1.1576 0.42016 -1.38929e-19)
(1.21405 0.441699 -4.43761e-20)
(1.24573 0.450548 2.18625e-20)
(1.25938 0.449682 1.70908e-19)
(1.2611 0.4421 -5.54522e-20)
(1.25577 0.430352 6.79519e-20)
(1.24684 0.416343 1.4163e-19)
(1.23655 0.401346 3.1935e-20)
(1.22619 0.386133 -2.76172e-20)
(1.21643 0.371133 3.65407e-20)
(1.20753 0.356568 6.83327e-20)
(1.19946 0.342456 3.05186e-20)
(1.19202 0.328793 7.7278e-20)
(1.18451 0.316608 5.82578e-20)
(0.136877 0.0396127 -7.90882e-20)
(0.384492 0.120096 -1.18731e-19)
(0.606979 0.204356 7.48618e-20)
(0.79912 0.282802 2.49494e-20)
(0.955852 0.349707 4.92492e-20)
(1.07522 0.401388 -1.99838e-19)
(1.159 0.436612 7.19337e-20)
(1.21206 0.456451 -1.53651e-19)
(1.24097 0.463489 -8.44228e-20)
(1.25261 0.460936 9.74015e-20)
(1.25306 0.451907 -1.03972e-20)
(1.24704 0.438971 6.20794e-21)
(1.23785 0.424002 -1.72131e-19)
(1.22757 0.408222 -6.86036e-20)
(1.21737 0.392355 5.55741e-20)
(1.20786 0.376794 -9.61833e-20)
(1.19924 0.361738 -5.09741e-20)
(1.19149 0.347183 -5.08091e-20)
(1.18435 0.333137 -8.67979e-20)
(1.17702 0.320641 -1.97566e-19)
(0.140584 0.0435603 4.61375e-20)
(0.392615 0.130284 -5.58873e-20)
(0.616804 0.218913 -3.02836e-19)
(0.808325 0.299895 1.62279e-19)
(0.962715 0.367664 -2.00452e-19)
(1.07876 0.418884 -2.81532e-20)
(1.15899 0.452782 -2.70733e-19)
(1.20881 0.470875 2.85656e-19)
(1.23515 0.476096 1.61508e-19)
(1.24498 0.471878 -9.66039e-21)
(1.24432 0.461432 5.63945e-20)
(1.23776 0.447339 -7.04662e-20)
(1.22841 0.431437 -5.59295e-21)
(1.2182 0.414894 3.21515e-20)
(1.20822 0.398386 -3.27579e-20)
(1.19899 0.382273 6.04026e-20)
(1.19069 0.366733 -7.91217e-20)
(1.18327 0.351739 -6.97499e-20)
(1.17646 0.337346 3.91029e-20)
(1.16937 0.324521 5.25326e-20)
(0.144073 0.0476239 1.05179e-19)
(0.400099 0.140672 1.03066e-19)
(0.625622 0.233624 7.91487e-20)
(0.816245 0.317021 -2.16121e-21)
(0.968139 0.385508 -5.18038e-20)
(1.08085 0.436143 3.49041e-19)
(1.15761 0.468632 1.96575e-19)
(1.20436 0.484942 1.31695e-19)
(1.22832 0.488347 1.85315e-19)
(1.23653 0.482487 2.24429e-20)
(1.23493 0.470658 -1.51235e-19)
(1.22794 0.455442 -1.58659e-20)
(1.21852 0.438633 -3.20224e-20)
(1.20846 0.421346 -1.03117e-19)
(1.19874 0.404212 -3.79722e-20)
(1.18983 0.387557 -5.2914e-20)
(1.18187 0.37154 1.62823e-19)
(1.17482 0.356112 -2.03247e-21)
(1.16836 0.341377 4.39089e-20)
(1.16158 0.328245 3.49007e-20)
(0.147328 0.0517903 -3.52778e-20)
(0.406918 0.151225 -5.98007e-20)
(0.633408 0.248437 -1.29872e-19)
(0.822868 0.334122 -2.18571e-20)
(0.972132 0.403185 -2.12545e-19)
(1.0815 0.453116 -1.5176e-19)
(1.15489 0.484122 4.99107e-20)
(1.19874 0.49862 -3.59759e-19)
(1.22051 0.500217 -1.93239e-19)
(1.22728 0.492744 4.64113e-20)
(1.22489 0.479568 -2.35321e-20)
(1.21761 0.463263 1.35506e-19)
(1.20821 0.445575 1.8223e-19)
(1.19836 0.427564 4.55277e-20)
(1.18894 0.409817 1.21682e-19)
(1.18038 0.39263 -6.27808e-20)
(1.17279 0.376144 8.44649e-20)
(1.16613 0.360294 4.65625e-20)
(1.16004 0.345216 3.94812e-20)
(1.15362 0.331786 -7.48914e-20)
(0.150336 0.0560454 5.2693e-20)
(0.413046 0.161905 -6.03069e-21)
(0.640141 0.263302 -2.0082e-19)
(0.828189 0.351142 -3.26483e-22)
(0.974706 0.420639 4.78517e-19)
(1.08075 0.469755 9.49719e-20)
(1.15088 0.499212 7.12802e-20)
(1.192 0.511879 2.08126e-19)
(1.21177 0.511684 -1.66825e-19)
(1.21728 0.50263 -1.77337e-19)
(1.21425 0.488145 -1.55895e-21)
(1.20678 0.470784 -1.22608e-19)
(1.19749 0.452246 -6.74751e-20)
(1.1879 0.433532 1.79297e-19)
(1.17883 0.415186 -4.66991e-20)
(1.17064 0.397479 3.60988e-21)
(1.16346 0.380532 -6.14776e-20)
(1.15721 0.364268 -9.12559e-20)
(1.15152 0.348855 5.12637e-21)
(1.14547 0.335132 8.42058e-20)
(0.153085 0.0603744 -2.5463e-19)
(0.418462 0.172674 1.55413e-19)
(0.645806 0.278167 3.44872e-19)
(0.832207 0.368023 1.07604e-19)
(0.975879 0.437818 -5.63062e-19)
(1.07862 0.486014 -2.31429e-19)
(1.14562 0.513867 -1.79767e-19)
(1.18418 0.524692 -6.49924e-20)
(1.20214 0.522722 2.18365e-19)
(1.20656 0.512125 2.35008e-20)
(1.20303 0.49637 -4.46426e-20)
(1.19548 0.47799 8.18841e-20)
(1.18636 0.458629 1.17693e-20)
(1.1771 0.439235 -2.13623e-19)
(1.16841 0.420305 6.28562e-20)
(1.16063 0.40209 8.25782e-20)
(1.15387 0.384692 3.86078e-20)
(1.14806 0.368023 5.21547e-20)
(1.1428 0.352282 -8.94973e-20)
(1.13713 0.338276 -4.32608e-20)
(0.155563 0.0647619 -1.73525e-20)
(0.423148 0.183495 7.83418e-20)
(0.650393 0.292979 3.88431e-20)
(0.834926 0.38471 1.14669e-19)
(0.975671 0.454668 3.14355e-19)
(1.07515 0.501849 -2.03347e-19)
(1.13916 0.52805 -1.19882e-20)
(1.17533 0.537028 1.92993e-19)
(1.19165 0.533311 -2.32212e-19)
(1.19514 0.521209 7.50711e-20)
(1.19125 0.504226 1.9125e-19)
(1.18371 0.484864 4.32578e-20)
(1.17485 0.464708 -9.18271e-20)
(1.16596 0.444655 1.52908e-19)
(1.15769 0.425161 -1.75419e-19)
(1.15035 0.406449 4.72329e-21)
(1.14403 0.38861 -3.98392e-20)
(1.13868 0.371546 6.7401e-20)
(1.13387 0.355488 5.9004e-20)
(0.157761 0.0691918 3.29923e-20)
(0.427091 0.194327 1.251e-19)
(0.653893 0.307687 1.23157e-19)
(0.836354 0.401147 -7.81793e-20)
(0.974109 0.471137 6.81772e-21)
(1.07039 0.517214 1.88722e-19)
(1.13152 0.541725 3.32271e-19)
(1.16549 0.548861 -3.40017e-20)
(1.18035 0.543427 3.16339e-20)
(1.18307 0.529863 -9.30742e-20)
(1.17894 0.511696 -1.95277e-19)
(1.17152 0.491388 3.11621e-20)
(1.16298 0.470467 1.07908e-19)
(1.1545 0.449777 -2.1786e-20)
(1.14669 0.429736 -1.6163e-20)
(1.13981 0.410542 -6.81752e-20)
(1.13395 0.392274 -1.13084e-20)
(1.12908 0.374826 -2.6465e-20)
(0.15967 0.073648 -1.13573e-19)
(0.430279 0.205131 -2.86567e-19)
(0.656306 0.322239 -4.24242e-19)
(0.836504 0.417279 7.21405e-21)
(0.971219 0.487176 -2.76929e-21)
(1.06436 0.532069 -1.71396e-19)
(1.12277 0.554859 9.13897e-20)
(1.1547 0.560163 -9.85077e-20)
(1.16828 0.553047 1.83879e-19)
(1.17038 0.538067 1.82412e-19)
(1.16612 0.51876 8.04118e-20)
(1.1589 0.497545 -2.08553e-20)
(1.15074 0.47589 2.91867e-20)
(1.14273 0.454587 -7.39994e-20)
(1.1354 0.434017 1.24215e-19)
(1.12901 0.414356 -5.3838e-20)
(0.161283 0.0781134 1.23232e-19)
(0.432704 0.215867 3.86656e-19)
(0.657633 0.336582 1.5213e-19)
(0.835393 0.433053 -3.00306e-20)
(0.967034 0.502734 -1.6367e-19)
(1.05711 0.546371 -3.53347e-20)
(1.11294 0.567419 -4.45887e-20)
(1.14301 0.570908 -1.41439e-20)
(1.15547 0.56215 -5.47397e-20)
(1.15708 0.545802 -1.7783e-19)
(1.15281 0.525401 -1.43951e-19)
(1.14587 0.503318 1.02742e-19)
(1.13816 0.48096 -1.40483e-19)
(1.13065 0.459069 -6.17302e-21)
(1.12384 0.43799 3.6328e-20)
(0.162594 0.0825712 1.19093e-20)
(0.434362 0.226495 2.46126e-20)
(0.65788 0.350667 3.47831e-19)
(0.833043 0.448415 -1.95643e-19)
(0.961588 0.517765 4.57908e-19)
(1.04869 0.560081 2.05032e-19)
(1.10209 0.579372 -2.76201e-19)
(1.13046 0.58107 -2.51377e-20)
(1.14196 0.570715 -2.16906e-19)
(1.14323 0.553049 -5.14426e-20)
(1.13904 0.531601 5.72109e-20)
(1.13247 0.508689 7.55742e-20)
(1.12525 0.485661 1.45269e-19)
(1.11829 0.463207 1.73323e-20)
(0.163599 0.0870041 9.79811e-20)
(0.435251 0.236975 -4.61589e-19)
(0.657058 0.364442 -1.0358e-19)
(0.829478 0.463316 -7.70336e-20)
(0.954918 0.532223 -2.86647e-19)
(1.03914 0.57316 -2.78823e-19)
(1.09025 0.590689 -8.52076e-20)
(1.11709 0.590624 -1.07305e-19)
(1.12778 0.578719 3.02638e-19)
(1.12884 0.559788 1.14355e-20)
(1.12484 0.537342 -1.84693e-19)
(1.11869 0.513642 -2.51405e-19)
(1.11202 0.489976 1.12808e-19)
(0.164295 0.0913949 7.72711e-21)
(0.435374 0.247267 6.89666e-20)
(0.65518 0.377858 -2.09288e-19)
(0.824726 0.477705 1.22233e-19)
(0.947065 0.546063 1.35639e-20)
(1.0285 0.585573 3.47521e-19)
(1.07747 0.60134 1.35367e-19)
(1.10294 0.599548 2.10508e-19)
(1.11298 0.586144 -1.35565e-19)
(1.11394 0.566001 2.38414e-19)
(1.11022 0.542606 1.55501e-19)
(1.10458 0.51816 3.22119e-20)
(0.16468 0.0957263 -1.97202e-19)
(0.434734 0.257334 4.66168e-19)
(0.652264 0.390868 2.43981e-19)
(0.818818 0.491535 8.97445e-20)
(0.93807 0.559244 -4.74251e-20)
(1.01682 0.597285 -2.86619e-19)
(1.06381 0.611297 4.23944e-20)
(1.08807 0.607817 -3.95321e-20)
(1.09759 0.592969 -1.39214e-19)
(1.09857 0.571671 -1.6432e-19)
(1.09522 0.547376 8.6883e-20)
(0.164753 0.0999812 -4.09892e-20)
(0.43334 0.267136 -1.23288e-19)
(0.64833 0.403425 -2.80878e-19)
(0.811788 0.504759 -1.43579e-19)
(0.927978 0.571725 -1.66891e-19)
(1.00415 0.608264 1.45681e-19)
(1.0493 0.620532 -5.77995e-20)
(1.0725 0.61541 3.53018e-20)
(1.08165 0.599175 -2.10603e-20)
(1.08275 0.576779 -7.37861e-20)
(0.164516 0.104143 3.97311e-19)
(0.431202 0.276636 1.36751e-20)
(0.643403 0.415484 -1.22955e-19)
(0.803675 0.517332 1.16849e-19)
(0.916838 0.583467 -1.87815e-20)
(0.990547 0.618478 -5.33894e-20)
(1.03399 0.629024 -1.22644e-19)
(1.05629 0.622304 1.70578e-20)
(1.06519 0.604743 1.42728e-19)
(0.163972 0.108196 -8.86849e-20)
(0.428332 0.285798 1.00179e-19)
(0.637509 0.427001 2.79583e-20)
(0.794518 0.529213 2.45081e-19)
(0.904693 0.594434 -3.26007e-20)
(0.976044 0.627895 -1.53674e-19)
(1.01795 0.636746 2.7234e-19)
(1.03947 0.628482 8.66126e-21)
(0.163122 0.112124 -3.6414e-19)
(0.424745 0.294588 -1.17761e-20)
(0.63068 0.437935 2.2983e-19)
(0.784365 0.540365 -2.78359e-20)
(0.891583 0.604587 3.52465e-19)
(0.960703 0.636488 1.43069e-21)
(1.0012 0.643675 -2.85797e-19)
(0.161972 0.115912 2.17435e-19)
(0.420461 0.30297 -1.77378e-19)
(0.62295 0.448241 -2.68461e-19)
(0.773249 0.55075 -4.38804e-20)
(0.877567 0.613904 -2.31272e-19)
(0.944576 0.64423 1.02922e-19)
(0.160528 0.119545 -8.44945e-20)
(0.415498 0.310912 1.13519e-19)
(0.614351 0.457886 -3.26368e-20)
(0.761209 0.560322 -4.30765e-20)
(0.862704 0.622351 8.81919e-21)
(0.158794 0.123008 -1.32039e-19)
(0.409878 0.318382 -1.31905e-19)
(0.604918 0.466831 2.87165e-19)
(0.748305 0.569056 8.20833e-20)
(0.847042 0.629896 2.0694e-20)
(0.156775 0.126285 1.61908e-19)
(0.40363 0.325353 2.52551e-19)
(0.594691 0.475042 -6.64833e-20)
(0.734589 0.57692 -6.29023e-20)
(0.154472 0.129347 -1.07748e-19)
(0.396791 0.331799 -1.96019e-19)
(0.583716 0.48249 -9.23654e-20)
(0.151913 0.132175 1.06169e-19)
(0.389388 0.33768 1.96146e-19)
(0.572029 0.489149 8.22981e-20)
(0.149119 0.134775 -5.47227e-20)
(0.381436 0.342966 -1.14584e-21)
(0.146092 0.137138 4.75171e-20)
(0.14284 0.13925 6.95054e-21)
(0.155345 -0.151393 -1.31964e-19)
(0.158884 -0.149084 2.23766e-20)
(0.162192 -0.146517 -1.45014e-19)
(0.41398 -0.372118 -2.96769e-19)
(0.165261 -0.143704 2.51629e-19)
(0.422695 -0.366373 1.81327e-19)
(0.619361 -0.529234 -4.29989e-20)
(0.16809 -0.140658 -1.66712e-19)
(0.430852 -0.360015 -4.53653e-19)
(0.632193 -0.521959 -1.77813e-19)
(0.17066 -0.13737 2.45727e-19)
(0.438432 -0.353067 3.74426e-19)
(0.644306 -0.51387 -3.22081e-20)
(0.793394 -0.621864 -8.24316e-20)
(0.17294 -0.133854 -2.84802e-19)
(0.445412 -0.345572 -1.10417e-19)
(0.655662 -0.504997 1.96026e-19)
(0.80852 -0.613267 1.55604e-19)
(0.912076 -0.67621 9.73363e-20)
(0.174923 -0.130139 7.28e-20)
(0.451753 -0.33756 -6.35052e-20)
(0.666218 -0.495365 1.6661e-19)
(0.82283 -0.603772 -2.26938e-19)
(0.929307 -0.667865 -1.82648e-20)
(0.995876 -0.695994 1.31248e-19)
(0.176606 -0.126246 5.19894e-19)
(0.457422 -0.329056 -2.99909e-19)
(0.675925 -0.485004 -4.06609e-19)
(0.836274 -0.593414 -1.68896e-19)
(0.945742 -0.658597 -2.35389e-19)
(1.01436 -0.688263 -1.32564e-20)
(0.177982 -0.12219 -2.7464e-19)
(0.462395 -0.32009 -9.54539e-21)
(0.684748 -0.473955 2.11409e-19)
(0.848796 -0.582223 2.97183e-20)
(0.961332 -0.648431 4.67387e-19)
(1.03212 -0.679635 -4.3376e-20)
(1.07202 -0.684618 3.89499e-20)
(0.179047 -0.117986 -1.08127e-19)
(0.46665 -0.310696 5.07423e-20)
(0.692654 -0.462256 8.69698e-20)
(0.860344 -0.570232 2.04706e-19)
(0.976021 -0.6374 -1.31302e-19)
(1.0491 -0.670135 4.25904e-20)
(1.09038 -0.676742 3.26048e-19)
(1.11008 -0.665603 -3.33012e-20)
(0.179794 -0.113649 5.51571e-19)
(0.470167 -0.300909 -1.40035e-19)
(0.699605 -0.449946 -1.84329e-19)
(0.870878 -0.557483 9.91539e-20)
(0.989747 -0.625532 5.28816e-20)
(1.06526 -0.65979 -1.07019e-19)
(1.10806 -0.668055 -2.36546e-20)
(1.12844 -0.658411 -5.72138e-20)
(1.13495 -0.637872 5.77456e-20)
(0.18022 -0.109195 -2.46171e-19)
(0.472927 -0.290763 3.00755e-20)
(0.705569 -0.437065 -2.78113e-19)
(0.880359 -0.544013 -3.59666e-19)
(1.00246 -0.612864 -1.40757e-19)
(1.08053 -0.648631 -1.03582e-20)
(1.12499 -0.658576 1.68925e-19)
(1.1462 -0.650483 -1.21016e-19)
(1.15286 -0.631225 3.31736e-20)
(1.15145 -0.606036 2.33114e-19)
(0.18032 -0.104641 -2.55033e-19)
(0.474915 -0.280295 5.4724e-19)
(0.710514 -0.423658 3.24255e-19)
(0.888743 -0.529866 1.39255e-19)
(1.01413 -0.599435 -5.03177e-20)
(1.09486 -0.636681 -2.94229e-19)
(1.14115 -0.648332 -1.70595e-19)
(1.16333 -0.641839 -7.68786e-20)
(1.17026 -0.623922 -9.648e-20)
(1.16861 -0.599793 -3.30993e-19)
(1.1628 -0.572985 1.76087e-19)
(0.180093 -0.100003 4.61923e-20)
(0.476119 -0.269541 -7.63209e-20)
(0.714413 -0.409771 5.75137e-20)
(0.895987 -0.515085 -1.37358e-19)
(1.02469 -0.58528 2.77283e-19)
(1.1082 -0.623975 4.56349e-19)
(1.15647 -0.63735 1.33068e-19)
(1.17978 -0.6325 3.28409e-19)
(1.18711 -0.61598 -1.64496e-19)
(1.18533 -0.592967 3.64928e-19)
(1.17905 -0.567032 7.45524e-20)
(1.17105 -0.540345 3.09172e-19)
(0.179538 -0.0952972 -1.62408e-19)
(0.476527 -0.258541 -3.63175e-19)
(0.717241 -0.395451 -2.74225e-19)
(0.902054 -0.499718 8.11022e-20)
(1.03411 -0.570441 -4.12065e-19)
(1.12051 -0.610547 -4.69815e-19)
(1.17092 -0.625656 -5.26796e-20)
(1.19551 -0.622491 -1.19413e-19)
(1.20338 -0.607421 3.86643e-19)
(1.20157 -0.585579 -8.66729e-20)
(1.19491 -0.560566 -2.36596e-19)
(1.18632 -0.534611 -3.65926e-19)
(1.17738 -0.508929 -2.18163e-19)
(0.178656 -0.0905422 -1.28825e-19)
(0.476134 -0.247333 -9.98357e-20)
(0.718977 -0.380745 4.20412e-19)
(0.906908 -0.48381 -2.50199e-19)
(1.04233 -0.554958 6.10616e-19)
(1.13175 -0.596433 2.38795e-19)
(1.18444 -0.613279 -1.43811e-19)
(1.21048 -0.611833 -2.25034e-19)
(1.21903 -0.598266 -3.17676e-19)
(1.21732 -0.577646 1.27898e-19)
(1.21035 -0.553602 2.13188e-20)
(1.20124 -0.528421 1.17981e-19)
(1.19169 -0.503373 2.34205e-19)
(1.18252 -0.479075 4.85065e-20)
(0.177448 -0.0857553 2.54951e-19)
(0.474933 -0.235958 4.01582e-19)
(0.719604 -0.365703 1.8505e-20)
(0.910519 -0.467413 2.30271e-19)
(1.04932 -0.538878 -5.32e-19)
(1.14185 -0.581668 1.23247e-19)
(1.19699 -0.600249 -7.80248e-20)
(1.22465 -0.600554 -1.60811e-20)
(1.23403 -0.588536 -1.19186e-19)
(1.23253 -0.56919 -2.27942e-19)
(1.22536 -0.546161 -5.38017e-20)
(1.21579 -0.521791 1.16522e-19)
(1.20567 -0.49741 -3.33316e-19)
(1.1959 -0.473679 8.08704e-20)
(1.18691 -0.450887 -1.53061e-19)
(0.175917 -0.0809541 -4.56254e-20)
(0.472922 -0.224455 -6.14665e-19)
(0.719107 -0.350376 -4.62298e-19)
(0.912857 -0.450578 -2.79074e-20)
(1.05503 -0.522246 9.67525e-20)
(1.15078 -0.566292 -1.7318e-19)
(1.20852 -0.586597 -3.79039e-21)
(1.23797 -0.58868 4.60337e-20)
(1.24835 -0.578254 6.28284e-20)
(1.24719 -0.560229 3.41661e-19)
(1.23991 -0.53826 1.28888e-19)
(1.22996 -0.514741 -2.78267e-20)
(1.21931 -0.491057 3.1153e-20)
(1.20897 -0.467919 -3.845e-20)
(1.19942 -0.445646 1.64789e-19)
(1.19086 -0.424377 6.87558e-20)
(0.174069 -0.0761561 8.41077e-20)
(0.470104 -0.212866 3.28373e-19)
(0.717474 -0.334815 1.97134e-19)
(0.913896 -0.433356 -3.61739e-19)
(1.05942 -0.505111 7.26309e-20)
(1.15848 -0.550345 4.12546e-19)
(1.21898 -0.572358 2.09495e-19)
(1.2504 -0.576236 2.42426e-20)
(1.26194 -0.567443 2.1493e-19)
(1.26126 -0.550786 -4.0225e-19)
(1.25397 -0.529921 -1.03474e-19)
(1.24372 -0.507288 -4.03335e-20)
(1.23261 -0.484332 2.23601e-19)
(1.22174 -0.46181 -6.57057e-20)
(1.21165 -0.440076 -6.18311e-21)
(1.20256 -0.419286 -1.00481e-19)
(1.19456 -0.399497 -3.36316e-20)
(1.1876 -0.380581 -1.70947e-19)
(0.171908 -0.0713788 -7.83465e-20)
(0.466482 -0.201232 -4.73422e-20)
(0.7147 -0.319073 -1.19929e-19)
(0.913615 -0.415804 3.76218e-19)
(1.06247 -0.48752 2.45266e-19)
(1.16493 -0.533869 -7.0604e-20)
(1.22834 -0.557564 -1.17369e-20)
(1.2619 -0.563252 2.41323e-19)