/*--------------------------------*- C++ -*----------------------------------*\
  =========                 |
  \\      /  F ield         | OpenFOAM: The Open Source CFD Toolbox
   \\    /   O peration     | Website:  https://openfoam.org
    \\  /    A nd           | Version:  7
     \\/     M anipulation  |
\*---------------------------------------------------------------------------*/
FoamFile
{
    version     2.0;
    format      ascii;
    class       volScalarField;
    location    "240";
    object      p;
}
// * * * * * * * * * * * * * * * * * * * * * * * * * * * * * * * * * * * * * //

dimensions      [0 2 -2 0 0 0 0];

internalField   nonuniform List<scalar> 
4575
(
-0.643924
-0.634978
-0.628192
-0.650014
-0.640743
-0.633731
-0.625981
-0.617162
-0.656014
-0.64643
-0.639194
-0.631132
-0.621855
-0.611049
-0.598325
-0.583482
-0.661887
-0.652006
-0.644547
-0.636159
-0.626397
-0.614918
-0.601336
-0.585496
-0.567491
-0.547649
-0.526454
-0.50445
-0.667595
-0.657434
-0.649754
-0.641027
-0.63075
-0.618556
-0.604076
-0.587203
-0.568112
-0.547211
-0.52505
-0.502215
-0.479231
-0.456508
-0.434334
-0.673099
-0.662675
-0.654776
-0.645696
-0.634873
-0.621926
-0.606506
-0.588571
-0.568381
-0.546426
-0.523321
-0.499685
-0.476049
-0.452817
-0.430253
-0.408508
-0.387647
-0.367668
-0.34857
-0.678358
-0.66769
-0.659573
-0.650124
-0.638726
-0.624985
-0.60859
-0.589569
-0.568273
-0.545276
-0.521251
-0.496845
-0.472593
-0.448881
-0.425955
-0.403943
-0.382889
-0.362779
-0.343608
-0.325394
-0.68333
-0.672439
-0.664103
-0.65427
-0.642265
-0.627695
-0.61029
-0.590165
-0.567763
-0.543741
-0.518825
-0.493684
-0.468849
-0.444691
-0.42143
-0.399173
-0.377947
-0.35772
-0.33849
-0.320203
-0.68797
-0.676878
-0.668325
-0.658089
-0.645448
-0.630013
-0.611572
-0.59033
-0.566828
-0.541802
-0.516027
-0.490188
-0.464807
-0.440235
-0.416668
-0.394189
-0.372809
-0.352484
-0.333206
-0.314859
-0.692234
-0.680964
-0.672193
-0.661539
-0.648231
-0.6319
-0.6124
-0.590034
-0.565443
-0.539442
-0.512845
-0.486346
-0.460456
-0.435502
-0.411657
-0.388981
-0.367467
-0.34706
-0.327749
-0.309355
-0.696078
-0.684652
-0.675663
-0.664573
-0.650572
-0.633317
-0.612739
-0.589249
-0.563589
-0.536643
-0.509263
-0.482145
-0.455785
-0.430483
-0.406387
-0.383538
-0.361911
-0.34144
-0.32211
-0.303684
-0.699456
-0.687899
-0.678691
-0.667149
-0.652427
-0.634223
-0.612558
-0.58795
-0.561244
-0.53339
-0.505269
-0.477575
-0.450782
-0.425166
-0.400849
-0.377852
-0.356132
-0.335617
-0.316283
-0.297839
-0.702324
-0.69066
-0.681232
-0.66922
-0.653755
-0.634583
-0.611824
-0.586112
-0.55839
-0.529669
-0.500852
-0.472624
-0.445439
-0.419543
-0.395034
-0.371912
-0.350122
-0.329582
-0.31026
-0.291816
-0.704635
-0.692889
-0.68324
-0.670744
-0.654515
-0.63436
-0.610507
-0.583711
-0.555008
-0.525465
-0.495998
-0.467283
-0.439745
-0.413604
-0.388932
-0.365713
-0.343874
-0.323328
-0.304035
-0.285607
-0.706345
-0.694543
-0.684672
-0.671677
-0.654667
-0.63352
-0.608581
-0.580726
-0.551083
-0.520765
-0.490699
-0.461541
-0.433691
-0.40734
-0.382536
-0.359244
-0.33738
-0.31685
-0.297603
-0.279209
-0.707413
-0.695578
-0.685485
-0.671979
-0.654173
-0.632031
-0.60602
-0.577139
-0.546599
-0.515559
-0.484943
-0.45539
-0.427269
-0.400743
-0.375837
-0.352499
-0.330633
-0.31014
-0.290958
-0.272616
-0.707794
-0.695953
-0.685636
-0.671608
-0.652998
-0.629862
-0.6028
-0.57293
-0.541545
-0.509834
-0.478722
-0.448822
-0.420471
-0.393806
-0.368829
-0.345473
-0.323628
-0.303193
-0.284095
-0.265825
-0.70745
-0.695627
-0.685086
-0.670528
-0.651108
-0.626987
-0.5989
-0.568084
-0.535906
-0.503583
-0.472028
-0.441828
-0.41329
-0.386522
-0.361505
-0.338157
-0.316359
-0.296005
-0.27701
-0.258831
-0.706342
-0.694562
-0.683797
-0.668702
-0.648471
-0.623379
-0.594301
-0.562588
-0.529674
-0.496796
-0.464854
-0.434403
-0.40572
-0.378885
-0.35386
-0.330549
-0.308822
-0.28857
-0.269699
-0.251631
-0.704433
-0.692719
-0.681733
-0.666098
-0.645059
-0.619017
-0.588987
-0.556429
-0.52284
-0.489467
-0.457193
-0.426541
-0.397756
-0.370891
-0.345889
-0.322642
-0.301011
-0.280884
-0.26216
-0.244228
-0.701689
-0.690065
-0.678859
-0.662683
-0.640847
-0.613881
-0.582942
-0.549597
-0.515396
-0.481591
-0.449041
-0.418237
-0.389392
-0.362534
-0.337589
-0.314434
-0.292922
-0.272941
-0.25439
-0.236615
-0.698078
-0.686568
-0.675144
-0.658431
-0.635812
-0.607953
-0.576155
-0.542085
-0.507337
-0.473162
-0.440394
-0.409488
-0.380626
-0.353812
-0.328955
-0.305921
-0.284553
-0.264736
-0.246378
-0.228763
-0.693572
-0.682199
-0.670562
-0.653317
-0.629933
-0.601219
-0.568617
-0.533887
-0.498659
-0.464179
-0.431249
-0.400292
-0.371456
-0.344723
-0.319988
-0.297104
-0.275903
-0.256272
-0.238115
-0.220598
-0.688146
-0.67693
-0.665085
-0.647318
-0.623194
-0.593668
-0.560321
-0.524999
-0.489361
-0.454639
-0.421605
-0.390646
-0.36188
-0.335266
-0.310685
-0.28798
-0.266974
-0.247564
-0.229631
-0.21207
-0.681776
-0.670739
-0.658694
-0.640417
-0.615581
-0.585292
-0.551262
-0.515418
-0.47944
-0.444543
-0.411463
-0.380551
-0.351897
-0.325441
-0.301047
-0.278551
-0.257769
-0.238618
-0.22097
-0.203395
-0.674443
-0.663606
-0.651369
-0.632599
-0.607084
-0.576084
-0.541439
-0.505146
-0.468898
-0.433891
-0.400822
-0.370007
-0.341509
-0.315247
-0.291075
-0.268816
-0.248288
-0.229413
-0.211953
-0.19473
-0.666131
-0.655514
-0.643095
-0.623851
-0.597697
-0.566042
-0.530851
-0.494183
-0.457739
-0.422686
-0.389685
-0.359018
-0.330718
-0.304688
-0.28077
-0.25878
-0.238535
-0.219955
-0.202719
-0.185876
-0.656828
-0.64645
-0.63386
-0.614166
-0.587415
-0.555166
-0.519502
-0.482535
-0.445966
-0.410932
-0.378057
-0.347585
-0.319527
-0.293766
-0.270135
-0.248446
-0.228509
-0.210245
-0.19328
-0.176802
-0.646525
-0.636405
-0.623657
-0.60354
-0.576237
-0.543458
-0.507396
-0.470207
-0.433586
-0.398636
-0.365942
-0.335714
-0.307939
-0.282485
-0.259176
-0.237815
-0.218213
-0.20029
-0.183632
-0.167508
-0.635216
-0.625371
-0.612481
-0.59197
-0.564166
-0.530925
-0.49454
-0.457206
-0.420605
-0.385804
-0.353346
-0.323411
-0.295961
-0.270852
-0.247896
-0.226893
-0.207654
-0.190097
-0.17377
-0.158003
-0.622901
-0.613348
-0.600332
-0.57946
-0.551208
-0.517574
-0.480945
-0.443544
-0.407033
-0.372443
-0.340277
-0.310682
-0.283599
-0.25887
-0.236301
-0.215686
-0.196834
-0.179668
-0.163696
-0.148293
-0.609579
-0.600336
-0.587212
-0.566015
-0.537371
-0.503416
-0.466622
-0.42923
-0.392882
-0.358565
-0.326744
-0.297536
-0.270861
-0.246548
-0.224397
-0.204199
-0.185762
-0.16901
-0.153412
-0.595258
-0.58634
-0.573128
-0.551643
-0.522668
-0.488465
-0.451584
-0.41428
-0.378163
-0.34418
-0.312758
-0.283982
-0.257754
-0.233893
-0.212193
-0.19244
-0.174443
-0.15813
-0.579946
-0.571368
-0.558089
-0.536358
-0.507111
-0.472736
-0.435849
-0.398707
-0.36289
-0.329302
-0.29833
-0.270031
-0.24429
-0.220916
-0.199698
-0.180417
-0.563656
-0.555432
-0.542109
-0.520175
-0.49072
-0.456248
-0.419433
-0.382529
-0.347079
-0.313944
-0.283471
-0.255694
-0.230478
-0.207626
-0.18692
-0.546404
-0.538548
-0.525204
-0.503111
-0.473512
-0.439021
-0.402358
-0.365764
-0.330746
-0.298121
-0.268198
-0.240984
-0.216332
-0.194035
-0.528209
-0.520733
-0.507394
-0.485189
-0.455512
-0.421079
-0.384645
-0.348428
-0.31391
-0.28185
-0.252524
-0.225915
-0.201864
-0.509095
-0.50201
-0.488702
-0.466433
-0.436746
-0.402449
-0.366307
-0.33055
-0.29659
-0.265148
-0.236466
-0.210503
-0.489086
-0.482404
-0.469153
-0.446869
-0.417245
-0.383157
-0.347371
-0.312148
-0.278807
-0.248035
-0.220041
-0.468211
-0.461941
-0.448775
-0.42653
-0.397037
-0.363202
-0.327889
-0.293248
-0.260584
-0.230532
-0.446498
-0.440654
-0.427602
-0.405457
-0.376128
-0.342649
-0.307867
-0.273877
-0.241944
-0.423981
-0.418578
-0.405671
-0.383686
-0.354544
-0.321527
-0.287338
-0.25406
-0.400694
-0.395751
-0.383019
-0.361178
-0.332398
-0.299865
-0.266333
-0.376672
-0.372212
-0.359685
-0.338025
-0.309674
-0.277697
-0.351952
-0.348001
-0.33566
-0.314322
-0.286413
-0.326564
-0.323178
-0.311041
-0.290062
-0.262657
-0.300549
-0.297801
-0.285877
-0.265288
-0.274065
-0.271829
-0.260206
-0.247118
-0.245335
-0.234071
-0.219714
-0.218401
-0.191906
-0.163751
-0.105213
-0.130941
-0.156262
-0.154736
-0.18113
-0.179136
-0.168638
-0.205556
-0.202995
-0.192228
-0.229464
-0.226295
-0.215307
-0.196195
-0.252747
-0.24903
-0.237836
-0.218388
-0.192876
-0.275365
-0.271144
-0.259762
-0.240022
-0.214107
-0.184814
-0.297286
-0.292582
-0.280994
-0.261094
-0.234799
-0.204996
-0.318472
-0.313306
-0.301546
-0.281496
-0.254922
-0.224662
-0.193346
-0.338887
-0.333277
-0.321375
-0.301196
-0.274442
-0.243775
-0.211939
-0.180833
-0.358497
-0.352455
-0.340439
-0.320183
-0.293269
-0.262337
-0.230019
-0.198327
-0.168505
-0.377271
-0.370806
-0.358705
-0.338427
-0.311416
-0.280274
-0.247553
-0.215341
-0.184912
-0.156919
-0.395178
-0.388301
-0.376141
-0.355891
-0.328852
-0.297548
-0.264526
-0.23185
-0.200871
-0.172277
-0.146305
-0.412192
-0.404913
-0.392718
-0.372544
-0.345545
-0.314153
-0.280893
-0.247833
-0.216362
-0.187218
-0.16067
-0.13671
-0.428287
-0.420617
-0.408413
-0.388359
-0.361466
-0.330064
-0.296634
-0.263261
-0.231363
-0.201723
-0.174646
-0.150145
-0.128088
-0.443441
-0.435394
-0.423204
-0.403314
-0.376589
-0.345252
-0.311731
-0.278114
-0.245855
-0.215775
-0.188217
-0.163219
-0.140661
-0.120358
-0.457636
-0.449225
-0.437072
-0.417388
-0.390894
-0.359696
-0.32616
-0.292373
-0.259818
-0.229357
-0.201368
-0.175916
-0.152897
-0.132135
-0.113429
-0.470857
-0.462098
-0.450001
-0.430564
-0.40436
-0.373375
-0.339904
-0.306021
-0.273237
-0.242454
-0.214085
-0.188223
-0.164784
-0.143597
-0.124472
-0.107205
-0.483094
-0.474001
-0.461981
-0.442827
-0.416972
-0.386273
-0.352943
-0.31904
-0.286096
-0.25505
-0.226355
-0.20013
-0.176309
-0.154736
-0.135222
-0.117571
-0.101604
-0.0872453
-0.494339
-0.484928
-0.473002
-0.454168
-0.428717
-0.398374
-0.365263
-0.331415
-0.298381
-0.267135
-0.238166
-0.211625
-0.187464
-0.16554
-0.145671
-0.127665
-0.111343
-0.0966291
-0.0830708
-0.504589
-0.494877
-0.483061
-0.464579
-0.439585
-0.409665
-0.37685
-0.343134
-0.31008
-0.278697
-0.249509
-0.222699
-0.198239
-0.176001
-0.15581
-0.13748
-0.12083
-0.105785
-0.0919294
-0.0785806
-0.513842
-0.503848
-0.492157
-0.474055
-0.449567
-0.420138
-0.387694
-0.354186
-0.321183
-0.289725
-0.260374
-0.233343
-0.208628
-0.186112
-0.165634
-0.147008
-0.130058
-0.114708
-0.100578
-0.0869276
-0.522104
-0.511845
-0.500292
-0.482598
-0.458661
-0.429786
-0.397785
-0.364561
-0.33168
-0.300212
-0.270754
-0.243551
-0.218623
-0.195868
-0.175134
-0.156245
-0.139023
-0.123393
-0.109016
-0.0950654
-0.529382
-0.518877
-0.507474
-0.49021
-0.466866
-0.438604
-0.407118
-0.374252
-0.341565
-0.310151
-0.280642
-0.253315
-0.228217
-0.205263
-0.184308
-0.165185
-0.147718
-0.131833
-0.117246
-0.102989
-0.535687
-0.524957
-0.513713
-0.496898
-0.474185
-0.446591
-0.41569
-0.383254
-0.350832
-0.319536
-0.290033
-0.262633
-0.237408
-0.214291
-0.19315
-0.173826
-0.156144
-0.140023
-0.125264
-0.11071
-0.541035
-0.5301
-0.519024
-0.502673
-0.480624
-0.45375
-0.423497
-0.391565
-0.359477
-0.328364
-0.298923
-0.2715
-0.246191
-0.22295
-0.201657
-0.182162
-0.164296
-0.147972
-0.133027
-0.118299
-0.545443
-0.534325
-0.523423
-0.50755
-0.486192
-0.460086
-0.430543
-0.399182
-0.367498
-0.336632
-0.307312
-0.279914
-0.254566
-0.231239
-0.209827
-0.190191
-0.172169
-0.155666
-0.140555
-0.125918
-0.548934
-0.537656
-0.526933
-0.511547
-0.490903
-0.465605
-0.43683
-0.406107
-0.374895
-0.344339
-0.315196
-0.287874
-0.262529
-0.239154
-0.217659
-0.197913
-0.179763
-0.16311
-0.147848
-0.133226
-0.551533
-0.540118
-0.529579
-0.514684
-0.494773
-0.470319
-0.442366
-0.412343
-0.381669
-0.351487
-0.322577
-0.295381
-0.270082
-0.246697
-0.225151
-0.205324
-0.187073
-0.170296
-0.154891
-0.140186
-0.553269
-0.54174
-0.531388
-0.516988
-0.497822
-0.474243
-0.447158
-0.417896
-0.387823
-0.358076
-0.329456
-0.302435
-0.277226
-0.253869
-0.232305
-0.212426
-0.194099
-0.177222
-0.16169
-0.146879
-0.554174
-0.542556
-0.532392
-0.518485
-0.500073
-0.477394
-0.45122
-0.422773
-0.393362
-0.364111
-0.335836
-0.309039
-0.283962
-0.26067
-0.239121
-0.21922
-0.200842
-0.183886
-0.168254
-0.153355
-0.554282
-0.5426
-0.532626
-0.519207
-0.501552
-0.47979
-0.454564
-0.426985
-0.398294
-0.369596
-0.341721
-0.315197
-0.290294
-0.267104
-0.245602
-0.225707
-0.207304
-0.190292
-0.174586
-0.159624
-0.55363
-0.541909
-0.532125
-0.519189
-0.502288
-0.481457
-0.457209
-0.430542
-0.402626
-0.374539
-0.347117
-0.320912
-0.296226
-0.273174
-0.251752
-0.231892
-0.213488
-0.196445
-0.180686
-0.165684
-0.552257
-0.540524
-0.53093
-0.518467
-0.502314
-0.482419
-0.459173
-0.433459
-0.406368
-0.378946
-0.352029
-0.326192
-0.301763
-0.278885
-0.257574
-0.237777
-0.219398
-0.202347
-0.186557
-0.171536
-0.550205
-0.538486
-0.529082
-0.517081
-0.501664
-0.482705
-0.460478
-0.435752
-0.409533
-0.382826
-0.356465
-0.331041
-0.306911
-0.284242
-0.263074
-0.243366
-0.225038
-0.208001
-0.192202
-0.177181
-0.547516
-0.535838
-0.526623
-0.515071
-0.500375
-0.482346
-0.46115
-0.437439
-0.412134
-0.386191
-0.360433
-0.335468
-0.311677
-0.289252
-0.268256
-0.248666
-0.230412
-0.213412
-0.197623
-0.182624
-0.544237
-0.532625
-0.523598
-0.51248
-0.498487
-0.481376
-0.461214
-0.438542
-0.414187
-0.389051
-0.363944
-0.339481
-0.316067
-0.293921
-0.273127
-0.253681
-0.235526
-0.218585
-0.202825
-0.187866
-0.540411
-0.528892
-0.520054
-0.509354
-0.496041
-0.479831
-0.460701
-0.439082
-0.415707
-0.391421
-0.367007
-0.343089
-0.32009
-0.298257
-0.277695
-0.258418
-0.240384
-0.223523
-0.207811
-0.192912
-0.536085
-0.524687
-0.516036
-0.505738
-0.49308
-0.477749
-0.459641
-0.439083
-0.416715
-0.393313
-0.369634
-0.346301
-0.323756
-0.302267
-0.281965
-0.262883
-0.244992
-0.228232
-0.212587
-0.197764
-0.531307
-0.520054
-0.511591
-0.501678
-0.489648
-0.475169
-0.458067
-0.438573
-0.41723
-0.394744
-0.371837
-0.349128
-0.327071
-0.30596
-0.285946
-0.267082
-0.249357
-0.232718
-0.217156
-0.202427
-0.526124
-0.515041
-0.506767
-0.497222
-0.485791
-0.472132
-0.456015
-0.437579
-0.417273
-0.39573
-0.37363
-0.35158
-0.330048
-0.309345
-0.289646
-0.271025
-0.253486
-0.236987
-0.221524
-0.206905
-0.520582
-0.509695
-0.501609
-0.492416
-0.481553
-0.46868
-0.45352
-0.436131
-0.416868
-0.396289
-0.375026
-0.35367
-0.332694
-0.31243
-0.293073
-0.274717
-0.257385
-0.241044
-0.225697
-0.211203
-0.514728
-0.50406
-0.496165
-0.487307
-0.476981
-0.464857
-0.450622
-0.434261
-0.41604
-0.39644
-0.37604
-0.355409
-0.335022
-0.315225
-0.296235
-0.278167
-0.261061
-0.244897
-0.22968
-0.215325
-0.508607
-0.49818
-0.490478
-0.481939
-0.47212
-0.460705
-0.447359
-0.432
-0.414814
-0.396202
-0.376687
-0.35681
-0.337041
-0.317739
-0.299142
-0.281384
-0.264522
-0.248551
-0.233478
-0.219277
-0.502264
-0.492099
-0.484592
-0.476359
-0.467015
-0.456269
-0.443769
-0.429383
-0.413218
-0.395598
-0.376985
-0.357885
-0.338762
-0.319983
-0.301802
-0.284374
-0.267775
-0.252014
-0.237099
-0.223063
-0.495741
-0.485858
-0.478549
-0.470608
-0.46171
-0.451591
-0.439895
-0.426445
-0.411281
-0.394648
-0.376949
-0.358649
-0.340197
-0.321965
-0.304225
-0.287148
-0.270828
-0.255293
-0.240548
-0.48908
-0.479497
-0.47239
-0.464729
-0.456248
-0.446713
-0.435775
-0.423222
-0.409031
-0.393377
-0.376597
-0.359114
-0.341356
-0.323696
-0.306418
-0.48232
-0.473053
-0.466152
-0.458761
-0.450669
-0.441678
-0.431449
-0.419748
-0.406499
-0.391808
-0.375948
-0.475498
-0.466563
-0.459871
-0.45274
-0.445012
-0.436525
-0.426958
-0.416061
-0.46865
-0.460059
-0.45358
-0.446702
-0.439315
-0.461809
-0.453571
-0.44731
-0.276211
-0.281755
-0.287156
-0.292419
-0.297549
-0.302553
-0.253177
-0.258303
-0.263317
-0.268226
-0.273031
-0.27774
-0.232338
-0.237064
-0.241702
-0.246257
-0.250732
-0.255131
-0.213568
-0.217907
-0.222177
-0.226382
-0.230524
-0.234607
-0.196477
-0.200454
-0.204377
-0.208247
-0.212067
-0.215839
-0.180906
-0.18454
-0.18813
-0.191678
-0.195186
-0.198656
-0.166629
-0.169946
-0.173226
-0.176473
-0.179687
-0.18287
-0.153526
-0.156547
-0.159538
-0.162502
-0.165439
-0.168351
-0.141457
-0.144204
-0.146928
-0.149629
-0.152309
-0.154967
-0.130315
-0.132813
-0.135292
-0.137751
-0.140192
-0.142616
-0.120019
-0.122287
-0.124539
-0.126776
-0.128997
-0.131203
-0.110485
-0.112544
-0.114589
-0.116621
-0.11864
-0.120647
-0.10164
-0.103509
-0.105367
-0.107213
-0.109048
-0.110873
-0.0934329
-0.095129
-0.0968151
-0.0984916
-0.100159
-0.101817
-0.0858126
-0.087351
-0.0888809
-0.0904027
-0.0919166
-0.0934231
-0.0787245
-0.0801206
-0.0815093
-0.082891
-0.0842661
-0.0856347
-0.0721341
-0.0734006
-0.074661
-0.0759154
-0.0771642
-0.0784075
-0.0659963
-0.0671464
-0.0682912
-0.0694309
-0.0705656
-0.0716956
-0.0602844
-0.0613288
-0.0623687
-0.0634042
-0.0644354
-0.0654626
-0.0664859
-0.0549641
-0.0559132
-0.0568583
-0.0577997
-0.0587373
-0.0596715
-0.0606023
-0.0500085
-0.0508714
-0.0517309
-0.0525871
-0.0534401
-0.0542901
-0.0551372
-0.0453915
-0.0461766
-0.0469588
-0.0477381
-0.0485147
-0.0492885
-0.0500599
-0.0410924
-0.0418069
-0.0425188
-0.0432283
-0.0439354
-0.0446403
-0.0453429
-0.0370842
-0.0377354
-0.0383842
-0.0390309
-0.0396756
-0.0403182
-0.0409588
-0.0333518
-0.0339454
-0.034537
-0.0351268
-0.0357147
-0.0363008
-0.0368853
-0.0298747
-0.0304163
-0.0309562
-0.0314944
-0.032031
-0.0325661
-0.0330996
-0.0266363
-0.0271309
-0.0276239
-0.0281155
-0.0286056
-0.0290944
-0.0295818
-0.023621
-0.0240729
-0.0245235
-0.0249728
-0.0254208
-0.0258675
-0.0263131
-0.0208139
-0.0212272
-0.0216393
-0.0220502
-0.0224599
-0.0228686
-0.0232761
-0.0182018
-0.01858
-0.0189571
-0.0193331
-0.0197081
-0.0200821
-0.0204551
-0.0157717
-0.0161178
-0.0164631
-0.0168074
-0.0171508
-0.0174932
-0.0178348
-0.0135104
-0.013828
-0.0141445
-0.0144602
-0.0147749
-0.0150888
-0.0154019
-0.0114096
-0.0117007
-0.0119909
-0.0122802
-0.0125688
-0.0128565
-0.0131435
-0.00945818
-0.00972513
-0.0099913
-0.0102567
-0.0105214
-0.0107853
-0.0110485
-0.00764593
-0.00789094
-0.00813523
-0.0083788
-0.00862166
-0.00886383
-0.00910531
-0.00596435
-0.00618932
-0.00641361
-0.00663723
-0.00686018
-0.00708247
-0.00730411
-0.00440512
-0.00461177
-0.00481779
-0.00502316
-0.0052279
-0.00543201
-0.00563549
-0.00296051
-0.00315041
-0.00333969
-0.00352837
-0.00371644
-0.0039039
-0.00409076
-0.00162333
-0.00179789
-0.00197185
-0.00214524
-0.00231803
-0.00249025
-0.00266189
-0.000386874
-0.000547365
-0.000707293
-0.00086666
-0.00102546
-0.00118371
-0.00134139
0.000755135
0.000607535
0.000460477
0.00031396
0.000167987
2.25586e-05
-0.000122325
0.00180853
0.00167275
0.00153749
0.00140276
0.00126855
0.00113487
0.00100172
0.00277874
0.0026538
0.00252937
0.00240544
0.00228202
0.00215912
0.00203673
0.0036708
0.0035558
0.00344129
0.00332727
0.00321374
0.00310072
0.00298819
0.00448943
0.00438354
0.00427813
0.00417319
0.00406873
0.00396475
0.00386126
0.00523918
0.00514159
0.00504447
0.00494781
0.00485162
0.00475591
0.00466068
0.00592366
0.0058337
0.00574419
0.00565512
0.00556652
0.00547837
0.00539069
0.00654678
0.00646376
0.00638118
0.00629903
0.00621733
0.00613608
0.00605528
0.00711194
0.00703524
0.00695895
0.0068831
0.00680767
0.00673268
0.00665813
0.00762214
0.00755116
0.00748058
0.00741041
0.00734067
0.00727135
0.00720246
0.00808016
0.00801433
0.00794889
0.00788386
0.00781924
0.00775503
0.00769124
0.00848835
0.00842713
0.0083663
0.00830586
0.00824583
0.00818619
0.00812696
0.00884886
0.00879173
0.00873499
0.00867863
0.00862266
0.00856709
0.00851191
0.00916324
0.00910972
0.00905656
0.00900378
0.00895138
0.00889937
0.00884774
0.00943302
0.00938261
0.00933255
0.00928287
0.00923355
0.00918461
0.00913605
0.00965876
0.00961098
0.00956354
0.00951647
0.00946976
0.00942342
0.00937745
0.00984132
0.00979568
0.00975038
0.00970544
0.00966085
0.00961663
0.00957276
0.00997986
0.00993589
0.00989227
0.009849
0.00980607
0.0097635
0.00972129
0.0100745
0.0100317
0.00998923
0.00994709
0.0099053
0.00986385
0.00982276
0.0101226
0.0100805
0.0100387
0.00999731
0.00995623
0.0099155
0.00987512
-0.138845
-0.147645
-0.156276
-0.164738
-0.17303
-0.181151
-0.189096
-0.196837
-0.2044
-0.211909
-0.219178
-0.226202
-0.233031
-0.239691
-0.246185
-0.252511
-0.258674
-0.264675
-0.27052
-0.13111
-0.138798
-0.146348
-0.153758
-0.161027
-0.168151
-0.175125
-0.181937
-0.188556
-0.195034
-0.201472
-0.20777
-0.213905
-0.219896
-0.225757
-0.231491
-0.237097
-0.242578
-0.247937
-0.122725
-0.129522
-0.1362
-0.142759
-0.149196
-0.155512
-0.161705
-0.167773
-0.173713
-0.179511
-0.185305
-0.191005
-0.196557
-0.201978
-0.207289
-0.212497
-0.217605
-0.222613
-0.227523
-0.11543
-0.121434
-0.127339
-0.133146
-0.138855
-0.144466
-0.14998
-0.155397
-0.160714
-0.165925
-0.170982
-0.176061
-0.181065
-0.18596
-0.190759
-0.195476
-0.200114
-0.204674
-0.209158
-0.10825
-0.113576
-0.118821
-0.123983
-0.129065
-0.134067
-0.138988
-0.143831
-0.148594
-0.153279
-0.157882
-0.16241
-0.16691
-0.171343
-0.175696
-0.179977
-0.184194
-0.188349
-0.192443
-0.101605
-0.106341
-0.111008
-0.115608
-0.12014
-0.124606
-0.129006
-0.133341
-0.137612
-0.141817
-0.145955
-0.150011
-0.154074
-0.158081
-0.162019
-0.165896
-0.169722
-0.173498
-0.177226
-0.0952561
-0.0994754
-0.103638
-0.107743
-0.111794
-0.11579
-0.119732
-0.123622
-0.12746
-0.131247
-0.134984
-0.138669
-0.142293
-0.145897
-0.149462
-0.15298
-0.156452
-0.159884
-0.163276
-0.0892579
-0.0930244
-0.0967431
-0.100415
-0.10404
-0.107621
-0.111157
-0.114649
-0.118098
-0.121506
-0.12487
-0.128192
-0.13146
-0.134719
-0.137945
-0.14113
-0.144278
-0.147392
-0.150475
-0.08355
-0.0869166
-0.0902432
-0.0935304
-0.096779
-0.0999897
-0.103163
-0.1063
-0.109401
-0.112467
-0.115498
-0.118494
-0.121456
-0.124407
-0.127326
-0.130209
-0.133061
-0.135885
-0.138684
-0.0781232
-0.081137
-0.0841172
-0.0870646
-0.0899798
-0.0928637
-0.0957168
-0.09854
-0.101334
-0.104099
-0.106837
-0.109547
-0.112229
-0.114864
-0.117491
-0.120104
-0.122692
-0.125256
-0.127796
-0.0729527
-0.0756532
-0.0783256
-0.0809704
-0.0835881
-0.0861793
-0.0887447
-0.0912847
-0.0937999
-0.0962908
-0.0987579
-0.101201
-0.103621
-0.106015
-0.108399
-0.110764
-0.113107
-0.115429
-0.117733
-0.068024
-0.0704464
-0.0728451
-0.0752205
-0.0775731
-0.0799033
-0.0822118
-0.0844988
-0.0867649
-0.0890105
-0.091236
-0.0934418
-0.0956283
-0.097796
-0.099962
-0.102104
-0.104223
-0.106325
-0.108412
-0.0633239
-0.0654991
-0.0676543
-0.0697899
-0.0719064
-0.0740042
-0.0760839
-0.0781457
-0.0801903
-0.0822181
-0.0842295
-0.0862251
-0.0882047
-0.0901676
-0.0921001
-0.0940296
-0.0959527
-0.0978627
-0.099758
-0.05884
-0.0607947
-0.0627324
-0.0646536
-0.0665587
-0.0684478
-0.0703214
-0.0721799
-0.0740235
-0.0758525
-0.0776673
-0.0794681
-0.0812551
-0.0830285
-0.0847869
-0.0865378
-0.0882791
-0.0900088
-0.0917264
-0.0545627
-0.0563207
-0.0580645
-0.0597942
-0.0615103
-0.0632129
-0.0649024
-0.0665791
-0.0682432
-0.0698951
-0.071535
-0.0731633
-0.0747802
-0.076386
-0.07798
-0.0795666
-0.081143
-0.082709
-0.0842654
-0.0504836
-0.0520661
-0.0536365
-0.0551951
-0.056742
-0.0582776
-0.0598019
-0.0613154
-0.062818
-0.0643101
-0.0657918
-0.0672632
-0.0687245
-0.0701756
-0.0716168
-0.0730601
-0.0744908
-0.0759102
-0.0773211
-0.0465955
-0.0480213
-0.0494369
-0.0508425
-0.0522384
-0.0536246
-0.0550015
-0.0563693
-0.0577281
-0.0590784
-0.0604202
-0.061754
-0.0630801
-0.0643987
-0.0657099
-0.0670034
-0.0682944
-0.0695811
-0.0708611
-0.042891
-0.0441767
-0.0454537
-0.0467223
-0.0479825
-0.0492346
-0.0504787
-0.0517149
-0.0529435
-0.0541645
-0.0553782
-0.0565847
-0.0577841
-0.0589764
-0.0601617
-0.0613388
-0.0625114
-0.0636789
-0.0648406
-0.0393641
-0.0405244
-0.0416774
-0.0428231
-0.0439618
-0.0450936
-0.0462185
-0.0473367
-0.0484484
-0.0495536
-0.0506526
-0.0517454
-0.0528322
-0.0539131
-0.0549882
-0.0560571
-0.0571214
-0.0581808
-0.0592351
-0.0360093
-0.0370573
-0.0380992
-0.039135
-0.0401647
-0.0411886
-0.0422066
-0.0432189
-0.0442257
-0.0452269
-0.0462228
-0.0472134
-0.0481988
-0.0491792
-0.0501547
-0.0511252
-0.0520915
-0.0530534
-0.0540109
-0.032821
-0.0337687
-0.034711
-0.0356482
-0.0365803
-0.0375073
-0.0384294
-0.0393466
-0.040259
-0.0411667
-0.0420698
-0.0429684
-0.0438626
-0.0447525
-0.0456382
-0.0465197
-0.0473978
-0.0482719
-0.049142
-0.0297943
-0.030652
-0.0315052
-0.032354
-0.0331984
-0.0340385
-0.0348744
-0.0357061
-0.0365337
-0.0373572
-0.0381767
-0.0389922
-0.0398038
-0.0406114
-0.0414152
-0.0422152
-0.0430161
-0.0438119
-0.0446033
-0.0269241
-0.0277012
-0.0284745
-0.0292441
-0.0300101
-0.0307724
-0.0315311
-0.0322863
-0.033038
-0.0337864
-0.0345315
-0.0352734
-0.0360121
-0.0367479
-0.0374808
-0.0382108
-0.0389336
-0.0396553
-0.0403752
-0.024205
-0.0249098
-0.0256115
-0.0263099
-0.0270052
-0.0276974
-0.0283865
-0.0290726
-0.0297557
-0.0304358
-0.031113
-0.0317873
-0.0324588
-0.0331276
-0.0337935
-0.0344567
-0.0351168
-0.0357748
-0.0364307
-0.0216321
-0.022272
-0.0229093
-0.0235438
-0.0241756
-0.0248048
-0.0254313
-0.0260552
-0.0266765
-0.0272953
-0.0279116
-0.0285254
-0.0291368
-0.0297457
-0.0303523
-0.0309566
-0.0315585
-0.0321583
-0.0327561
-0.0192004
-0.0197821
-0.0203615
-0.0209386
-0.0215133
-0.0220858
-0.022656
-0.023224
-0.0237897
-0.0243533
-0.0249146
-0.0254739
-0.026031
-0.026586
-0.027139
-0.02769
-0.0282389
-0.028786
-0.0293312
-0.0169049
-0.0174343
-0.0179616
-0.018487
-0.0190105
-0.0195319
-0.0200514
-0.020569
-0.0210846
-0.0215983
-0.0221102
-0.0226202
-0.0231283
-0.0236346
-0.0241392
-0.024642
-0.025143
-0.0256424
-0.0261401
-0.0147407
-0.015223
-0.0157035
-0.0161824
-0.0166596
-0.017135
-0.0176088
-0.0180809
-0.0185514
-0.0190202
-0.0194873
-0.0199528
-0.0204167
-0.020879
-0.0213398
-0.021799
-0.0222567
-0.0227129
-0.0231677
-0.0127027
-0.0131426
-0.013581
-0.0140179
-0.0144534
-0.0148874
-0.0153199
-0.015751
-0.0161806
-0.0166088
-0.0170355
-0.0174608
-0.0178847
-0.0183072
-0.0187283
-0.0191481
-0.0195665
-0.0199836
-0.0203994
-0.0107861
-0.0111877
-0.0115881
-0.0119872
-0.012385
-0.0127816
-0.0131768
-0.0135708
-0.0139636
-0.014355
-0.0147452
-0.0151342
-0.0155219
-0.0159083
-0.0162936
-0.0166776
-0.0170604
-0.0174421
-0.0178225
-0.00898565
-0.00935277
-0.00971879
-0.0100837
-0.0104475
-0.0108102
-0.0111717
-0.0115322
-0.0118915
-0.0122497
-0.0126067
-0.0129627
-0.0133175
-0.0136713
-0.014024
-0.0143757
-0.0147263
-0.0150761
-0.0154245
-0.00729676
-0.00763269
-0.00796767
-0.00830167
-0.00863469
-0.00896672
-0.00929775
-0.00962779
-0.00995684
-0.0102849
-0.0106119
-0.0109379
-0.011263
-0.011587
-0.01191
-0.012232
-0.012553
-0.0128728
-0.0131919
-0.00571441
-0.0060221
-0.00632894
-0.00663492
-0.00694002
-0.00724425
-0.00754758
-0.00785003
-0.00815158
-0.00845222
-0.00875197
-0.00905081
-0.00934875
-0.0096458
-0.00994195
-0.0102372
-0.0105316
-0.0108251
-0.0111178
-0.00423395
-0.00451605
-0.00479739
-0.00507797
-0.00535777
-0.00563678
-0.005915
-0.00619241
-0.00646902
-0.00674482
-0.00701981
-0.00729398
-0.00756734
-0.00783989
-0.00811162
-0.00838254
-0.00865265
-0.00892194
-0.00919045
-0.00285066
-0.00310953
-0.00336772
-0.00362523
-0.00388202
-0.00413811
-0.00439348
-0.00464812
-0.00490203
-0.00515521
-0.00540764
-0.00565932
-0.00591026
-0.00616045
-0.00640989
-0.00665858
-0.00690653
-0.00715373
-0.00740019
-0.00155996
-0.00179771
-0.00203484
-0.00227135
-0.00250722
-0.00274244
-0.00297701
-0.00321091
-0.00344414
-0.0036767
-0.00390857
-0.00413976
-0.00437025
-0.00460006
-0.00482917
-0.00505759
-0.00528532
-0.00551235
-0.00573869
-0.000357367
-0.000575888
-0.000793847
-0.00101123
-0.00122803
-0.00144424
-0.00165984
-0.00187483
-0.0020892
-0.00230295
-0.00251606
-0.00272854
-0.00294038
-0.00315157
-0.00336212
-0.00357202
-0.00378126
-0.00398986
-0.00419781
0.000761461
0.000560472
0.000360002
0.000160061
-3.93402e-05
-0.000238191
-0.000436482
-0.000634206
-0.000831353
-0.00102792
-0.0012239
-0.00141928
-0.00161406
-0.00180824
-0.00200181
-0.00219478
-0.00238713
-0.00257887
-0.00276999
0.00180075
0.00161576
0.00143126
0.00124725
0.00106374
0.00088075
0.000698278
0.000516336
0.000334933
0.000154075
-2.62298e-05
-0.000205977
-0.00038516
-0.000563775
-0.000741817
-0.000919283
-0.00109617
-0.00127247
-0.0014482
0.00276457
0.00259422
0.00242431
0.00225487
0.0020859
0.00191741
0.0017494
0.0015819
0.00141491
0.00124842
0.00108246
0.000917029
0.000752128
0.000587766
0.000423947
0.000260675
9.79542e-05
-6.42119e-05
-0.000225822
0.00365689
0.00349991
0.00334337
0.00318725
0.00303158
0.00287637
0.00272161
0.00256733
0.00241353
0.00226021
0.00210739
0.00195506
0.00180325
0.00165195
0.00150116
0.00135089
0.00120116
0.00105195
0.000903274
0.00448147
0.00433675
0.00419243
0.00404853
0.00390504
0.00376198
0.00361937
0.00347719
0.00333548
0.00319423
0.00305344
0.00291314
0.00277331
0.00263398
0.00249514
0.0023568
0.00221897
0.00208164
0.00194482
0.00524197
0.00510847
0.00497536
0.00484263
0.00471031
0.0045784
0.0044469
0.00431583
0.00418519
0.004055
0.00392525
0.00379596
0.00366713
0.00353877
0.00341089
0.00328348
0.00315656
0.00303012
0.00290418
0.00594183
0.00581862
0.00569577
0.00557329
0.0054512
0.00532949
0.00520819
0.00508729
0.00496681
0.00484675
0.00472711
0.00460792
0.00448917
0.00437086
0.00425302
0.00413563
0.00401871
0.00390227
0.00378629
0.0065844
0.00647061
0.00635717
0.00624408
0.00613136
0.00601901
0.00590705
0.00579547
0.00568429
0.00557352
0.00546315
0.00535321
0.00524369
0.0051346
0.00502595
0.00491774
0.00480998
0.00470267
0.0045958
0.00717277
0.00706761
0.00696277
0.00685828
0.00675414
0.00665035
0.00654694
0.00644389
0.00634123
0.00623896
0.00613708
0.00603561
0.00593455
0.00583391
0.00573369
0.0056339
0.00553455
0.00543563
0.00533719
0.00770994
0.00761266
0.0075157
0.00741907
0.00732277
0.00722682
0.00713122
0.00703598
0.0069411
0.0068466
0.00675249
0.00665876
0.00656542
0.00647249
0.00637996
0.00628785
0.00619616
0.00610489
0.00601406
0.00819863
0.00810855
0.00801877
0.00792931
0.00784017
0.00775136
0.00766289
0.00757477
0.00748699
0.00739958
0.00731254
0.00722587
0.00713958
0.00705368
0.00696818
0.00688307
0.00679838
0.00671409
0.00663022
0.00872528
0.00864146
0.00855793
0.00847469
0.00839175
0.00830913
0.00822682
0.00814484
0.0080632
0.00798189
0.00790093
0.00782033
0.00774009
0.00766021
0.00758071
0.0075016
0.00742287
0.00734453
0.00726659
0.00718906
0.00911864
0.00904077
0.00896318
0.00888587
0.00880885
0.00873214
0.00865573
0.00857963
0.00850386
0.00842841