/*--------------------------------*- C++ -*----------------------------------*\
  =========                 |
  \\      /  F ield         | OpenFOAM: The Open Source CFD Toolbox
   \\    /   O peration     | Website:  https://openfoam.org
    \\  /    A nd           | Version:  7
     \\/     M anipulation  |
\*---------------------------------------------------------------------------*/
FoamFile
{
    version     2.0;
    format      ascii;
    class       surfaceScalarField;
    location    "260";
    object      phi;
}
// * * * * * * * * * * * * * * * * * * * * * * * * * * * * * * * * * * * * * //

dimensions      [0 3 -1 0 0 0 0];

internalField   nonuniform List<scalar> 
8878
(
-0.00405185
-0.000230045
-0.000230824
-0.00390962
-0.00401889
-0.000263787
-0.000196112
-0.00367199
-0.000228901
-0.00377114
-0.000262618
-0.00387591
-0.00398432
-0.000297186
-0.00019112
-0.0035469
-0.000224382
-0.00363873
-0.000258742
-0.00373678
-0.000294061
-0.00384059
-0.00394815
-0.000330231
-0.000183974
-0.00342863
-0.00021752
-0.00351335
-0.000252295
-0.00360396
-0.000288221
-0.00370086
-0.00032514
-0.00380367
-0.00391038
-0.000362909
-0.000174835
-0.00331655
-0.000208571
-0.00339489
-0.000243568
-0.00347835
-0.000279842
-0.00356768
-0.000317324
-0.00366337
-0.000355842
-0.00376515
-0.00387102
-0.000395207
-0.000163787
-0.00320974
-0.000197684
-0.00328265
-0.000232824
-0.00335975
-0.000269254
-0.00344192
-0.00030701
-0.00352993
-0.000346037
-0.00362435
-0.000386152
-0.00372503
-0.00383006
-0.000427111
-0.000150899
-0.00310702
-0.000184926
-0.00317571
-0.000220201
-0.00324738
-0.000256728
-0.00332323
-0.000294571
-0.00340408
-0.00033379
-0.00349071
-0.000374348
-0.00358379
-0.000416054
-0.00368333
-0.0037875
-0.000458607
-0.000136284
-0.00300663
-0.000170349
-0.00307295
-0.000205744
-0.00314031
-0.000242381
-0.00321074
-0.000280278
-0.00328533
-0.000319515
-0.00336484
-0.000360173
-0.00345005
-0.000402242
-0.00354172
-0.000445533
-0.00364004
-0.00374336
-0.000489678
-0.000120149
-0.00290558
-0.000154051
-0.00297272
-0.000189491
-0.00303751
-0.000226239
-0.00310357
-0.000264223
-0.00317276
-0.000303471
-0.00324608
-0.000344078
-0.00332424
-0.00038615
-0.00340798
-0.000429707
-0.00349816
-0.000474573
-0.00359517
-0.00369762
-0.000520309
-0.000102832
-0.00279893
-0.000136224
-0.00287219
-0.000171527
-0.00293742
-0.000208323
-0.00300072
-0.000246408
-0.00306548
-0.000285723
-0.00313344
-0.000326305
-0.0032055
-0.000368258
-0.00328228
-0.000411714
-0.00336452
-0.000456731
-0.00345315
-0.000503157
-0.00354875
-0.0036503
-0.000550481
-8.48407e-05
-0.00267899
-0.000117188
-0.00276659
-0.000152028
-0.00283735
-0.000188707
-0.00290074
-0.000226841
-0.00296258
-0.000266248
-0.00302607
-0.000306879
-0.00309281
-0.000348777
-0.0031636
-0.000392054
-0.00323901
-0.000436861
-0.00331971
-0.000483303
-0.0034067
-0.00053127
-0.00350078
-0.00360139
-0.000580178
-6.68533e-05
-0.00253481
-9.74275e-05
-0.00264842
-0.000131297
-0.00273272
-0.000167556
-0.00280109
-0.000205589
-0.00286271
-0.000245043
-0.00292313
-0.000285756
-0.00298536
-0.000327689
-0.00305088
-0.000370888
-0.0031204
-0.000415466
-0.00319443
-0.000461591
-0.00327359
-0.000509416
-0.00335888
-0.000558899
-0.0034513
-0.00355091
-0.000609385
-4.96919e-05
-0.00235228
-7.76061e-05
-0.00250689
-0.000109798
-0.00261623
-0.000145154
-0.00269736
-0.000182804
-0.00276344
-0.000222169
-0.00282334
-0.000262926
-0.00288237
-0.00030493
-0.00294336
-0.000348152
-0.00300766
-0.000392637
-0.00307592
-0.000438496
-0.00314857
-0.000485907
-0.00322618
-0.000535069
-0.00330972
-0.000586034
-0.00340033
-0.00349885
-0.000638091
-5.85429e-05
-0.00232797
-8.81794e-05
-0.00247726
-0.000121948
-0.00258246
-0.000158757
-0.00266055
-0.000197769
-0.00272443
-0.000238444
-0.00278267
-0.000280486
-0.00284033
-0.000323767
-0.00290008
-0.000368265
-0.00296316
-0.000414024
-0.00303016
-0.000461149
-0.00310144
-0.000509816
-0.00317751
-0.000560269
-0.00325926
-0.000612675
-0.00334792
-0.00344524
-0.000666283
-4.1135e-05
-0.00209535
-6.72544e-05
-0.00230185
-9.85677e-05
-0.00244594
-0.000133873
-0.00254715
-0.0001721
-0.00262233
-0.000212449
-0.00268408
-0.000254412
-0.0027407
-0.00029772
-0.00279702
-0.000342263
-0.00285553
-0.000388026
-0.00291739
-0.000435051
-0.00298313
-0.000483431
-0.00305306
-0.000533331
-0.00312761
-0.00058503
-0.00320757
-0.000638832
-0.00329412
-0.00339011
-0.000693967
-2.6229e-05
-0.00179249
-4.7939e-05
-0.00207364
-7.58204e-05
-0.00227397
-0.000108766
-0.002413
-0.000145568
-0.00251035
-0.00018518
-0.00258271
-0.000226839
-0.00264242
-0.000270068
-0.00269747
-0.000314625
-0.00275247
-0.000360416
-0.00280974
-0.000407432
-0.00287038
-0.000455715
-0.00293485
-0.000505346
-0.00300343
-0.000556467
-0.00307649
-0.000609378
-0.00315465
-0.000664539
-0.00323896
-0.00333344
-0.000721204
-3.11331e-05
-0.00177583
-5.4638e-05
-0.00205014
-8.42357e-05
-0.00224437
-0.00011877
-0.00237846
-0.00015703
-0.00247209
-0.000197996
-0.00254175
-0.000240937
-0.00259948
-0.000285411
-0.002653
-0.000331198
-0.00270668
-0.00037822
-0.00276272
-0.000426478
-0.00282212
-0.000476014
-0.00288531
-0.000526897
-0.00295255
-0.000579241
-0.00302415
-0.000633352
-0.00310054
-0.000689853
-0.00318246
-0.00327521
-0.000748082
-1.75815e-05
-0.00139393
-3.59702e-05
-0.00175744
-6.12267e-05
-0.00202488
-9.24952e-05
-0.00221311
-0.000128574
-0.00234239
-0.000168255
-0.00243241
-0.000210542
-0.00249946
-0.000254739
-0.00255528
-0.000300435
-0.0026073
-0.000347433
-0.00265968
-0.000395669
-0.00271448
-0.000445156
-0.00277263
-0.00049594
-0.00283453
-0.000548083
-0.00290041
-0.000601674
-0.00297056
-0.000657008
-0.00304521
-0.000714795
-0.00312467
-0.00321539
-0.000774621
-7.76186e-06
-0.000918572
-2.06557e-05
-0.00138103
-4.07355e-05
-0.00173736
-6.77005e-05
-0.00199792
-0.000100595
-0.00218021
-0.000138176
-0.0023048
-0.00017924
-0.00239134
-0.000222817
-0.00245589
-0.000268244
-0.00250986
-0.000315139
-0.00256041
-0.000363326
-0.0026115
-0.000412758
-0.00266505
-0.000463458
-0.00272193
-0.00051548
-0.00278251
-0.000568891
-0.002847
-0.000623785
-0.00291566
-0.000680443
-0.00298855
-0.000739393
-0.00306572
-0.00315366
-0.000801119
-9.31372e-06
-0.000911127
-2.36904e-05
-0.00136666
-4.54245e-05
-0.00171563
-7.40546e-05
-0.00196929
-0.00010853
-0.00214574
-0.000147573
-0.00226576
-0.000189983
-0.00234893
-0.000234818
-0.00241105
-0.000281448
-0.00246323
-0.000329518
-0.00251234
-0.000378873
-0.00256214
-0.000429479
-0.00261445
-0.000481371
-0.00267004
-0.000534613
-0.00272927
-0.00058929
-0.00279232
-0.000645541
-0.00285941
-0.0007037
-0.00293039
-0.000764471
-0.00300495
-0.00309145
-0.000826681
-2.32299e-06
-0.00034484
-1.08455e-05
-0.000902604
-2.66772e-05
-0.00135083
-5.00275e-05
-0.00169228
-8.02789e-05
-0.00193904
-0.000116291
-0.00210972
-0.000156754
-0.0022253
-0.000200474
-0.00230521
-0.000246537
-0.00236499
-0.000294343
-0.00241542
-0.000343564
-0.00246312
-0.000394063
-0.00251164
-0.00044582
-0.00256269
-0.000498878
-0.00261698
-0.000553311
-0.00267483
-0.000609224
-0.00273641
-0.000666816
-0.00280182
-0.000726267
-0.00287094
-0.000786851
-0.00294437
-0.00302409
-0.000854211
-2.77565e-06
-0.000342064
-1.23626e-05
-0.000893017
-2.96227e-05
-0.00133357
-5.45522e-05
-0.00166735
-8.6382e-05
-0.00190721
-0.000123887
-0.00207222
-0.000165729
-0.00218346
-0.000210724
-0.00226022
-0.000257984
-0.00231773
-0.000306938
-0.00236647
-0.000357285
-0.00241277
-0.000408904
-0.00246002
-0.000461786
-0.00250981
-0.000515982
-0.00256279
-0.00057157
-0.00261924
-0.000628664
-0.00267931
-0.000687438
-0.00274305
-0.00074798
-0.0028104
-0.000810378
-0.00288197
-0.00295754
-0.000876927
-3.22386e-06
-0.00033884
-1.38593e-05
-0.000882382
-3.2519e-05
-0.00131491
-5.89892e-05
-0.00164088
-9.23542e-05
-0.00187384
-0.000131309
-0.00203326
-0.00017449
-0.00214027
-0.000220725
-0.00221398
-0.00026915
-0.0022693
-0.000319226
-0.00231639
-0.000370672
-0.00236133
-0.000423387
-0.00240731
-0.000477368
-0.00245582
-0.000532672
-0.00250748
-0.000589381
-0.00256254
-0.000647605
-0.00262109
-0.000707488
-0.00268316
-0.000769121
-0.00274876
-0.000832782
-0.00281831
-0.00289094
-0.000899386
-3.66701e-06
-0.000335173
-1.53338e-05
-0.000870715
-3.53634e-05
-0.00129488
-6.33353e-05
-0.00161291
-9.81924e-05
-0.00183898
-0.000138554
-0.0019929
-0.000183035
-0.00209579
-0.000230474
-0.00216655
-0.000280034
-0.00221974
-0.000331204
-0.00226522
-0.000383725
-0.00230881
-0.000437509
-0.00235353
-0.000492563
-0.00240077
-0.000548947
-0.0024511
-0.000606743
-0.00250474
-0.000666057
-0.00256177
-0.000727009
-0.00262221
-0.000789701
-0.00268607
-0.000854385
-0.00275362
-0.00282389
-0.000921428
-4.10452e-06
-0.000331069
-1.67844e-05
-0.000858035
-3.81532e-05
-0.00127351
-6.75876e-05
-0.00158347
-0.000103894
-0.00180268
-0.00014562
-0.00195118
-0.000191362
-0.00205005
-0.00023997
-0.00211794
-0.000290635
-0.00216908
-0.000342871
-0.00221298
-0.00039644
-0.00225524
-0.000451268
-0.0022987
-0.000507369
-0.00234467
-0.000564804
-0.00239367
-0.000623656
-0.00244589
-0.000684025
-0.0025014
-0.000746016
-0.00256022
-0.000809728
-0.00262236
-0.000875353
-0.002688
-0.00275621
-0.000943037
-4.53583e-06
-0.000326533
-1.82094e-05
-0.000844361
-4.08861e-05
-0.00125083
-7.17433e-05
-0.00155261
-0.000109455
-0.00176497
-0.000152504
-0.00190813
-0.000199468
-0.00200309
-0.000249212
-0.00206819
-0.000300951
-0.00211734
-0.000354225
-0.00215971
-0.000408817
-0.00220064
-0.000464662
-0.00224285
-0.000521783
-0.00228755
-0.000580242
-0.00233521
-0.000640121
-0.00238601
-0.000701514
-0.00244001
-0.000764515
-0.00249722
-0.000829218
-0.00255766
-0.000895761
-0.00262146
-0.00268777
-0.000964204
-4.9604e-06
-0.000321573
-1.96074e-05
-0.000829714
-4.35597e-05
-0.00122688
-7.57999e-05
-0.00152037
-0.000114875
-0.00172589
-0.000159205
-0.0018638
-0.000207353
-0.00195494
-0.000258198
-0.00201735
-0.000310981
-0.00206455
-0.000365266
-0.00210543
-0.000420854
-0.00214506
-0.000477691
-0.00218602
-0.000535805
-0.00222943
-0.00059526
-0.00227575
-0.000656138
-0.00232513
-0.000718527
-0.00237762
-0.000782514
-0.00243323
-0.000848184
-0.00249199
-0.000915642
-0.002554
-0.00261849
-5.37769e-06
-0.000316195
-2.09769e-05
-0.000814115
-4.6172e-05
-0.00120168
-7.97551e-05
-0.00148679
-0.000120151
-0.00168549
-0.000165721
-0.00181823
-0.000215015
-0.00190564
-0.000266928
-0.00196544
-0.000320725
-0.00201076
-0.000375993
-0.00205016
-0.00043255
-0.0020885
-0.000490353
-0.00212821
-0.000549433
-0.00217035
-0.000609858
-0.00221533
-0.000671708
-0.00226328
-0.000735066
-0.00231426
-0.000800017
-0.00236828
-0.000866636
-0.00242537
-0.00093501
-0.00248562
-0.00254835
-5.78721e-06
-0.000310408
-2.23167e-05
-0.000797586
-4.8721e-05
-0.00117528
-8.36068e-05
-0.0014519
-0.000125281
-0.00164382
-0.000172049
-0.00177146
-0.000222453
-0.00185524
-0.0002754
-0.00191249
-0.000330181
-0.00195598
-0.000386405
-0.00199393
-0.000443904
-0.002031
-0.000502647
-0.00206947
-0.000562668
-0.00211033
-0.000624037
-0.00215396
-0.000686832
-0.00220049
-0.000751135
-0.00224996
-0.000817027
-0.00230239
-0.000884579
-0.00235782
-0.000953867
-0.00241634
-0.0024773
-6.18844e-06
-0.000304219
-2.36253e-05
-0.000780149
-5.12049e-05
-0.0011477
-8.73529e-05
-0.00141576
-0.000130264
-0.00160091
-0.00017819
-0.00172353
-0.000229666
-0.00180377
-0.000283614
-0.00185854
-0.00033935
-0.00190024
-0.000396501
-0.00193678
-0.000454917
-0.00197259
-0.000514572
-0.00200982
-0.000575508
-0.00204939
-0.000637795
-0.00209167
-0.00070151
-0.00213677
-0.000766735
-0.00218474
-0.000833547
-0.00223558
-0.000902016
-0.00228935
-0.000972214
-0.00234614
-6.58092e-06
-0.000297638
-2.49016e-05
-0.000761828
-5.3622e-05
-0.00111898
-9.09917e-05
-0.00137839
-0.000135097
-0.0015568
-0.000184142
-0.00167449
-0.000236653
-0.00175125
-0.00029157
-0.00180362
-0.000348229
-0.00184358
-0.000406281
-0.00187873
-0.000465586
-0.00191328
-0.000526128
-0.00194927
-0.000587954
-0.00198757
-0.000651132
-0.00202849
-0.000715742
-0.00207216
-0.000781865
-0.00211861
-0.000849576
-0.00216787
-0.000918946
-0.00221998
-0.00227504
-6.96421e-06
-0.000290674
-2.61445e-05
-0.000742648
-5.59708e-05
-0.00108915
-9.45215e-05
-0.00133984
-0.000139779
-0.00151155
-0.000189903
-0.00162437
-0.000243413
-0.00169774
-0.000299266
-0.00174777
-0.00035682
-0.00178603
-0.000415743
-0.00181981
-0.000475911
-0.00185311
-0.000537315
-0.00188787
-0.000600003
-0.00192488
-0.000664047
-0.00196445
-0.000729528
-0.00200668
-0.000796525
-0.00205162
-0.000865114
-0.00209928
-0.000935367
-0.00214973
-0.00220305
-7.33786e-06
-0.000283336
-2.73529e-05
-0.000722633
-5.82497e-05
-0.00105826
-9.79408e-05
-0.00130014
-0.00014431
-0.00146518
-0.000195472
-0.0015732
-0.000249946
-0.00164327
-0.000306703
-0.00169101
-0.000365121
-0.00172761
-0.000424889
-0.00176004
-0.000485892
-0.00179211
-0.00054813
-0.00182563
-0.000611655
-0.00186136
-0.000676541
-0.00189956
-0.000742867
-0.00194035
-0.000810714
-0.00198377
-0.00088016
-0.00202983
-0.000951277
-0.00207861
-7.70147e-06
-0.000275635
-2.85259e-05
-0.000701808
-6.04574e-05
-0.00102632
-0.000101248
-0.00125935
-0.000148687
-0.00141774
-0.00020085
-0.00152104
-0.000256252
-0.00158787
-0.000313879
-0.00163339
-0.000373133
-0.00166836
-0.000433716
-0.00169946
-0.000495528
-0.0017303
-0.000558575
-0.00176258
-0.00062291
-0.00179702
-0.000688611
-0.00183386
-0.000755757
-0.00187321
-0.00082443
-0.00191509
-0.00089471
-0.00195955
-0.00200665
-8.05467e-06
-0.00026758
-2.96625e-05
-0.000680201
-6.25927e-05
-0.000993395
-0.000104442
-0.0012175
-0.00015291
-0.00136927
-0.000206034
-0.00146792
-0.000262328
-0.00153157
-0.000320795
-0.00157492
-0.000380854
-0.0016083
-0.000442225
-0.00163809
-0.000504819
-0.0016677
-0.000568646
-0.00169876
-0.000633766
-0.0017319
-0.000700256
-0.00176737
-0.000768197
-0.00180527
-0.000837672
-0.00184562
-0.000908763
-0.00188846
-0.00193386
-8.39707e-06
-0.000259183
-3.07618e-05
-0.000657836
-6.46543e-05
-0.000959502
-0.000107522
-0.00117464
-0.000156978
-0.00131981
-0.000211025
-0.00141387
-0.000268176
-0.00147442
-0.00032745
-0.00151564
-0.000388284
-0.00154746
-0.000450415
-0.00157595
-0.000513763
-0.00160436
-0.000578345
-0.00163417
-0.000644223
-0.00166602
-0.000711475
-0.00170012
-0.000780185
-0.00173656
-0.000850437
-0.00177537
-0.000922313
-0.00181658
-0.00186028
-8.72834e-06
-0.000250455
-3.1823e-05
-0.000634741
-6.66411e-05
-0.000924684
-0.000110487
-0.00113079
-0.000160889
-0.00126941
-0.000215821
-0.00135894
-0.000273795
-0.00141645
-0.000333843
-0.0014556
-0.000395423
-0.00148588
-0.000458286
-0.00151309
-0.00052236
-0.00154028
-0.00058767
-0.00156887
-0.000654278
-0.00159941
-0.000722266
-0.00163213
-0.000791719
-0.0016671
-0.000862722
-0.00170436
-0.000935359
-0.00174395
-9.04813e-06
-0.000241407
-3.28453e-05
-0.000610944
-6.85522e-05
-0.000888977
-0.000113334
-0.00108601
-0.000164643
-0.0012181
-0.000220422
-0.00130316
-0.000279183
-0.00135769
-0.000339975
-0.0013948
-0.000402271
-0.00142359
-0.000465837
-0.00144953
-0.00053061
-0.00147551
-0.000596619
-0.00150286
-0.000663931
-0.0015321
-0.000732628
-0.00156344
-0.000802797
-0.00159694
-0.000874524
-0.00163264
-0.00167057
-9.35615e-06
-0.000232051
-3.38281e-05
-0.000586472
-7.03866e-05
-0.000852419
-0.000116065
-0.00104033
-0.00016824
-0.00116593
-0.000224828
-0.00124657
-0.000284342
-0.00129817
-0.000345845
-0.0013333
-0.000408827
-0.00136061
-0.000473067
-0.00138529
-0.000538511
-0.00141006
-0.000605192
-0.00143617
-0.00067318
-0.00146411
-0.000742559
-0.00149406
-0.000813416
-0.00152608
-0.000885841
-0.00156021
-0.00159649
-9.6521e-06
-0.000222398
-3.47706e-05
-0.000561354
-7.21433e-05
-0.000815046
-0.000118677
-0.000993797
-0.000171678
-0.00111293
-0.000229037
-0.00118921
-0.00028927
-0.00123794
-0.000351452
-0.00127112
-0.000415091
-0.00129697
-0.000479976
-0.0013204
-0.000546063
-0.00134398
-0.000613388
-0.00136885
-0.000682024
-0.00139548
-0.000752057
-0.00142403
-0.000823575
-0.00145456
-0.00089667
-0.00148712
-0.00152173
-9.93569e-06
-0.000212463
-3.56722e-05
-0.000535617
-7.38216e-05
-0.000776896
-0.000121169
-0.000946449
-0.000174957
-0.00105914
-0.00023305
-0.00113112
-0.000293967
-0.00117702
-0.000356797
-0.00120829
-0.000421062
-0.0012327
-0.000486563
-0.0012549
-0.000553264
-0.00127728
-0.000621205
-0.00130091
-0.000690462
-0.00132622
-0.00076112
-0.00135337
-0.000833271
-0.00138241
-0.000907007
-0.00141338
-1.02067e-05
-0.000202256
-3.65322e-05
-0.000509292
-7.54206e-05
-0.000738008
-0.000123542
-0.000898328
-0.000178077
-0.0010046
-0.000236866
-0.00107233
-0.000298432
-0.00111546
-0.000361878
-0.00114484
-0.000426739
-0.00116784
-0.000492828
-0.00118881
-0.000560115
-0.00120999
-0.000628643
-0.00123238
-0.000698491
-0.00125637
-0.000769746
-0.00128211
-0.000842502
-0.00130965
-0.00133903
-1.04648e-05
-0.000191791
-3.73502e-05
-0.000482406
-7.69397e-05
-0.000698419
-0.000125795
-0.000849473
-0.000181035
-0.000949363
-0.000240485
-0.00101288
-0.000302667
-0.00105328
-0.000366697
-0.00108081
-0.000432124
-0.00110242
-0.00049877
-0.00112216
-0.000566613
-0.00114215
-0.0006357
-0.00116329
-0.000706111
-0.00118596
-0.000777934
-0.00121029
-0.000851264
-0.00123632
-0.0012641
-1.07098e-05
-0.000181081
-3.81256e-05
-0.000454991
-7.83781e-05
-0.000658166
-0.000127926
-0.000799925
-0.000183834
-0.000893455
-0.000243906
-0.000952808
-0.000306669
-0.000990513
-0.000371251
-0.00101623
-0.000437214
-0.00103645
-0.000504389
-0.00105499
-0.000572759
-0.00107378
-0.000642375
-0.00109368
-0.000713319
-0.00111502
-0.000785682
-0.00113793
-0.000859558
-0.00116245
-0.00118861
-1.09415e-05
-0.00017014
-3.88578e-05
-0.000427074
-7.97352e-05
-0.000617289
-0.000129935
-0.000749725
-0.00018647
-0.00083692
-0.000247129
-0.00089215
-0.000310439
-0.000927202
-0.000375542
-0.000951127
-0.00044201
-0.000969985
-0.000509684
-0.000987314
-0.000578551
-0.00100491
-0.000648668
-0.00102356
-0.000720116
-0.00104357
-0.000792987
-0.00106506
-0.000867379
-0.00108806
-0.0011126
-1.11597e-05
-0.00015898
-3.95466e-05
-0.000398687
-8.10105e-05
-0.000575825
-0.000131822
-0.000698915
-0.000188945
-0.000779796
-0.000250153
-0.000830942
-0.000313977
-0.000863378
-0.000379568
-0.000885536
-0.00044651
-0.000903043
-0.000514653
-0.000919171
-0.000583989
-0.000935573
-0.000654576
-0.000952973
-0.000726498
-0.00097165
-0.000799849
-0.000991704
-0.000874726
-0.00101318
-1.13642e-05
-0.000147616
-4.01913e-05
-0.00036986
-8.22034e-05
-0.000533812
-0.000133585
-0.000647533
-0.000191258
-0.000722123
-0.000252978
-0.000769222
-0.000317282
-0.000799074
-0.00038333
-0.000819488
-0.000450716
-0.000835658
-0.000519298
-0.000850589
-0.000589072
-0.000865798
-0.0006601
-0.000881945
-0.000732466
-0.000899284
-0.000806266
-0.000917904
-0.000937847
-1.15548e-05
-0.000136061
-4.07917e-05
-0.000340623
-8.33134e-05
-0.000491291
-0.000135226
-0.00059562
-0.000193408
-0.000663941
-0.000255605
-0.000707025
-0.000320355
-0.000734324
-0.000386827
-0.000753016
-0.000454626
-0.000767859
-0.000523617
-0.000781599
-0.000593799
-0.000795616
-0.000665237
-0.000810508
-0.000738017
-0.000826504
-0.000812235
-0.000843686
-0.000862091
-1.17313e-05
-0.00012433
-4.13473e-05
-0.000311007
-8.43401e-05
-0.000448298
-0.000136742
-0.000543218
-0.000195396
-0.000605287
-0.000258032
-0.000644389
-0.000323194
-0.000669162
-0.000390059
-0.000686151
-0.00045824
-0.000699677
-0.000527609
-0.000712231
-0.00059817
-0.000725055
-0.000669988
-0.00073869
-0.000743151
-0.00075334
-0.000817757
-0.00076908
-0.000785942
-1.18937e-05
-0.000112436
-4.18579e-05
-0.000281043
-8.5283e-05
-0.000404873
-0.000138134
-0.000490367
-0.00019722
-0.000546202
-0.00026026
-0.000581349
-0.000325799
-0.000603622
-0.000393025
-0.000618925
-0.000461558
-0.000631145
-0.000531274
-0.000642514
-0.000602183
-0.000654146
-0.00067435
-0.000666522
-0.000747866
-0.000679824
-0.000822829
-0.000694118
-0.000709432
-1.20417e-05
-0.000100395
-4.23231e-05
-0.000250762
-8.61417e-05
-0.000361054
-0.000139402
-0.000437107
-0.00019888
-0.000486724
-0.000262287
-0.000517942
-0.000328171
-0.000537738
-0.000395726
-0.00055137
-0.000464579
-0.000562292
-0.000534612
-0.000572481
-0.000605838
-0.000582921
-0.000678325
-0.000594036
-0.000752162
-0.000605986
-0.00082745
-0.00061883
-0.000632593
-1.21752e-05
-8.82194e-05
-4.27426e-05
-0.000220194
-8.69159e-05
-0.000316881
-0.000140544
-0.000383478
-0.000200377
-0.000426892
-0.000264115
-0.000454203
-0.00033031
-0.000471544
-0.000398161
-0.000483519
-0.000467303
-0.00049315
-0.000537623
-0.000502161
-0.000609135
-0.000511409
-0.00068191
-0.000521261
-0.000756038
-0.000531858
-0.000831619
-0.000543249
-0.000555456
-1.22942e-05
-7.59253e-05
-4.31162e-05
-0.000189372
-8.76053e-05
-0.000272392
-0.000141562
-0.000329522
-0.000201709
-0.000366745
-0.000265742
-0.00039017
-0.000332214
-0.000405072
-0.000400329
-0.000415403
-0.000469729
-0.000423749
-0.000540305
-0.000431585
-0.000612073
-0.000439641
-0.000685105
-0.00044823
-0.000759492
-0.00045747
-0.000835336
-0.000467405
-0.000478054
-1.23985e-05
-6.35268e-05
-4.34438e-05
-0.000158327
-8.82096e-05
-0.000227626
-0.000142454
-0.000275278
-0.000202877
-0.000306321
-0.000267169
-0.000325878
-0.000333884
-0.000338358
-0.000402232
-0.000347055
-0.000471859
-0.000354123
-0.000542659
-0.000360785
-0.000614651
-0.000367648
-0.000687909
-0.000374972
-0.000762525
-0.000382855
-0.000838599
-0.000391331
-0.000400418
-1.2488e-05
-5.10388e-05
-4.3725e-05
-0.00012709
-8.87286e-05
-0.000182622
-0.00014322
-0.000220787
-0.000203881
-0.000245659
-0.000268396
-0.000261364
-0.00033532
-0.000271434
-0.000403868
-0.000278507
-0.00047369
-0.0002843
-0.000544684
-0.000289791
-0.00061687
-0.000295462
-0.000690323
-0.00030152
-0.000765135
-0.000308043
-0.000841407
-0.000315059
-0.000322581
-1.25627e-05
-3.84761e-05
-4.39598e-05
-9.56929e-05
-8.91621e-05
-0.00013742
-0.00014386
-0.000166089
-0.000204721
-0.000184799
-0.000269422
-0.000196662
-0.000336521
-0.000204335
-0.000405237
-0.000209791
-0.000475224
-0.000214314
-0.00054638
-0.000218634
-0.000618729
-0.000223113
-0.000692345
-0.000227904
-0.000767321
-0.000233066
-0.00084376
-0.00023862
-0.000244577
-1.26225e-05
-2.58537e-05
-4.41479e-05
-6.41675e-05
-8.95099e-05
-9.2058e-05
-0.000144374
-0.000111224
-0.000205395
-0.000123778
-0.000270247
-0.000131811
-0.000337488
-0.000137094
-0.00040634
-0.000140939
-0.000476459
-0.000144195
-0.000547747
-0.000147347
-0.000620227
-0.000150632
-0.000693975
-0.000154156
-0.000769085
-0.000157956
-0.000845658
-0.000162047
-1.26673e-05
-1.31864e-05
-4.42894e-05
-3.25454e-05
-8.97719e-05
-4.65755e-05
-0.000144762
-5.62342e-05
-0.000205905
-6.2635e-05
-0.000270871
-6.68441e-05
-0.00033822
-6.9745e-05
-0.000407176
-7.1983e-05
-0.000477396
-7.3975e-05
-0.000548784
-7.59584e-05
-0.000621365
-7.80519e-05
-0.000695213
-8.03074e-05
-0.000770424
-8.27451e-05
-8.53723e-05
-1.26971e-05
-4.8928e-07
-4.4384e-05
-8.58506e-07
-8.99479e-05
-1.01159e-06
-0.000145024
-1.15833e-06
-0.00020625
-1.40887e-06
-0.000271295
-1.79901e-06
-0.000338718
-2.32162e-06
-0.000407745
-2.95597e-06
-0.000478035
-3.68519e-06
-0.000549492
-4.50119e-06
-0.000622142
-5.4024e-06
-0.00069606
-6.38985e-06
-0.00077134
-7.46468e-06
-8.62746e-06
-1.27119e-05
1.22227e-05
-4.44318e-05
3.08614e-05
-9.00379e-05
4.45946e-05
-0.000145159
5.39627e-05
-0.00020643
5.98619e-05
-0.000271518
6.32888e-05
-0.000338982
6.51425e-05
-0.000408048
6.61103e-05
-0.000478376
6.66429e-05
-0.000549871
6.69939e-05
-0.000622558
6.72847e-05
-0.000696513
6.75653e-05
-0.000771831
6.78533e-05
6.8155e-05
-1.27118e-05
2.49345e-05
-4.44329e-05
6.25824e-05
-9.00422e-05
9.02039e-05
-0.000145168
0.000109089
-0.000206445
0.000121139
-0.00027154
0.000128383
-0.000339011
0.000132614
-0.000408084
0.000135183
-0.000478419
0.000136978
-0.000549921
0.000138495
-0.000622614
0.000139978
-0.000696575
0.000141527
-0.000771899
0.000143177
0.000144943
-1.26967e-05
3.76311e-05
-4.43871e-05
9.42729e-05
-8.99604e-05
0.000135777
-0.000145051
0.000164179
-0.000206295
0.000182383
-0.000271361
0.000193449
-0.000338805
0.000200058
-0.000407853
0.000204231
-0.000478163
0.000207288
-0.00054964
0.000209972
-0.000622309
0.000212647
-0.000696245
0.000215462
-0.000771542
0.000218475
0.000221704
-1.26665e-05
5.02976e-05
-4.42944e-05
0.000125901
-8.97926e-05
0.000181275
-0.000144807
0.000219194
-0.000205981
0.000243557
-0.000270981
0.000258449
-0.000338365
0.000267442
-0.000407356
0.000273222
-0.00047761
0.000277542
-0.000549031
0.000281394
-0.000621643
0.000285259
-0.000695522
0.000289341
-0.000770762
0.000293715
0.000298406
-1.26213e-05
6.29189e-05
-4.4155e-05
0.000157434
-8.95389e-05
0.000226659
-0.000144438
0.000274093
-0.000205502
0.000304621
-0.000270401
0.000323349
-0.000337691
0.000334732
-0.000406592
0.000342123
-0.000476759
0.000347709
-0.000548093
0.000352728
-0.000620618
0.000357784
-0.000694408
0.000363132
-0.000769558
0.000368865
-0.000846169
0.000375017
0.000381603
-1.25612e-05
7.548e-05
-4.39688e-05
0.000188842
-8.91994e-05
0.00027189
-0.000143942
0.000328835
-0.000204858
0.000365537
-0.00026962
0.000388111
-0.000336782
0.000401894
-0.000405562
0.000410902
-0.000475609
0.000417757
-0.000546825
0.000423944
-0.000619232
0.00043019
-0.000692902
0.000436802
-0.000767931
0.000443894
-0.000844419
0.000451504
0.000459653
-1.24861e-05
8.79662e-05
-4.3736e-05
0.000220092
-8.87743e-05
0.000316928
-0.00014332
0.000383381
-0.000204049
0.000426266
-0.000268639
0.000452701
-0.00033564
0.000468895
-0.000404265
0.000479527
-0.000474162
0.000487654
-0.000545229
0.000495011
-0.000617486
0.000502447
-0.000691006
0.000510322
-0.000765882
0.000518769
-0.000842214
0.000527837
0.000537545
-1.23963e-05
0.000100362
-4.34568e-05
0.000251153
-8.82637e-05
0.000361735
-0.000142572
0.000437689
-0.000203076
0.00048677
-0.000267457
0.000517081
-0.000334263
0.000535701
-0.000402702
0.000547966
-0.000472418
0.00055737
-0.000543305
0.000565897
-0.000615381
0.000574523
-0.000688719
0.00058366
-0.00076341
0.000593461
-0.000839555
0.000603982
0.000615247
-1.22916e-05
0.000112654
-4.31313e-05
0.000281992
-8.76678e-05
0.000406271
-0.000141699
0.00049172
-0.000201939
0.000547011
-0.000266075
0.000581217
-0.000332652
0.000602279
-0.000400874
0.000616188
-0.000470377
0.000626874
-0.000541053
0.000636573
-0.000612917
0.000646387
-0.000686042
0.000656784
-0.000760517
0.000667937
-0.000836444
0.000679908
0.000692726
-1.21723e-05
0.000124826
-4.27597e-05
0.00031258
-8.69868e-05
0.000450499
-0.0001407
0.000545433
-0.000200638
0.000606948
-0.000264493
0.000645073
-0.000330808
0.000668594
-0.00039878
0.000684159
-0.000468039
0.000696133
-0.000538473
0.000707007
-0.000610095
0.00071801
-0.000682975
0.000729664
-0.000757204
0.000742166
-0.00083288
0.000755584
0.000769951
-1.20384e-05
0.000136865
-4.23422e-05
0.000342883
-8.62211e-05
0.000494378
-0.000139576
0.000598788
-0.000199173
0.000666545
-0.000262711
0.000708611
-0.000328731
0.000734614
-0.00039642
0.000751848
-0.000465405
0.000765118
-0.000535566
0.000777168
-0.000606915
0.000789359
-0.00067952
0.000802269
-0.000753471
0.000816116
-0.000828865
0.000830978
0.00084689
-1.189e-05
0.000148755
-4.1879e-05
0.000372872
-8.53709e-05
0.000537869
-0.000138327
0.000651745
-0.000197544
0.000725762
-0.00026073
0.000771797
-0.00032642
0.000800304
-0.000393795
0.000819224
-0.000462474
0.000833797
-0.000532333
0.000847027
-0.000603378
0.000860404
-0.000675678
0.000874568
-0.00074932
0.000889758
-0.000824401
0.00090606
0.00092351
-1.17273e-05
0.000160482
-4.13704e-05
0.000402516
-8.44366e-05
0.000580936
-0.000136954
0.000704262
-0.000195752
0.00078456
-0.000258549
0.000834593
-0.000323876
0.000865631
-0.000390906
0.000886254
-0.000459248
0.000902139
-0.000528773
0.000916552
-0.000599485
0.000931116
-0.000671448
0.000946532
-0.000744751
0.000963061
-0.000819488
0.000980797
0.000999781
-1.15504e-05
0.000172032
-4.08168e-05
0.000431782
-8.34185e-05
0.000623537
-0.000135457
0.000756301
-0.000193798
0.000842901
-0.000256169
0.000896965
-0.0003211
0.000930561
-0.000387752
0.000952906
-0.000455727
0.000970114
-0.000524888
0.000985713