/*--------------------------------*- C++ -*----------------------------------*\
  =========                 |
  \\      /  F ield         | OpenFOAM: The Open Source CFD Toolbox
   \\    /   O peration     | Website:  https://openfoam.org
    \\  /    A nd           | Version:  7
     \\/     M anipulation  |
\*---------------------------------------------------------------------------*/
FoamFile
{
    version     2.0;
    format      ascii;
    class       volVectorField;
    location    "260";
    object      U;
}
// * * * * * * * * * * * * * * * * * * * * * * * * * * * * * * * * * * * * * //

dimensions      [0 1 -1 0 0 0 0];

internalField   nonuniform List<vector> 
4575
(
(1.13206 0.337501 -8.52508e-21)
(1.1285 0.354935 2.92514e-20)
(1.12333 0.340361 -2.6164e-20)
(1.1279 0.392609 -3.53292e-20)
(1.12324 0.374633 1.62496e-20)
(1.11912 0.35781 2.999e-21)
(1.11443 0.342986 2.5382e-20)
(1.12243 0.415135 -2.37332e-20)
(1.11727 0.395872 6.60898e-20)
(1.11314 0.377533 -2.46709e-21)
(1.10955 0.360427 -9.10038e-21)
(1.10536 0.345366 3.19262e-21)
(1.11667 0.439235 3.99951e-20)
(1.11104 0.418493 -2.23911e-20)
(1.10642 0.398838 -3.21076e-20)
(1.10284 0.38015 8.24099e-21)
(1.0998 0.362774 -1.9379e-20)
(1.09613 0.347493 -1.19145e-20)
(1.11046 0.464939 -2.31332e-20)
(1.1045 0.442685 -6.42522e-21)
(1.09944 0.421527 -5.87036e-22)
(1.09536 0.401499 -2.46539e-21)
(1.09233 0.382476 5.87607e-22)
(1.08986 0.364843 -1.27375e-20)
(1.08674 0.349358 8.77424e-21)
(1.10346 0.492221 5.90184e-20)
(1.09744 0.468476 -1.50499e-20)
(1.0921 0.44578 -1.84201e-21)
(1.08762 0.424228 2.77633e-20)
(1.0841 0.403841 5.96072e-21)
(1.08164 0.384499 1.82119e-20)
(1.07974 0.366624 1.88861e-20)
(1.0772 0.350951 2.37039e-21)
(1.09523 0.520963 6.67069e-21)
(1.08953 0.495842 1.47191e-20)
(1.08418 0.47162 2.79618e-20)
(1.07948 0.448508 2.69869e-21)
(1.0756 0.426583 7.15936e-21)
(1.07265 0.405857 -1.96436e-20)
(1.07076 0.386211 9.97045e-21)
(1.06945 0.368109 -1.30587e-20)
(1.06751 0.352264 -2.25568e-21)
(1.08507 0.550814 -7.47478e-20)
(1.08033 0.524676 -8.22395e-20)
(1.07533 0.499026 -3.69687e-20)
(1.07068 0.474358 -3.59893e-20)
(1.06666 0.450856 -4.34944e-21)
(1.06339 0.428581 -2.73988e-21)
(1.06102 0.407536 -5.45546e-21)
(1.05971 0.387605 -5.80708e-21)
(1.05899 0.369288 -8.59179e-21)
(1.05768 0.353289 2.40415e-21)
(1.07188 0.580974 -1.30572e-20)
(1.0692 0.55465 5.51232e-20)
(1.06514 0.527901 7.26953e-20)
(1.06089 0.501758 1.08432e-20)
(1.05698 0.476675 4.19772e-20)
(1.05364 0.452811 -2.19222e-21)
(1.05101 0.430212 1.80872e-20)
(1.04923 0.40887 -4.91984e-21)
(1.04849 0.388671 -3.84835e-21)
(1.04837 0.370155 7.26303e-21)
(1.04772 0.354018 -3.88066e-21)
(1.05376 0.609872 2.36146e-20)
(1.05507 0.584996 3.23111e-20)
(1.05301 0.557939 2.02668e-20)
(1.04969 0.530623 -4.79358e-20)
(1.04622 0.504024 -3.37973e-20)
(1.04307 0.478559 -1.99108e-20)
(1.04046 0.454362 -2.79115e-20)
(1.03848 0.431465 -4.20363e-21)
(1.0373 0.409849 -6.87849e-22)
(1.03714 0.389403 1.41481e-21)
(1.03761 0.370701 -1.55735e-21)
(1.03762 0.35444 -1.7024e-21)
(1.02778 0.634763 -3.27208e-20)
(1.03617 0.614183 -1.11985e-19)
(1.03791 0.588404 -7.50742e-20)
(1.03653 0.560666 -2.02662e-20)
(1.034 0.532828 2.94236e-20)
(1.03134 0.505812 2.20507e-20)
(1.02899 0.479998 1.34709e-21)
(1.02711 0.455498 1.28521e-20)
(1.02581 0.43233 1.27927e-22)
(1.02524 0.410465 6.79039e-22)
(1.02565 0.389794 9.25123e-22)
(1.0267 0.37092 -9.62141e-21)
(1.0274 0.354548 7.65888e-21)
(0.989658 0.651319 -4.0454e-20)
(1.00967 0.6395 6.60189e-20)
(1.01817 0.617802 6.80967e-20)
(1.02043 0.591181 2.27555e-20)
(1.01978 0.562818 2.07909e-20)
(1.01809 0.534503 -7.77316e-21)
(1.01628 0.507108 -2.72074e-21)
(1.01474 0.480979 1.37375e-21)
(1.01363 0.456207 5.27851e-21)
(1.01303 0.432798 -1.43416e-21)
(1.01307 0.41071 -5.76075e-21)
(1.01405 0.389839 -1.16345e-20)
(1.01565 0.370804 2.00411e-20)
(1.01707 0.354329 1.43662e-20)
(0.933673 0.653346 -2.2643e-20)
(0.971418 0.656628 9.18317e-21)
(0.991078 0.643464 -7.14446e-21)
(0.999806 0.620716 5.33492e-20)
(1.00266 0.593316 -4.35273e-20)
(1.0028 0.564381 -5.64276e-21)
(1.00197 0.535635 1.21852e-21)
(1.00104 0.5079 2.47593e-21)
(1.00035 0.48149 5.25267e-21)
(1.00003 0.456479 2.88795e-21)
(1.00014 0.432858 3.62293e-21)
(1.00082 0.410575 8.40435e-21)
(1.00235 0.38953 1.5584e-20)
(1.0045 0.370347 2.02612e-20)
(1.00663 0.353773 -2.44501e-20)
(0.915868 0.659322 -7.24051e-21)
(0.952633 0.661082 -2.73059e-20)
(0.972062 0.646639 -7.39208e-21)
(0.981106 0.62291 -4.83571e-20)
(0.984617 0.594794 5.52141e-20)
(0.985596 0.565342 9.83046e-22)
(0.985683 0.536213 1.01766e-20)
(0.985657 0.508178 -6.36144e-21)
(0.985837 0.481521 -4.01703e-21)
(0.98633 0.456302 -1.61786e-20)
(0.987179 0.432499 -1.5612e-20)
(0.988504 0.41005 -4.56022e-21)
(0.990594 0.388862 3.27765e-20)
(0.99325 0.369541 -1.81661e-20)
(0.996107 0.35286 5.6141e-21)
(0.836292 0.63941 -3.62975e-20)
(0.89744 0.664379 -2.54273e-20)
(0.933351 0.664668 -2.10197e-20)
(0.95266 0.649012 2.73906e-20)
(0.962108 0.624372 5.85575e-22)
(0.966344 0.595605 -2.84217e-20)
(0.968209 0.565691 8.17571e-21)
(0.969235 0.536224 1.30688e-21)
(0.970141 0.507929 -3.13943e-21)
(0.971211 0.481062 -2.43639e-21)
(0.972538 0.455667 6.26124e-21)
(0.97415 0.431711 3.92541e-21)
(0.976149 0.409126 9.37057e-21)
(0.978797 0.387825 1.96305e-20)
(0.981933 0.368373 -6.30167e-20)
(0.985524 0.351565 1.46052e-20)
(0.725471 0.58723 4.8361e-22)
(0.818931 0.64506 3.88035e-20)
(0.878442 0.668499 4.68274e-20)
(0.913619 0.667369 2.54321e-20)
(0.932914 0.650571 -1.49652e-20)
(0.942848 0.625092 1.48264e-20)
(0.947868 0.595738 -1.26383e-21)
(0.95066 0.565418 -6.2849e-21)
(0.952654 0.53566 9.15708e-21)
(0.954513 0.507145 3.92722e-21)
(0.956494 0.480103 -1.71262e-22)
(0.958675 0.454563 -3.46024e-21)
(0.961073 0.430484 3.42086e-20)
(0.963776 0.407791 -2.81295e-20)
(0.966988 0.386411 1.31644e-20)
(0.970573 0.366825 7.036e-20)
(0.974902 0.349846 4.30854e-20)
(0.710024 0.593237 -5.43002e-20)
(0.80094 0.649737 -1.49347e-20)
(0.858928 0.671665 3.51291e-20)
(0.893486 0.669173 -4.14541e-20)
(0.912866 0.651306 -2.51733e-20)
(0.923362 0.625058 -8.22317e-21)
(0.929219 0.595183 1.31318e-21)
(0.932975 0.564513 -5.61629e-21)
(0.935964 0.534512 -9.95219e-21)
(0.938794 0.505818 -3.18568e-20)
(0.941702 0.478636 2.06596e-20)
(0.944754 0.452983 -3.37758e-21)
(0.947965 0.428808 -3.7429e-20)
(0.951403 0.406035 -1.32625e-20)
(0.955193 0.384608 -4.39882e-20)
(0.959201 0.364879 2.38344e-20)
(0.964302 0.347646 -5.12381e-20)
(0.564119 0.498345 5.37886e-20)
(0.693924 0.59829 7.44871e-20)
(0.782376 0.653422 2.59487e-20)
(0.83895 0.673864 -8.52848e-21)
(0.873 0.670071 5.27192e-21)
(0.892557 0.651206 1.57096e-20)
(0.903684 0.624264 -1.8232e-22)
(0.910429 0.593933 -5.22603e-21)
(0.915181 0.562968 6.50689e-21)
(0.919186 0.532772 8.17361e-21)
(0.923006 0.503941 3.13835e-20)
(0.926854 0.476654 -2.05849e-21)
(0.930791 0.450918 -1.04554e-20)
(0.934835 0.426672 -5.94442e-21)
(0.93904 0.403844 2.59965e-20)
(0.943427 0.382403 5.09708e-20)
(0.947875 0.362514 -8.4002e-20)
(0.9539 0.344921 5.77731e-20)
(0.376156 0.350457 1.01019e-19)
(0.550932 0.503299 -4.4144e-20)
(0.677225 0.60237 -4.7837e-20)
(0.763294 0.656099 -1.80174e-20)
(0.818562 0.675083 1.68543e-20)
(0.852208 0.670051 7.59689e-21)
(0.87203 0.650264 -1.05154e-21)
(0.883852 0.622701 -1.57019e-21)
(0.891527 0.591979 3.27724e-20)
(0.897305 0.560777 2.6807e-21)
(0.902346 0.530434 -1.51656e-20)
(0.907167 0.501506 -1.68608e-20)
(0.911966 0.474152 -1.31601e-20)
(0.916798 0.448363 -1.7116e-21)
(0.921691 0.424068 4.94705e-20)
(0.926685 0.401202 -1.87854e-20)
(0.931686 0.379757 -3.69913e-20)
(0.936693 0.359668 -1.45666e-21)
(0.943932 0.341666 -8.2469e-20)
(0.36705 0.354473 -3.81083e-20)
(0.537181 0.507381 3.83311e-20)
(0.65998 0.605457 4.98019e-20)
(0.743748 0.657754 -1.62203e-20)
(0.797816 0.675312 -5.03052e-22)
(0.831158 0.669106 -8.83337e-22)
(0.851324 0.648474 -1.99611e-21)
(0.863901 0.620363 3.3242e-21)
(0.872545 0.589317 -2.77473e-20)
(0.879374 0.557934 -3.37893e-20)
(0.885467 0.527493 -5.22617e-21)
(0.891301 0.498512 1.11224e-21)
(0.897057 0.471127 -1.71267e-20)
(0.902789 0.445316 1.54748e-20)
(0.908535 0.420997 4.18327e-20)
(0.914314 0.398105 1.29049e-20)
(0.919951 0.37663 -7.21871e-20)
(0.925752 0.356184 -2.39824e-21)
(0.93433 0.337631 2.55164e-20)
(0.14064 0.14242 1.34886e-20)
(0.357503 0.357842 1.0021e-20)
(0.522912 0.510573 -3.03253e-20)
(0.642246 0.607534 -1.50476e-20)
(0.723797 0.658375 -5.66413e-21)
(0.776764 0.674543 1.99408e-21)
(0.809897 0.667231 -8.75519e-21)
(0.830483 0.64583 -2.07128e-20)
(0.843867 0.617247 2.59559e-20)
(0.853515 0.585942 6.00991e-20)
(0.861416 0.554434 3.7462e-20)
(0.868574 0.523946 -1.44799e-20)
(0.875428 0.494954 -8.9048e-21)
(0.882146 0.467577 -3.94946e-21)
(0.888781 0.44178 -4.65154e-20)
(0.895373 0.417467 -2.3967e-20)
(0.901912 0.394574 -2.64393e-20)
(0.908219 0.373067 8.57264e-20)
(0.91509 0.352077 -1.98345e-20)
(0.924116 0.331139 7.31638e-20)
(0.136909 0.143983 1.25826e-20)
(0.34755 0.360545 -8.95207e-21)
(0.508176 0.512858 1.27704e-20)
(0.624077 0.60859 -2.48214e-21)
(0.703494 0.657953 -2.9624e-22)
(0.755461 0.672771 -8.02746e-21)
(0.788473 0.664421 4.7513e-21)
(0.809547 0.642329 2.93938e-20)
(0.823785 0.613347 -7.62143e-20)
(0.834468 0.58185 1.32265e-20)
(0.843459 0.550276 -2.21339e-20)
(0.851692 0.519788 2.55578e-20)
(0.859573 0.490831 2.34355e-20)
(0.867255 0.463502 3.73753e-20)
(0.874791 0.437757 1.50611e-20)
(0.882219 0.413491 4.04796e-20)
(0.889503 0.390639 1.93903e-20)
(0.89652 0.369163 -4.91074e-21)
(0.904296 0.348211 4.19699e-20)
(0.913302 0.327517 6.78315e-21)
(0.132994 0.145263 -6.70223e-22)
(0.337227 0.362566 -1.06536e-20)
(0.493022 0.514221 -3.62143e-22)
(0.605528 0.608613 -1.09341e-21)
(0.682897 0.656481 3.97214e-21)
(0.733957 0.66999 2.01918e-21)
(0.766931 0.660673 3.34537e-20)
(0.788557 0.637969 1.16495e-20)
(0.803692 0.608663 4.8615e-20)
(0.815435 0.577039 3.09529e-20)
(0.825531 0.545456 -7.83848e-20)
(0.834847 0.51502 2.47786e-21)
(0.843759 0.486142 -7.28729e-20)
(0.852407 0.458903 -4.57818e-21)
(0.860843 0.433248 -3.08598e-20)
(0.8691 0.409071 4.73682e-20)
(0.877127 0.386303 -7.19575e-20)
(0.884844 0.364892 -1.8034e-20)
(0.893268 0.343991 -2.69023e-20)
(0.902257 0.323415 -9.6056e-20)
(0.128911 0.146253 5.46611e-21)
(0.326571 0.363893 5.50185e-21)
(0.477498 0.514649 4.05123e-21)
(0.586657 0.607593 -5.59997e-21)
(0.662061 0.653953 1.7192e-20)
(0.712305 0.666199 -1.67614e-20)
(0.74532 0.655988 2.0601e-20)
(0.767554 0.63275 -7.12268e-20)
(0.783624 0.603195 -4.99727e-20)
(0.796448 0.571509 -9.03445e-20)
(0.80766 0.539974 5.56702e-20)
(0.818064 0.509639 -3.34186e-21)
(0.828009 0.480886 -1.22585e-20)
(0.837624 0.453779 -2.49866e-20)
(0.846958 0.428256 -3.53715e-20)
(0.856041 0.404208 1.88559e-20)
(0.864819 0.381566 5.81008e-20)
(0.873239 0.360268 -3.11404e-20)
(0.882257 0.339499 4.00155e-20)
(0.891429 0.31919 1.1187e-19)
(0.124676 0.146945 9.62917e-21)
(0.315619 0.364513 -5.37706e-21)
(0.461656 0.514132 9.75006e-21)
(0.567517 0.605525 2.10767e-20)
(0.641041 0.650368 1.36525e-20)
(0.690556 0.661398 3.95653e-20)
(0.723683 0.650365 -3.09692e-20)
(0.746579 0.626673 -1.81368e-20)
(0.763615 0.596941 -1.5078e-20)
(0.777538 0.565261 5.97739e-20)
(0.789875 0.53383 -1.43581e-19)
(0.801371 0.503647 -5.83086e-20)
(0.812348 0.475064 1.52109e-20)
(0.822928 0.448131 2.10633e-20)
(0.833159 0.422781 7.25636e-20)
(0.843068 0.398902 -9.9594e-20)
(0.852599 0.376427 2.89193e-20)
(0.861722 0.355283 1.69942e-20)
(0.871328 0.334703 -2.37997e-20)
(0.880815 0.314734 -8.41298e-20)
(0.120304 0.147333 5.82883e-21)
(0.304411 0.364417 -3.15032e-20)
(0.445546 0.512664 2.36792e-21)
(0.548166 0.602405 2.56309e-20)
(0.619893 0.645725 -3.05263e-20)
(0.668761 0.655588 -6.11589e-20)
(0.702068 0.643807 8.64335e-21)
(0.725671 0.61974 4.18019e-20)
(0.743701 0.589906 1.02861e-19)
(0.758738 0.558295 -1.03589e-19)
(0.772204 0.527025 8.68129e-20)
(0.784792 0.497045 1.03296e-19)
(0.796801 0.468678 8.27406e-20)
(0.808343 0.441962 5.94364e-20)
(0.819468 0.416824 -1.25897e-19)
(0.830201 0.393154 -1.30425e-21)
(0.840488 0.370884 -3.26805e-20)
(0.850314 0.349935 1.24039e-19)
(0.860517 0.329589 -5.082e-21)
(0.870402 0.309987 -5.89112e-20)
(0.115812 0.147413 1.03416e-20)
(0.292983 0.363598 1.29153e-20)
(0.42922 0.510239 2.74004e-21)
(0.528658 0.598231 -1.52804e-20)
(0.59867 0.640026 -1.90314e-20)
(0.646971 0.648773 5.7127e-22)
(0.68052 0.636319 -2.50717e-20)
(0.70487 0.611955 -4.17623e-20)
(0.723917 0.582092 3.40625e-20)
(0.740077 0.550614 8.26382e-20)
(0.754676 0.519562 2.07213e-21)
(0.768355 0.489835 3.46457e-20)
(0.781391 0.461729 -5.33265e-20)
(0.793893 0.435272 -6.55645e-20)
(0.805907 0.410387 1.62442e-19)
(0.817461 0.386964 6.42262e-20)
(0.828506 0.364937 -6.53467e-20)
(0.839036 0.344219 -7.37499e-20)
(0.849847 0.324147 -8.17426e-20)
(0.860181 0.304925 -7.33137e-21)
(0.111217 0.14718 -5.80485e-20)
(0.281376 0.36205 -1.19168e-20)
(0.412728 0.506855 -2.66088e-20)
(0.509049 0.593006 -5.08145e-20)
(0.577428 0.633275 8.61371e-20)
(0.625235 0.640958 -7.26596e-20)
(0.659082 0.627907 1.02971e-19)
(0.684215 0.603323 -5.53451e-22)
(0.704299 0.573503 -3.18213e-20)
(0.721589 0.542223 2.65119e-20)
(0.737319 0.511445 1.92265e-20)
(0.752085 0.48202 -9.59757e-20)
(0.766143 0.454221 9.94123e-20)
(0.779599 0.428065 5.97046e-20)
(0.792498 0.403472 -2.27237e-20)
(0.804871 0.380334 -4.33627e-20)
(0.816671 0.358584 3.72986e-20)
(0.827906 0.338134 -6.34279e-20)
(0.839335 0.318368 -8.68727e-20)
(0.850152 0.299537 8.18844e-20)
(0.106536 0.146631 8.26787e-20)
(0.269627 0.359771 -4.77759e-20)
(0.39612 0.502511 -2.53506e-20)
(0.489394 0.586732 3.16473e-20)
(0.556218 0.625478 9.3803e-21)
(0.603603 0.632152 2.65166e-20)
(0.637798 0.618577 2.66408e-20)
(0.663747 0.593852 7.24268e-20)
(0.68488 0.564147 8.54704e-20)
(0.703304 0.533127 -8.03679e-20)
(0.720162 0.502678 9.66525e-20)
(0.736008 0.473605 -1.09395e-19)
(0.751082 0.446157 1.40831e-20)
(0.765484 0.420343 -4.17749e-20)
(0.779262 0.396082 2.96964e-20)
(0.792448 0.373266 2.75368e-20)
(0.805002 0.351828 -1.67522e-20)
(0.816942 0.331677 1.5854e-19)
(0.828995 0.312247 -2.08995e-20)
(0.840317 0.293814 -7.0056e-20)
(0.101785 0.145764 -6.56327e-20)
(0.257776 0.356758 8.38908e-20)
(0.379448 0.49721 -1.71011e-20)
(0.469746 0.579415 -9.3683e-20)
(0.535095 0.616643 6.56653e-20)
(0.582123 0.622362 -2.32469e-20)
(0.616713 0.60834 -8.01692e-20)
(0.643501 0.583551 -1.20728e-20)
(0.665694 0.55403 -1.79454e-19)
(0.685251 0.523333 1.68079e-19)
(0.703233 0.493267 -1.75964e-20)
(0.720151 0.464594 4.56001e-20)
(0.736231 0.437542 5.44184e-20)
(0.751571 0.412112 2.1435e-20)
(0.766221 0.38822 -1.4325e-19)
(0.780214 0.365761 3.18626e-20)
(0.793517 0.344668 2.90789e-20)
(0.80616 0.324849 -9.56991e-20)
(0.818837 0.305781 3.51455e-20)
(0.830681 0.287755 1.32745e-20)
(0.0969826 0.144578 -5.76318e-20)
(0.245863 0.353013 -5.81724e-20)
(0.362761 0.490957 1.14581e-19)
(0.450159 0.571064 8.1326e-20)
(0.51411 0.606781 -6.53638e-20)
(0.560843 0.611602 6.99003e-21)
(0.595868 0.597205 5.15592e-20)
(0.623518 0.572427 1.52758e-20)
(0.646777 0.543161 -2.1858e-21)
(0.667463 0.512848 2.73714e-20)
(0.686558 0.48322 -4.55463e-20)
(0.704538 0.454995 -6.24736e-21)
(0.721614 0.428382 -1.69149e-19)
(0.737881 0.403376 -1.27508e-19)
(0.753393 0.37989 -2.09931e-20)
(0.768186 0.357823 -1.75264e-20)
(0.782233 0.337107 -1.91355e-20)
(0.795575 0.317649 -3.8237e-20)
(0.808874 0.298968 -4.3646e-20)
(0.0921447 0.143072 1.39958e-20)
(0.233925 0.348538 1.30616e-19)
(0.34611 0.483757 -5.21838e-20)
(0.430686 0.561688 -7.86066e-20)
(0.493313 0.595904 -6.66475e-21)
(0.539808 0.599882 1.0807e-19)
(0.575305 0.585186 -1.09718e-19)
(0.603832 0.560494 2.15906e-20)
(0.628159 0.531551 -1.59911e-20)
(0.649968 0.501682 -1.61917e-19)
(0.670166 0.472543 -1.50337e-19)
(0.689195 0.444813 2.72533e-20)
(0.707254 0.418684 2.33299e-19)
(0.724437 0.39414 3.40584e-20)
(0.7408 0.371099 9.01094e-20)
(0.756384 0.349458 -1.37992e-19)
(0.771167 0.329149 -3.21057e-20)
(0.7852 0.310082 1.5725e-19)
(0.799117 0.291811 6.86569e-20)
(0.0872889 0.141246 5.0045e-20)
(0.222 0.343338 4.84118e-20)
(0.329542 0.475621 -1.17324e-19)
(0.411378 0.5513 -4.85535e-21)
(0.472755 0.584027 -4.86476e-20)
(0.519066 0.587219 -6.50253e-20)
(0.555065 0.572296 2.0429e-20)
(0.584482 0.547764 -6.04891e-20)
(0.609875 0.51921 1.13844e-19)
(0.632796 0.489843 -6.95316e-20)
(0.654084 0.461247 4.99407e-20)
(0.674146 0.434059 1.12092e-19)
(0.693174 0.408454 -7.52875e-20)
(0.711259 0.384413 1.87514e-20)
(0.728461 0.361851 8.95131e-20)
(0.744824 0.340669 1.10761e-19)
(0.760334 0.320799 -5.68999e-20)
(0.775051 0.302149 -3.19571e-20)
(0.789578 0.284312 4.80678e-20)
(0.0824323 0.139103 -1.18177e-19)
(0.210129 0.33742 4.28107e-20)
(0.313106 0.46656 1.33549e-19)
(0.392288 0.539916 1.53743e-20)
(0.452485 0.571166 -1.86729e-20)
(0.498661 0.573628 -3.24111e-20)
(0.535188 0.558551 -1.71632e-20)
(0.565501 0.534251 7.45417e-20)
(0.591955 0.506152 -1.08326e-19)
(0.615976 0.477345 2.51822e-19)
(0.638337 0.449341 1.0337e-19)
(0.659417 0.422741 -3.38195e-20)
(0.679396 0.397703 -1.0525e-20)
(0.698368 0.374202 4.36097e-20)
(0.716395 0.352154 -1.18842e-19)
(0.733525 0.331463 9.62961e-21)
(0.74975 0.31206 -7.39727e-20)
(0.765141 0.293855 -3.22764e-20)
(0.0775919 0.136645 -2.28965e-20)
(0.198347 0.330791 -1.3832e-19)
(0.29685 0.456587 9.445e-20)
(0.373463 0.527551 -1.40209e-20)
(0.43255 0.557339 7.14018e-20)
(0.478636 0.559128 2.41519e-20)
(0.515714 0.543968 -3.89749e-21)
(0.546927 0.51997 5.05236e-20)
(0.574432 0.49239 -3.01584e-20)
(0.599537 0.4642 -9.11682e-20)
(0.622952 0.436838 9.76616e-20)
(0.64503 0.41087 1.02513e-19)
(0.665943 0.386438 -2.73538e-22)
(0.685785 0.363515 -2.25546e-20)
(0.704621 0.342016 -1.24989e-20)
(0.722503 0.321848 9.18612e-20)
(0.739431 0.302941 8.07618e-20)
(0.755483 0.285207 2.22744e-20)
(0.0727844 0.133876 1.09442e-19)
(0.186691 0.323462 1.5614e-19)
(0.28082 0.445718 -8.88761e-20)
(0.354954 0.514225 -6.62109e-21)
(0.412997 0.542566 -1.25032e-19)
(0.459035 0.543739 7.65428e-20)
(0.496679 0.528565 -3.01936e-20)
(0.528791 0.504939 -5.81017e-20)
(0.557335 0.47794 -2.16629e-20)
(0.583506 0.450421 -3.17671e-21)
(0.607954 0.42375 -2.13182e-19)
(0.631009 0.398457 -2.65422e-19)
(0.652836 0.374672 -4.03203e-20)
(0.673528 0.352363 8.91184e-20)
(0.693156 0.331447 -3.44093e-20)
(0.711775 0.311831 -1.72357e-19)
(0.729392 0.293448 1.59244e-19)
(0.746092 0.276211 2.25233e-20)
(0.0680265 0.130799 -1.79759e-19)
(0.175199 0.315445 5.95668e-20)
(0.265062 0.43397 -4.93287e-20)
(0.336808 0.499959 6.60821e-20)
(0.393872 0.52687 1.24949e-19)
(0.439897 0.527481 -7.76818e-20)
(0.478122 0.512362 1.41051e-19)
(0.511128 0.489175 -4.79428e-20)
(0.540695 0.462818 7.14673e-20)
(0.56791 0.436023 1.33789e-19)
(0.593368 0.41009 7.1708e-20)
(0.617377 0.385515 2.96223e-19)
(0.640095 0.362415 1.33534e-19)
(0.661619 0.340755 -1.07671e-20)
(0.682019 0.320454 -6.74942e-21)
(0.701357 0.301421 2.19293e-20)
(0.719646 0.28359 -1.7615e-19)
(0.736978 0.266875 -9.27194e-20)
(0.0633346 0.12742 9.97321e-20)
(0.163906 0.306755 -2.82029e-20)
(0.249621 0.421364 -1.2771e-19)
(0.319071 0.484776 -1.15629e-19)
(0.375219 0.510274 -2.06336e-20)
(0.421265 0.510378 1.50312e-20)
(0.460078 0.495381 -1.79814e-19)
(0.493969 0.472698 1.33288e-19)
(0.524541 0.447042 -6.0557e-20)
(0.552775 0.421023 -1.3691e-19)
(0.579218 0.395873 -3.2608e-20)
(0.604156 0.372057 -1.22374e-19)
(0.627743 0.34968 -2.50437e-19)
(0.650074 0.328705 2.10827e-20)
(0.671227 0.30905 1.91775e-19)
(0.691265 0.290629 -8.23575e-20)
(0.71021 0.273376 9.86641e-20)
(0.0587247 0.123745 -1.7593e-20)
(0.152847 0.297405 -2.36847e-19)
(0.234538 0.40792 2.35278e-19)
(0.301787 0.468701 -5.76311e-20)
(0.35708 0.492804 8.10897e-20)
(0.403176 0.492455 4.724e-20)
(0.442582 0.477644 1.90905e-19)
(0.477346 0.455529 -2.26623e-19)
(0.5089 0.43063 1.753e-19)
(0.538128 0.405437 1.37262e-19)
(0.565528 0.381115 -3.88783e-20)
(0.591368 0.358099 -2.02343e-20)
(0.615797 0.336481 7.29233e-20)
(0.638914 0.316222 -1.23517e-19)
(0.660797 0.297245 -1.6241e-19)
(0.681515 0.279464 6.06394e-20)
(0.701095 0.262814 -6.04836e-20)
(0.0542124 0.11978 -1.75178e-20)
(0.142055 0.287414 7.77305e-20)
(0.219857 0.393663 8.67335e-20)
(0.285001 0.451759 -1.49254e-19)
(0.339497 0.474486 7.54324e-20)
(0.385668 0.473737 -1.9132e-19)
(0.425668 0.459176 -1.50633e-20)
(0.461289 0.437689 1.09683e-20)
(0.4938 0.413603 -1.84213e-20)
(0.523992 0.389284 -1.72411e-19)
(0.552321 0.365833 -7.51468e-21)
(0.579034 0.343655 -2.70919e-20)
(0.604279 0.322831 1.60552e-19)
(0.628155 0.303322 -4.90947e-20)
(0.650745 0.285052 -1.3783e-20)
(0.672121 0.267939 7.99088e-20)
(0.692317 0.251917 2.29272e-19)
(0.0498131 0.115534 -3.29487e-20)
(0.131564 0.276801 -1.92774e-20)
(0.205617 0.378618 -9.52007e-20)
(0.268754 0.43398 5.70053e-20)
(0.322509 0.45535 1.53956e-19)
(0.368778 0.454252 -8.24973e-20)
(0.409368 0.440001 -1.30725e-19)
(0.445827 0.419202 1.26296e-19)
(0.479267 0.395981 -4.14299e-20)
(0.510393 0.372584 1.13035e-19)
(0.539617 0.350045 5.07327e-20)
(0.567174 0.328741 -2.91162e-20)
(0.593206 0.308746 -1.09181e-19)
(0.617814 0.290019 1.33025e-19)
(0.641087 0.272484 -3.27177e-20)
(0.663097 0.256065 -1.4033e-19)
(0.683888 0.240696 -4.72872e-20)
(0.0455416 0.111015 6.38523e-20)
(0.121405 0.265585 2.28647e-20)
(0.191859 0.362812 -1.80027e-20)
(0.253087 0.415394 -4.99743e-20)
(0.306155 0.435425 -3.64436e-20)
(0.35254 0.434028 2.04701e-19)
(0.393714 0.420147 3.61823e-20)
(0.430988 0.400092 9.58802e-20)
(0.465327 0.377788 6.98291e-20)
(0.497353 0.355356 -1.87143e-19)
(0.52744 0.33377 -9.61983e-20)
(0.555808 0.313376 1.75226e-19)
(0.582596 0.294242 -5.60039e-21)
(0.607909 0.276326 -1.37476e-19)
(0.631837 0.259555 3.46236e-20)
(0.654458 0.243854 1.63875e-19)
(0.0414122 0.106232 7.3176e-20)
(0.111608 0.253788 -9.35913e-20)
(0.178619 0.346274 -4.12543e-20)
(0.238039 0.396032 -9.01659e-21)
(0.290472 0.414744 -1.17335e-19)
(0.336987 0.413097 -6.09239e-20)
(0.378735 0.399641 -2.50556e-20)
(0.416799 0.380385 -1.91487e-19)
(0.452003 0.359045 -1.42663e-19)
(0.484894 0.337623 1.85665e-19)
(0.515808 0.317026 1.00937e-19)
(0.544953 0.297578 -7.75371e-20)
(0.572467 0.279337 -8.80279e-20)
(0.598456 0.26226 9.34641e-20)
(0.623012 0.24628 -5.19881e-20)
(0.646218 0.231322 7.35517e-20)
(0.0374388 0.101195 8.8541e-20)
(0.102205 0.241434 -1.39375e-19)
(0.165935 0.329035 3.95763e-20)
(0.223646 0.375928 6.8011e-20)
(0.275494 0.39334 -5.34944e-22)
(0.322152 0.391488 -8.16965e-20)
(0.364459 0.378512 7.00343e-20)
(0.403286 0.360107 2.54443e-20)
(0.43932 0.339779 -7.43466e-20)
(0.473038 0.319405 4.8628e-20)
(0.504742 0.299835 -1.26705e-19)
(0.53463 0.281365 -2.7639e-20)
(0.562836 0.264046 1.11299e-19)
(0.589468 0.247838 3.88688e-20)
(0.614624 0.232672 5.99555e-20)
(0.638388 0.218481 -1.11296e-19)
(0.0336348 0.0959153 -8.88528e-20)
(0.0932215 0.228547 -3.53267e-20)
(0.153839 0.311125 6.86153e-20)
(0.209944 0.355116 -1.39209e-19)
(0.261255 0.371246 -6.63411e-20)
(0.308064 0.369234 1.41457e-19)
(0.350915 0.35679 2.19955e-19)
(0.390473 0.339285 6.13467e-20)
(0.4273 0.320012 8.18087e-20)
(0.461804 0.300727 -1.1313e-21)
(0.494261 0.282218 3.7402e-20)
(0.524853 0.264757 1.28498e-19)
(0.553717 0.24839 -1.85528e-20)
(0.580962 0.233075 -2.21212e-19)
(0.606687 0.21875 1.91805e-21)
(0.630982 0.205348 1.20112e-20)
(0.0300127 0.0904036 2.78499e-20)
(0.0846857 0.215153 -7.00711e-20)
(0.142365 0.29258 2.42493e-19)
(0.196966 0.333632 1.1944e-21)
(0.247786 0.348499 8.78153e-20)
(0.294753 0.34637 8.4374e-20)
(0.338128 0.334507 -8.19762e-20)
(0.378382 0.317948 9.52744e-21)
(0.415962 0.299773 -5.12311e-20)
(0.451213 0.281613 1.248e-20)
(0.484381 0.264197 -1.4517e-21)
(0.515641 0.247775 -5.74693e-20)
(0.545127 0.232387 -2.5242e-20)
(0.572951 0.217991 1.47001e-19)
(0.599215 0.204528 -1.08151e-19)
(0.62401 0.191936 7.105e-20)
(0.0265847 0.0846722 -5.97422e-20)
(0.0766228 0.201279 -6.51664e-20)
(0.131544 0.273433 -3.53368e-20)
(0.184744 0.311515 8.15132e-20)
(0.235118 0.325136 -6.80202e-20)
(0.282246 0.32293 -1.1703e-19)
(0.326122 0.311694 -6.93702e-20)
(0.367038 0.296126 -1.31585e-19)
(0.405328 0.279087 1.05415e-19)
(0.441282 0.262087 -8.44255e-20)
(0.47512 0.245795 1.77359e-20)
(0.507008 0.230441 1.21542e-20)
(0.537079 0.216056 -5.19273e-20)
(0.565448 0.202603 5.92006e-20)
(0.592218 0.190024 8.76625e-20)
(0.0233621 0.0787336 1.29504e-19)
(0.0690568 0.186954 1.2884e-19)
(0.121405 0.253721 -9.54352e-20)
(0.173307 0.288802 -7.96903e-20)
(0.223277 0.301195 2.18194e-20)
(0.270567 0.29895 4.64378e-20)
(0.31492 0.288384 -1.58463e-19)
(0.356458 0.273849 2.52993e-20)
(0.395416 0.257983 -1.02819e-19)
(0.432029 0.242174 8.55536e-20)
(0.466493 0.227037 2.0004e-20)
(0.498969 0.212775 -8.90551e-20)
(0.529587 0.199419 -1.97648e-20)
(0.558465 0.18693 4.60811e-20)
(0.585709 0.175256 2.13431e-20)
(0.0203556 0.072601 -5.97029e-20)
(0.0620101 0.172207 1.50705e-20)
(0.111975 0.233482 1.78153e-19)
(0.162685 0.265534 9.74401e-20)
(0.212292 0.276715 6.39273e-20)
(0.259742 0.274467 1.18399e-19)
(0.304544 0.264612 1.61113e-20)
(0.346664 0.251147 1.09955e-20)
(0.386244 0.236489 -7.14167e-22)
(0.423469 0.221903 -1.09397e-19)
(0.458516 0.207945 5.62298e-20)
(0.491537 0.194802 -8.87039e-20)
(0.522664 0.182495 5.7422e-20)
(0.552014 0.170992 -9.04579e-20)
(0.579698 0.160242 -5.21936e-20)
(0.0175753 0.0662882 -1.28138e-20)
(0.0555037 0.157069 8.67047e-20)
(0.10328 0.212753 -1.01096e-19)
(0.152901 0.241752 -4.49465e-20)
(0.202185 0.251735 3.95929e-20)
(0.249791 0.249518 -8.7259e-20)
(0.295013 0.240411 6.49086e-20)
(0.337673 0.228053 8.98434e-21)
(0.377827 0.214634 5.24119e-20)
(0.415618 0.201298 -1.87362e-21)
(0.451202 0.188546 -4.94779e-20)
(0.484726 0.176543 4.78079e-20)
(0.516321 0.165308 -1.20743e-19)
(0.546107 0.154809 1.65365e-19)
(0.574195 0.145001 6.20671e-20)
(0.0150304 0.0598095 -3.69831e-20)
(0.0495569 0.141569 -3.797e-20)
(0.0953425 0.191575 -5.54246e-20)
(0.143981 0.217497 6.30938e-20)
(0.192979 0.226298 -3.39005e-20)
(0.240735 0.224142 -1.6422e-20)
(0.286346 0.215818 -3.25568e-20)
(0.329502 0.204599 -4.05755e-20)
(0.370182 0.192448 -1.10454e-19)
(0.408489 0.180388 4.72737e-20)
(0.444563 0.168865 -6.45285e-20)
(0.478546 0.158023 1.16293e-19)
(0.510568 0.147879 7.69999e-20)
(0.540752 0.138402 -1.33285e-19)
(0.569209 0.129551 -1.31545e-19)
(0.0127294 0.0531793 3.73169e-20)
(0.0441874 0.125742 -9.7063e-20)
(0.0881845 0.169988 -6.60858e-21)
(0.135946 0.192813 -8.62136e-20)
(0.184695 0.200445 -9.49228e-20)
(0.232593 0.198378 1.36129e-19)
(0.278559 0.190869 1.84704e-20)
(0.322165 0.180818 6.52688e-20)
(0.363321 0.169962 6.73678e-20)
(0.402095 0.159202 -1.55779e-20)
(0.438612 0.148927 9.05635e-20)
(0.473009 0.139266 -5.23073e-20)
(0.505417 0.130229 -6.65724e-20)
(0.535959 0.121791 1.04113e-19)
(0.564749 0.113912 1.16193e-19)
(0.0106799 0.046413 -3.80183e-20)
(0.0394113 0.10962 8.49165e-20)
(0.0818253 0.148034 -9.0128e-20)
(0.128815 0.167744 5.70409e-20)
(0.177351 0.174219 5.25358e-20)
(0.225381 0.172265 -7.35777e-20)
(0.271667 0.1656 3.37363e-20)
(0.315676 0.156745 3.72627e-20)
(0.357257 0.147207 -1.14855e-19)
(0.396447 0.137767 5.51289e-20)
(0.433358 0.128761 6.09535e-21)
(0.468124 0.120296 5.07958e-20)
(0.500875 0.112383 -6.45216e-20)
(0.531736 0.104997 7.9256e-21)
(0.560822 0.0981041 -4.8854e-21)
(0.00888887 0.0395259 -4.05857e-20)
(0.0352429 0.0932365 5.21354e-20)
(0.076282 0.125754 9.53604e-20)
(0.122607 0.142334 -1.17089e-20)
(0.170963 0.147663 6.44021e-20)
(0.219115 0.145846 -7.96039e-20)
(0.265684 0.140049 1.93822e-20)
(0.310047 0.132412 -6.7349e-20)
(0.352001 0.124214 2.41247e-22)
(0.391555 0.116113 -1.03518e-19)
(0.428812 0.108392 -7.3846e-20)
(0.4639 0.10114 3.87927e-20)
(0.496951 0.0943642 1.00101e-20)
(0.52809 0.0880431 -2.61177e-20)
(0.557436 0.0821475 3.43197e-20)
(0.00736233 0.0325338 3.62391e-20)
(0.0316948 0.0766261 1.17346e-20)
(0.0715697 0.103192 2.88056e-20)
(0.117336 0.116628 -4.24007e-20)
(0.165547 0.12082 -1.90206e-20)
(0.213807 0.11916 -3.53431e-20)
(0.260621 0.114253 3.31665e-21)
(0.305289 0.107856 2.39087e-20)
(0.347562 0.101016 7.25935e-20)
(0.387429 0.0942701 8.71562e-20)
(0.424981 0.0878477 3.31719e-20)
(0.460344 0.0818212 -7.80679e-21)
(0.493652 0.0761952 -1.65278e-20)
(0.525029 0.0709505 -4.08505e-20)
(0.554595 0.0660627 4.85068e-21)
(0.00610549 0.0254529 7.44806e-21)
(0.0287777 0.0598235 -4.96168e-20)
(0.0677017 0.0803914 -6.75046e-20)
(0.113015 0.090672 -2.33855e-21)
(0.161113 0.0937364 -4.88729e-21)
(0.209469 0.0922495 2.36489e-20)
(0.25649 0.0882508 -7.23841e-20)
(0.301411 0.0831117 -2.77757e-20)
(0.34395 0.0776451 -4.64103e-20)
(0.384075 0.0722676 1.83279e-21)
(0.421872 0.0671566 1.48637e-20)
(0.457464 0.0623668 3.25633e-20)
(0.490983 0.0579004 -6.32015e-21)
(0.522557 0.0537417 2.74333e-20)
(0.552305 0.0498702 -1.31961e-20)
(0.0051227 0.0182995 -3.21059e-20)
(0.0265008 0.0428643 1.8649e-20)
(0.0646886 0.0573961 -1.84856e-20)
(0.109656 0.0645126 2.27475e-20)
(0.157674 0.0664559 1.73661e-20)
(0.206111 0.0651561 4.85901e-21)
(0.253297 0.0620813 5.58009e-20)
(0.298422 0.0582139 -1.47382e-20)
(0.341171 0.0541335 1.2882e-20)
(0.381501 0.050136 1.50282e-20)
(0.419491 0.0463464 1.01906e-20)
(0.455264 0.0428024 -2.71611e-20)
(0.48895 0.0395042 3.50751e-20)
(0.520679 0.036439 2.59062e-20)
(0.550571 0.0335912 -1.0003e-20)
(0.00441744 0.0110901 9.86638e-21)
(0.0248712 0.0257842 2.33043e-20)
(0.0625393 0.0342508 -5.18103e-21)
(0.107268 0.0381963 -3.5958e-20)
(0.155236 0.0390241 1.81494e-20)
(0.203738 0.0379222 5.21809e-20)
(0.25105 0.0357834 -4.10343e-20)
(0.296326 0.0331987 -2.30631e-21)
(0.339231 0.0305144 1.01225e-20)
(0.379712 0.0279057 2.2142e-20)
(0.417844 0.0254454 2.01559e-21)
(0.453748 0.0231544 -6.80856e-21)
(0.487557 0.0210308 -1.08741e-20)
(0.519399 0.0190653 -1.12557e-20)
(0.0039923 0.00384138 4.43164e-21)
(0.0238945 0.00861924 -1.21389e-20)
(0.0612603 0.0110001 4.93891e-21)
(0.105857 0.0117701 1.52255e-20)
(0.153807 0.0114865 -8.69565e-21)
(0.202359 0.0105903 -2.67144e-20)
(0.249755 0.00939606 1.26506e-20)
(0.295128 0.00810231 -2.76651e-22)
(0.338133 0.00682119 -3.4962e-20)
(0.378711 0.00560742 2.07691e-20)
(0.416933 0.00448209 -1.37429e-20)
(0.452921 0.00344911 1.06781e-20)
(0.486807 0.00250492 -8.61334e-21)
(0.51872 0.00164339 4.43406e-21)
(0.00384901 -0.00342977 -1.95667e-22)