/*--------------------------------*- C++ -*----------------------------------*\
  =========                 |
  \\      /  F ield         | OpenFOAM: The Open Source CFD Toolbox
   \\    /   O peration     | Website:  https://openfoam.org
    \\  /    A nd           | Version:  7
     \\/     M anipulation  |
\*---------------------------------------------------------------------------*/
FoamFile
{
    version     2.0;
    format      ascii;
    class       volVectorField;
    location    "80";
    object      U;
}
// * * * * * * * * * * * * * * * * * * * * * * * * * * * * * * * * * * * * * //

dimensions      [0 1 -1 0 0 0 0];

internalField   nonuniform List<vector> 
4575
(
(-0.00037103 0.0225376 -1.0048e-21)
(-0.00175608 0.0605397 -5.23373e-21)
(-0.00437298 0.0927671 6.28704e-22)
(-0.000781692 0.0228322 -4.93612e-21)
(-0.00271634 0.0614182 3.99112e-21)
(-0.00556292 0.0942147 -4.63684e-21)
(-0.0012007 0.023041 -3.83499e-20)
(-0.0037031 0.0620854 4.82072e-21)
(-0.00679649 0.0953644 7.28085e-21)
(-0.00162365 0.0231645 6.28604e-20)
(-0.00470638 0.062541 -2.73666e-20)
(-0.00806135 0.0962137 -1.8744e-20)
(-0.00204627 0.023204 -8.37065e-21)
(-0.00571638 0.0627864 1.0823e-19)
(-0.00934526 0.0967622 5.0159e-20)
(-0.00246446 0.0231614 -4.14417e-20)
(-0.0067236 0.0628247 2.57331e-20)
(-0.0106363 0.097012 -4.10301e-20)
(-0.00287414 0.0230392 5.03676e-20)
(-0.00771885 0.0626608 -6.13475e-20)
(-0.0119229 0.0969672 -9.29918e-20)
(-0.00327172 0.022841 8.5141e-21)
(-0.00869346 0.0623007 -3.00843e-20)
(-0.0131941 0.0966343 8.39765e-20)
(-0.00365385 0.0225707 -2.37008e-20)
(-0.00963945 0.0617526 1.65421e-19)
(-0.0144396 0.0960217 -3.63245e-20)
(-0.0184368 0.125267 -4.28587e-20)
(-0.00401754 0.0222327 -7.37767e-20)
(-0.0105495 0.0610258 9.70662e-20)
(-0.0156499 0.0951403 5.39445e-20)
(-0.0197494 0.124404 2.41873e-20)
(-0.00436019 0.0218323 1.34363e-19)
(-0.0114173 0.0601312 -7.44597e-20)
(-0.0168167 0.0940029 2.50613e-20)
(-0.021028 0.123212 9.31138e-20)
(-0.00467969 0.0213749 1.12776e-19)
(-0.0122374 0.059081 -1.37091e-19)
(-0.0179327 0.0926242 -1.41473e-19)
(-0.0222644 0.121706 -6.68509e-20)
(-0.00497437 0.0208666 -1.4045e-19)
(-0.0130055 0.0578884 -1.3118e-19)
(-0.018992 0.0910208 5.38472e-20)
(-0.0234519 0.119903 1.3312e-19)
(-0.00524311 0.0203138 5.88853e-20)
(-0.0137182 0.056568 8.75597e-20)
(-0.0199897 0.0892108 1.05274e-19)
(-0.0245851 0.117821 -1.76015e-19)
(-0.00548528 0.0197233 -3.38963e-20)
(-0.0143734 0.055135 4.1336e-20)
(-0.0209226 0.087214 -8.81322e-20)
(-0.0256595 0.115482 -1.3009e-19)
(-0.00570078 0.019102 1.25062e-19)
(-0.0149701 0.0536054 -1.23788e-19)
(-0.0217887 0.0850511 9.93711e-20)
(-0.0266724 0.112908 1.57217e-19)
(-0.00589006 0.0184569 -5.44056e-20)
(-0.0155085 0.0519957 -3.66204e-20)
(-0.0225872 0.082744 1.0237e-19)
(-0.0276219 0.110122 -1.40647e-19)
(-0.0307588 0.133819 -7.86928e-20)
(-0.00605411 0.0177951 -1.25965e-19)
(-0.01599 0.0503227 1.76326e-19)
(-0.0233191 0.080315 2.4098e-21)
(-0.028508 0.10715 -1.56513e-21)
(-0.0316766 0.130485 1.76687e-19)
(-0.00619445 0.0171238 4.05131e-20)
(-0.0164172 0.0486033 -1.25645e-19)
(-0.0239866 0.0777871 1.19222e-19)
(-0.0293315 0.104018 -1.76164e-19)
(-0.0325423 0.126925 2.15727e-19)
(-0.0063131 0.01645 1.57053e-20)
(-0.0167938 0.0468543 -6.53983e-20)
(-0.0245933 0.0751833 2.08768e-19)
(-0.0300948 0.100752 -2.66324e-19)
(-0.0333559 0.123168 -2.17532e-19)
(-0.00641258 0.0157803 -1.09984e-19)
(-0.0171245 0.0450922 -1.95004e-19)
(-0.0251438 0.0725265 -1.11207e-19)
(-0.030801 0.0973786 1.45279e-19)
(-0.0341182 0.119241 -8.26974e-21)
(-0.0351514 0.137862 2.90841e-20)
(-0.00649581 0.0151215 1.011e-19)
(-0.017415 0.043333 2.54669e-19)
(-0.0256439 0.0698392 -1.90825e-19)
(-0.0314539 0.0939248 -9.10738e-20)
(-0.03483 0.115173 7.52434e-20)
(-0.0358002 0.133319 -1.79477e-19)
(-0.00656612 0.0144795 -1.10948e-19)
(-0.0176716 0.041592 -1.31357e-20)
(-0.0260998 0.0671431 2.70116e-19)
(-0.0320578 0.0904165 2.63968e-19)
(-0.0354916 0.110994 -5.34087e-20)
(-0.0364007 0.128601 -3.34401e-20)
(-0.00662715 0.0138602 7.07212e-20)
(-0.0179014 0.0398834 1.42753e-19)
(-0.0265186 0.0644588 -9.84072e-20)
(-0.032617 0.0868789 -1.20567e-19)
(-0.0361034 0.10673 -1.22992e-19)
(-0.0369473 0.123737 -3.29754e-20)
(-0.00668276 0.0132688 -9.69445e-20)
(-0.0181118 0.0382203 -3.10598e-19)
(-0.0269071 0.0618055 9.70105e-20)
(-0.0331355 0.0833363 5.37594e-21)
(-0.0366641 0.102411 4.02839e-19)
(-0.0374324 0.118758 -2.37036e-19)
(-0.0354431 0.132234 -2.0067e-19)
(-0.00673697 0.0127098 -9.23592e-20)
(-0.0183101 0.0366144 3.65896e-19)
(-0.0272722 0.0592011 -2.75815e-19)
(-0.0336164 0.0798112 -5.55592e-20)
(-0.037171 0.0980618 -9.2364e-20)
(-0.0378454 0.113693 -2.36439e-19)
(-0.0356191 0.126564 2.33152e-19)
(-0.00679381 0.012187 1.30694e-19)
(-0.0185038 0.0350758 -1.60566e-19)
(-0.02762 0.0566611 -1.97675e-19)
(-0.0340615 0.0763246 -1.84754e-19)
(-0.037619 0.0937093 6.09104e-20)
(-0.0381726 0.108573 3.43365e-20)
(-0.035678 0.120781 8.28979e-20)
(-0.00685722 0.0117035 -2.75632e-19)
(-0.0186996 0.0336128 2.14874e-19)
(-0.0279555 0.0541993 2.38722e-19)
(-0.0344706 0.0728952 -1.36625e-19)
(-0.0380002 0.0893769 2.30475e-19)
(-0.0383958 0.103425 2.19788e-19)
(-0.0355895 0.114919 -3.95744e-20)
(-0.0295635 0.123832 -2.16877e-19)
(-0.0069309 0.0112616 -2.16689e-19)
(-0.0189037 0.0322318 -1.97545e-19)
(-0.0282821 0.0518267 1.5383e-19)
(-0.0348414 0.0695396 8.85467e-20)
(-0.0383033 0.0850865 3.5344e-20)
(-0.0384923 0.0982769 -6.41763e-20)
(-0.0353172 0.109009 -4.51815e-20)
(-0.0287394 0.117263 1.01273e-19)
(-0.00701817 0.0108623 1.04918e-19)
(-0.0191207 0.0309368 2.03918e-19)
(-0.0286013 0.049552 -3.62414e-19)
(-0.0351682 0.0662716 -2.73913e-19)
(-0.0385127 0.0808578 1.36497e-19)
(-0.038434 0.0931546 1.27546e-19)
(-0.0348176 0.103083 -2.60867e-19)
(-0.0276034 0.110637 -2.3072e-20)
(-0.0071218 0.0105058 5.02097e-19)
(-0.0193542 0.0297298 -3.43983e-19)
(-0.0289122 0.047381 8.29292e-20)
(-0.0354421 0.0631021 2.65413e-19)
(-0.0386084 0.076708 -2.82696e-19)
(-0.0381869 0.0880822 1.39962e-20)
(-0.0340401 0.0971732 2.08915e-19)
(-0.0260849 0.103992 3.7913e-19)
(-0.0142696 0.108604 3.78279e-19)
(-0.00724389 0.0101914 -4.7544e-19)
(-0.0196057 0.0286105 3.42027e-19)
(-0.0292108 0.0453164 8.2302e-20)
(-0.0356504 0.0600394 -2.62508e-19)
(-0.0385657 0.0726518 1.09343e-19)
(-0.0377111 0.0830816 -5.21313e-20)
(-0.0329265 0.091309 -3.94704e-20)
(-0.0241045 0.0973654 -3.19662e-19)
(-0.0111665 0.101327 -4.98294e-19)
(-0.00738567 0.00991696 3.79695e-19)
(-0.0198746 0.027576 -9.63074e-20)
(-0.0294901 0.0433584 3.23157e-19)
(-0.0357761 0.0570882 7.74176e-20)
(-0.0383545 0.0687008 -1.68404e-19)
(-0.0369605 0.0781723 2.69735e-20)
(-0.0314114 0.0855186 -3.49621e-19)
(-0.0215743 0.090795 1.57033e-19)
(-0.00734072 0.0940928 8.34745e-20)
(0.0113975 0.095534 1.2501e-20)
(-0.00754742 0.00967956 -9.73785e-20)
(-0.0201579 0.0266211 -1.03222e-19)
(-0.0297395 0.0415036 -2.02465e-19)
(-0.0357977 0.0542503 1.46186e-19)
(-0.0379396 0.0648635 2.62354e-19)
(-0.0358829 0.0733712 -3.34416e-19)
(-0.0294225 0.0798283 5.27684e-19)
(-0.0183985 0.0843171 -1.01789e-19)
(-0.00267003 0.0869469 1.447e-20)
(0.0179081 0.087851 -3.43652e-19)
(-0.00772829 0.00947509 2.94066e-20)
(-0.02045 0.0257384 1.00208e-19)
(-0.0299448 0.0397462 1.18759e-19)
(-0.0356897 0.0515241 -9.84122e-20)
(-0.0372808 0.0611451 2.42626e-19)
(-0.0344204 0.0686921 3.21073e-19)
(-0.0268814 0.0742615 4.8597e-21)
(-0.0144752 0.0779658 -4.03455e-19)
(0.00297354 0.0799351 -3.18469e-19)
(0.0256501 0.0803172 3.29877e-19)
(-0.00792624 0.00929857 -1.79354e-19)
(-0.0207428 0.0249185 1.69876e-19)
(-0.0300882 0.0380772 -1.2419e-19)
(-0.0354218 0.0489049 -6.0821e-20)
(-0.0363329 0.0575476 -1.63934e-19)
(-0.0325103 0.0641455 -1.2271e-19)
(-0.0237048 0.0688388 -2.16221e-19)
(-0.00969828 0.0717727 3.52859e-19)
(0.00972147 0.0731008 1.38478e-19)
(0.0347801 0.0729881 -3.35193e-19)
(0.0657302 0.0716091 -4.02848e-19)
(-0.00813806 0.00914423 -1.86129e-20)
(-0.021025 0.0241499 -4.19293e-19)
(-0.0301482 0.0364853 1.00819e-19)
(-0.0349598 0.046385 2.21834e-19)
(-0.0350467 0.0540697 -4.06511e-20)
(-0.0300858 0.0597386 -2.61771e-19)
(-0.0198061 0.0635775 2.84507e-19)
(-0.00395902 0.0657662 3.21532e-19)
(0.0177048 0.0664844 1.21629e-19)
(0.0454517 0.0659166 5.95989e-19)
(0.079572 0.0642528 -2.7384e-19)
(-0.00835936 0.00900555 -1.03549e-19)
(-0.0212828 0.0234196 -3.68591e-20)
(-0.0300997 0.0349568 -3.34316e-19)
(-0.0342658 0.0439539 2.02113e-19)
(-0.0333693 0.0507069 -2.03705e-19)
(-0.027077 0.0554751 -2.04109e-19)
(-0.0150966 0.0584912 -1.83698e-20)
(0.00285097 0.0599712 -3.24562e-19)
(0.0270517 0.0601227 -5.07596e-19)
(0.0578095 0.0591518 1.37055e-19)
(0.0954465 0.057266 1.51856e-19)
(0.140289 0.0546732 -6.3637e-20)
(-0.00858442 0.00887544 3.23254e-19)
(-0.0215 0.0227133 -5.05641e-20)
(-0.0299145 0.0334763 2.94614e-19)
(-0.0332986 0.0415986 -2.98465e-19)
(-0.0312449 0.0474519 4.35253e-19)
(-0.0234121 0.0513556 3.59484e-19)
(-0.00948757 0.0535901 -2.91502e-19)
(0.0108375 0.0544086 -5.35366e-19)
(0.0378833 0.0540483 8.76372e-19)
(0.0719855 0.0527383 2.13571e-19)
(0.113488 0.0507047 -1.64612e-19)
(0.162714 0.0481703 -1.60875e-19)
(-0.00880645 0.00874663 -5.15982e-19)
(-0.0216578 0.022016 3.37581e-19)
(-0.0295617 0.0320267 -4.96664e-19)
(-0.0320143 0.0393042 -2.67024e-19)
(-0.0286159 0.0442947 9.83169e-20)
(-0.0190189 0.0473775 -3.88228e-19)
(-0.00289177 0.0488806 6.00445e-19)
(0.0201015 0.0490954 1.03087e-20)
(0.0503105 0.0482894 -3.2567e-19)
(0.0880943 0.0467159 -2.80993e-19)
(0.133802 0.0446195 -4.95846e-19)
(0.187734 0.0422372 -6.02449e-21)
(0.250078 0.039795 -6.92664e-20)
(-0.00901773 0.0086118 1.83255e-19)
(-0.0217351 0.0213124 -3.36757e-19)
(-0.0290078 0.0305904 4.28416e-19)
(-0.0303669 0.0370546 5.95092e-19)
(-0.0254235 0.0412237 -1.91318e-19)
(-0.0138256 0.0435358 2.45498e-20)
(0.00477467 0.0443664 -5.06162e-19)
(0.0307365 0.0440451 -1.2422e-19)
(0.0644316 0.0428701 -3.8205e-19)
(0.10623 0.041119 4.92029e-19)
(0.156466 0.0390548 4.50653e-19)
(0.215387 0.036926 -7.93505e-20)
(0.28307 0.0349629 -5.91576e-20)
(-0.00920966 0.0084637 4.83245e-20)
(-0.0217093 0.0205873 6.83602e-20)
(-0.0282175 0.0291495 -2.24062e-19)
(-0.0283091 0.0348328 -6.12694e-19)
(-0.0216085 0.0382257 9.82804e-20)
(-0.00776214 0.0398238 2.93513e-19)
(0.0135909 0.0400486 1.32341e-19)
(0.042827 0.0392679 5.60645e-19)
(0.0803294 0.0378104 -3.4773e-19)
(0.126462 0.0359779 -4.46507e-19)
(0.181521 0.0340495 -8.07175e-20)
(0.245664 0.0322821 1.99058e-19)
(0.318815 0.030904 4.32074e-20)
(0.400553 0.0301039 1.8086e-20)
(-0.00937271 0.00829534 -2.38223e-19)
(-0.0215565 0.0198261 1.59122e-20)
(-0.0271542 0.0276866 -4.386e-20)
(-0.0257926 0.032622 5.31125e-19)
(-0.0171124 0.0352874 1.65928e-19)
(-0.000761209 0.0362334 -5.37835e-20)
(0.02363 0.0359267 2.03096e-19)
(0.0564465 0.0347719 1.77633e-19)
(0.0980696 0.0331279 4.24053e-19)
(0.148836 0.0313186 5.13191e-20)
(0.208973 0.0296375 -4.99959e-19)
(0.27851 0.0283446 2.83149e-20)
(0.35717 0.0276583 -3.99634e-19)
(0.444249 0.0277398 -3.40233e-20)
(0.538531 0.0286956 -1.91496e-19)
(-0.00949696 0.00810069 3.89872e-19)
(-0.0212512 0.0190156 2.80451e-19)
(-0.0257801 0.0261852 2.20597e-19)
(-0.0227693 0.030406 -3.03015e-19)
(-0.0118781 0.0323957 2.03927e-19)
(0.00724095 0.0327571 -1.92893e-19)
(0.0349582 0.0319999 -3.01894e-19)
(0.0716571 0.0305644 -4.19253e-19)
(0.1177 0.0288381 -1.82576e-19)
(0.173371 0.027165 3.55727e-19)
(0.238793 0.0258488 3.12479e-19)
(0.313825 0.0251469 4.53951e-19)
(0.397937 0.0252585 4.02222e-19)
(0.490095 0.0263051 -1.21838e-19)
(0.588684 0.0283293 -1.67544e-19)
(-0.00957252 0.00787442 -2.38054e-19)
(-0.0207678 0.0181438 -6.40542e-19)
(-0.0240573 0.0246309 -2.61029e-19)
(-0.0191911 0.0281708 2.78361e-19)
(-0.00584987 0.0295392 8.01434e-20)
(0.016304 0.0293882 1.31859e-19)
(0.0476341 0.0282679 3.46456e-19)
(0.0885084 0.0266527 -3.45403e-19)
(0.139249 0.024956 4.74791e-19)
(0.200059 0.023539 -4.87556e-20)
(0.270917 0.0227105 -6.93192e-19)
(0.351465 0.0227177 -1.30003e-19)
(0.440871 0.0237302 -4.47094e-19)
(0.537724 0.025817 -3.08101e-19)
(0.639987 0.0289433 3.32152e-19)
(0.744959 0.0328544 2.72147e-19)
(-0.00958911 0.00761192 3.16693e-19)
(-0.02008 0.0172007 4.99671e-19)
(-0.0219477 0.0230113 -2.72461e-20)
(-0.0150108 0.0259044 -2.30412e-19)
(0.00102532 0.0267088 -2.54961e-19)
(0.0264827 0.0261222 5.4765e-20)
(0.061708 0.0247326 -4.10445e-19)
(0.107037 0.0230456 3.89312e-19)
(0.162728 0.0214977 -1.51995e-19)
(0.228866 0.0204626 -3.31724e-19)
(0.305248 0.0202479 4.14349e-19)
(0.391247 0.0210813 -1.02129e-19)
(0.485683 0.0230915 -1.85205e-19)
(0.586734 0.0262819 3.41997e-19)
(0.691928 0.0305285 -5.23309e-19)
(0.79818 0.0354732 2.77832e-21)
(0.902285 0.0409995 2.13569e-20)
(-0.0095365 0.00730967 -3.52914e-19)
(-0.019162 0.0161788 -1.39638e-19)
(-0.0194137 0.0213174 2.5113e-19)
(-0.0101825 0.0235984 2.08352e-19)
(0.00879803 0.023899 2.36687e-19)
(0.0378273 0.0229585 -1.36435e-19)
(0.0772222 0.0213993 -1.18527e-19)
(0.127267 0.019755 -5.07713e-20)
(0.188127 0.0184812 -5.41294e-19)
(0.259735 0.0179586 1.00719e-18)
(0.341657 0.018485 1.06949e-20)
(0.432952 0.0202585 1.28156e-19)
(0.532051 0.0233535 1.24049e-19)
(0.636698 0.0276952 2.54358e-19)
(0.743995 0.0330607 4.42806e-19)
(0.850525 0.0389902 2.53448e-19)
(0.952868 0.0452285 2.72671e-19)
(-0.00940463 0.0069653 8.88374e-20)
(-0.0179881 0.0150731 -7.46848e-20)
(-0.0164182 0.0195433 1.882e-19)
(-0.00466168 0.0212484 -2.84788e-19)
(0.0175158 0.0211084 -3.51196e-20)
(0.0503823 0.0199004 1.30849e-19)
(0.09421 0.0182773 1.57281e-19)
(0.149209 0.0167966 -1.36527e-19)
(0.215419 0.0159278 3.94549e-19)
(0.292581 0.0160511 -4.10286e-19)
(0.379984 0.0174453 1.9161e-19)
(0.476329 0.0202657 -3.65939e-19)
(0.579624 0.0245193 3.73558e-19)
(0.68717 0.0300407 3.17286e-19)
(0.795679 0.0365011 -5.85897e-19)
(0.901477 0.0433436 -5.4007e-19)
(1.00105 0.0501923 -1.98103e-19)
(1.09081 0.0554307 -1.71875e-19)
(-0.00918372 0.00657757 5.59611e-19)
(-0.0165332 0.0138811 -3.22703e-19)
(-0.0129255 0.0176869 -4.57997e-19)
(0.00159422 0.0188542 -1.91573e-19)
(0.0272229 0.0183409 -2.97097e-19)
(0.0641867 0.016957 -3.49081e-20)
(0.112696 0.0153816 5.24995e-19)
(0.17286 0.0141911 2.66794e-19)
(0.24456 0.0138625 4.20366e-19)
(0.327298 0.0147666 1.16624e-19)
(0.420045 0.0171512 3.24768e-19)
(0.521099 0.0211154 -3.75027e-19)
(0.628028 0.0265844 1.57422e-19)
(0.737702 0.033291 -2.58122e-19)
(0.846493 0.0407974 2.91173e-19)
(0.950572 0.0484578 6.42339e-19)
(1.04646 0.0557992 -5.47053e-20)
(1.13096 0.0613421 4.1228e-19)
(1.2033 0.0671713 -1.48648e-19)
(-0.00886431 0.00614634 -2.9107e-19)
(-0.0147726 0.0126034 2.85833e-21)
(-0.00890056 0.0157503 2.31133e-19)
(0.00862582 0.016421 4.63941e-20)
(0.03796 0.0156057 5.69107e-19)
(0.079274 0.014143 -7.41362e-20)
(0.132696 0.0127328 -4.48519e-19)
(0.198205 0.0119645 -3.34415e-19)
(0.275485 0.0123142 -4.8453e-19)
(0.363757 0.0141328 -4.79517e-19)
(0.461627 0.0176238 -5.72178e-19)
(0.566963 0.0228149 6.25077e-19)
(0.676879 0.0295352 2.78447e-19)
(0.787849 0.0374077 -3.88784e-20)
(0.895985 0.0458858 -7.94611e-20)
(0.99741 0.0542476 9.52064e-20)
(1.08882 0.0619504 2.7711e-19)
(1.16749 0.067659 1.65164e-19)
(1.23294 0.0731205 1.35165e-19)
(1.28094 0.0708909 4.30503e-20)
(-0.00843728 0.00567253 -1.02094e-19)
(-0.0126829 0.011243 5.93776e-20)
(-0.00431014 0.0137395 8.52994e-20)
(0.0164713 0.0139587 2.22837e-19)
(0.0497638 0.0129182 -1.71352e-19)
(0.0956709 0.0114795 4.36442e-20)
(0.154215 0.0103578 4.6139e-19)
(0.225213 0.0101478 5.10548e-20)
(0.308111 0.0113155 -2.30249e-21)
(0.401806 0.0141789 6.58661e-20)
(0.504497 0.018882 3.38803e-19)
(0.613599 0.0253653 -4.78805e-19)
(0.725786 0.0333494 -5.23746e-19)
(0.837187 0.0423419 -2.87519e-19)
(0.943745 0.0516934 -3.54827e-19)
(1.04166 0.0606222 -4.28009e-19)
(1.12794 0.0685458 -5.96195e-20)
(1.20038 0.0742777 -2.78732e-19)
(1.25893 0.0793111 6.21613e-19)
(1.30092 0.0772685 -3.21009e-19)
(-0.00789389 0.00515809 5.2407e-19)
(-0.0102413 0.0098059 -1.28367e-19)
(0.000877618 0.0116647 -1.84481e-19)
(0.0251664 0.0114829 9.37379e-20)
(0.062667 0.0102996 4.58303e-20)
(0.113397 0.00899402 -1.3275e-19)
(0.177248 0.00828937 -3.88311e-20)
(0.25384 0.00877739 -7.90174e-20)
(0.342338 0.0109018 2.35444e-19)
(0.441271 0.0149337 5.78873e-19)
(0.5484 0.0209408 1.8559e-19)
(0.660678 0.0287609 5.56651e-19)
(0.774364 0.0379955 2.3039e-19)
(0.885315 0.0480357 3.22227e-19)
(0.989418 0.0581405 3.7259e-19)
(1.08307 0.067489 -3.72403e-20)
(1.16369 0.0754888 -9.84023e-20)
(1.22969 0.0811061 6.81903e-22)
(1.28146 0.0856526 6.97899e-20)
(1.31763 0.0836718 1.6896e-19)
(-0.00722572 0.00460588 -2.36157e-19)
(-0.00742602 0.00830061 3.51128e-20)
(0.00669276 0.00954024 -2.56522e-19)
(0.0347436 0.00901403 -3.58699e-19)
(0.0766969 0.00777718 -1.52719e-19)
(0.132466 0.00672001 -1.62976e-20)
(0.201781 0.00656604 2.04622e-19)
(0.284027 0.00789346 -1.65514e-19)
(0.378046 0.0111105 3.34629e-20)
(0.48196 0.0164246 -3.69833e-20)
(0.593067 0.0238102 -4.83698e-19)
(0.707861 0.0329879 -7.57442e-19)
(0.822239 0.0434328 -1.15132e-19)
(0.931872 0.0544237 -2.54367e-19)
(1.03271 0.065144 -2.44088e-19)
(1.12147 0.0747572 -4.40464e-20)
(1.19606 0.0826903 -1.61301e-19)
(1.25553 0.0880652 -1.01027e-19)
(1.30075 0.092072 -3.04259e-19)
(1.33139 0.0900398 -5.25514e-21)
(-0.00642466 0.0040196 -2.3033e-19)
(-0.00421643 0.00673808 4.93687e-19)
(0.0131634 0.00738433 3.05108e-19)
(0.0452321 0.00657777 1.35061e-19)
(0.0918757 0.00538372 -4.82585e-20)
(0.15288 0.00469662 -3.13411e-19)
(0.227784 0.00523099 -2.05788e-19)
(0.315697 0.00753932 -1.00673e-19)
(0.415096 0.0119789 -1.48263e-19)
(0.523662 0.0186759 -5.3038e-19)
(0.638213 0.0274941 3.93709e-19)
(0.754813 0.0380243 2.57509e-19)
(0.869057 0.0496125 4.13548e-19)
(0.976538 0.0614349 1.20018e-19)
(1.07338 0.0726198 6.69526e-20)
(1.15673 0.0823407 2.48315e-20)
(1.22506 0.0900709 -2.64902e-20)
(1.27806 0.0950901 -9.10255e-20)
(1.31706 0.0985135 -1.01338e-19)
(1.34254 0.0963349 -3.07826e-19)
(-0.00548291 0.00340371 4.09793e-20)
(-0.000592914 0.00513151 -7.46974e-20)
(0.0203153 0.00521868 5.43569e-20)
(0.0566573 0.00420419 -1.29701e-19)
(0.108219 0.00315705 2.72115e-19)
(0.174635 0.00296775 4.8808e-19)
(0.255216 0.00433109 1.49593e-19)
(0.348758 0.00775983 4.14212e-19)
(0.453332 0.0135431 -2.18439e-19)
(0.566148 0.0217073 5.72196e-19)
(0.683549 0.0319889 1.05157e-19)
(0.801205 0.0438396 2.51436e-19)
(0.914495 0.0564788 -4.54032e-19)
(1.01904 0.068995 -1.62546e-19)
(1.11128 0.0804857 1.67201e-19)
(1.18884 0.0901604 3.2575e-19)
(1.25081 0.0975625 2.23031e-19)
(1.29749 0.10213 -9.85182e-20)
(1.33065 0.104937 4.09354e-19)
(1.35138 0.102537 1.36176e-19)
(-0.0043929 0.00276335 -1.38015e-19)
(0.00346294 0.00349621 -3.12806e-19)
(0.0281719 0.00306836 -2.3443e-19)
(0.0690401 0.00192754 7.24494e-20)
(0.125736 0.00113936 -3.8796e-19)
(0.197714 0.00158116 -4.78768e-19)
(0.284023 0.00391564 -6.37239e-20)
(0.383102 0.00859991 -1.46417e-19)
(0.49258 0.0158363 5.1753e-19)
(0.609179 0.0255323 -1.35874e-19)
(0.728782 0.0372828 -3.98696e-19)
(0.846723 0.0503953 -6.4999e-19)
(0.958262 0.0639704 3.50652e-19)
(1.05917 0.0770286 3.27008e-19)
(1.14628 0.0886638 -8.73108e-20)
(1.2178 0.0981462 -1.7142e-19)
(1.27343 0.105109 6.99054e-20)
(1.31406 0.109146 -9.7912e-20)
(1.34181 0.111315 -1.91232e-20)
(1.35823 0.108638 2.47973e-19)
(-0.00314736 0.00210431 -1.06428e-19)
(0.00796824 0.00184936 -8.07625e-20)
(0.0367537 0.000961322 3.60812e-19)
(0.0823967 -0.000214397 -2.21077e-19)
(0.144428 -0.00062359 5.65685e-19)
(0.222091 0.00058738 2.3628e-19)
(0.314135 0.00403494 -1.53921e-19)
(0.418602 0.0101029 -2.61138e-19)
(0.53265 0.018887 -4.12868e-19)
(0.652505 0.0301575 1.7431e-19)
(0.773623 0.043356 3.6066e-20)
(0.891075 0.0576458 2.16582e-19)
(1.00011 0.0720222 4.25649e-19)
(1.09676 0.0854619 -2.42452e-19)
(1.17835 0.0970823 8.73541e-20)
(1.2437 0.106238 -3.12112e-19)
(1.29311 0.112665 -9.68036e-20)
(1.328 0.116112 -7.8125e-20)
(1.3508 0.117633 -4.56324e-20)
(1.36336 0.114643 -3.40488e-19)
(-0.00173926 0.00143293 2.09231e-19)
(0.0129386 0.000209837 3.31569e-19)
(0.046078 -0.00107188 1.32447e-20)
(0.0967373 -0.00218086 2.02814e-19)
(0.164286 -0.00208335 -4.85541e-19)
(0.247727 3.85077e-05 1.163e-19)
(0.345468 0.00473888 -7.52475e-20)
(0.455118 0.012309 -1.46494e-20)
(0.57334 0.0227179 -1.40705e-19)
(0.695872 0.0355816 -3.06541e-19)
(0.817791 0.0501806 -7.43292e-20)
(0.933995 0.0655398 1.97576e-19)
(1.03983 0.0805674 -5.84872e-19)
(1.13171 0.0942237 1.51255e-19)
(1.20749 0.105677 -4.49903e-20)
(1.26664 0.114384 2.64326e-19)
(1.31005 0.120198 4.9888e-19)
(1.33958 0.123012 1.69279e-21)
(1.35789 0.123883 -8.4944e-20)
(1.36702 0.120558 -1.12464e-19)
(-0.000161913 0.000756098 -3.76356e-20)
(0.018388 -0.00140193 -5.00163e-19)
(0.0561586 -0.00299852 -3.8178e-19)
(0.112066 -0.00392875 -2.41106e-20)
(0.185295 -0.00318966 8.50174e-20)
(0.274571 -1.29409e-05 -1.62919e-19)
(0.377923 0.0060756 -8.49856e-22)
(0.492494 0.0152542 5.33378e-20)
(0.614437 0.0273447 7.79411e-20)
(0.739027 0.041795 4.36069e-19)
(0.861023 0.0577214 1.79066e-19)
(0.975251 0.0740214 -4.64963e-20)
(1.07727 0.0895397 5.27954e-20)
(1.16394 0.103248 -6.88942e-20)
(1.23375 0.114391 3.13451e-19)
(1.28679 0.122545 -1.32032e-19)
(1.32447 0.127684 -2.21927e-19)
(1.34904 0.129837 -1.80639e-20)
(1.36332 0.130067 1.38903e-19)
(1.36944 0.126397 1.16444e-20)
(0.00159099 8.12324e-05 6.67855e-20)
(0.0243286 -0.00296416 2.65165e-19)
(0.0670052 -0.00478404 1.6429e-19)
(0.128382 -0.00541324 -2.98247e-19)
(0.207428 -0.00389139 6.34926e-20)
(0.302558 0.000484801 3.83378e-19)
(0.411386 0.00809012 2.07868e-19)
(0.53056 0.0189684 2.73925e-20)
(0.655723 0.0327757 2.49445e-19)
(0.78172 0.0487804 -5.03087e-19)
(0.903073 0.0659371 -1.40148e-19)
(1.01464 0.0830323 -5.93226e-20)
(1.1123 0.0988743 3.47276e-19)
(1.19346 0.112475 -1.05524e-19)
(1.25723 0.123178 -2.92826e-20)
(1.30431 0.130691 -1.87042e-19)
(1.33659 0.135107 -1.54833e-19)
(1.35662 0.136586 -5.27677e-20)
(1.3673 0.136189 -5.73019e-20)
(1.37081 0.132175 -1.59154e-19)
(0.00352528 -0.000583756 -6.22847e-20)
(0.0307703 -0.00445384 -3.7551e-20)
(0.0786234 -0.00639244 -9.60854e-20)
(0.145674 -0.00658842 3.13092e-19)
(0.230649 -0.00413738 2.07751e-19)
(0.331613 0.00158167 -6.58822e-20)
(0.445732 0.0108233 -1.15971e-20)
(0.569138 0.0234755 2.54676e-19)
(0.696974 0.0390111 -3.842e-19)
(0.823711 0.0565128 2.32822e-19)
(0.943721 0.074781 2.36245e-19)
(1.05201 0.0925132 6.23397e-20)
(1.14486 0.10851 -1.23498e-19)
(1.22029 0.121851 1.77744e-19)
(1.27804 0.131998 -4.62309e-19)
(1.31938 0.138797 5.92645e-20)
(1.34663 0.142461 -1.09902e-19)
(1.36254 0.143263 2.7616e-19)
(1.37005 0.142258 5.04879e-19)
(1.37129 0.137908 6.54941e-20)
(0.00564625 -0.00123047 -9.66971e-20)
(0.0377209 -0.00584687 4.15002e-20)
(0.0910136 -0.00778659 2.70906e-19)
(0.163925 -0.00740786 4.44918e-21)
(0.254909 -0.0038773 -4.49758e-19)
(0.361647 0.00332479 -3.06051e-19)
(0.480821 0.0143109 -2.59298e-19)
(0.60804 0.028792 -1.35027e-19)
(0.737972 0.0460436 5.08553e-19)
(0.864774 0.0649605 -2.24441e-20)
(0.982774 0.0842031 6.73876e-20)
(1.08722 0.102405 1.0913e-19)
(1.17491 0.11839 -3.61102e-19)
(1.24448 0.131331 -2.86143e-19)
(1.29632 0.140822 7.59331e-20)
(1.33221 0.146851 3.49219e-19)
(1.3548 0.149744 -2.80338e-20)
(1.36701 0.149875 2.72208e-19)
(1.37174 0.148284 -3.8073e-19)
(1.37105 0.143611 -4.67849e-20)
(0.00795848 -0.00185003 1.23049e-19)
(0.0451851 -0.00711821 1.52581e-19)
(0.104171 -0.0089286 -2.79981e-19)
(0.183111 -0.0078252 -1.51051e-20)
(0.280153 -0.00306242 5.28117e-19)
(0.392558 0.00575761 3.27663e-19)
(0.516504 0.0185826 -1.30475e-19)
(0.647074 0.0349269 1.90435e-19)
(0.778498 0.0538579 -2.01645e-19)
(0.904703 0.0740864 -2.01804e-19)
(1.02007 0.0941512 2.03846e-19)
(1.1202 0.112652 -4.08115e-19)
(1.20246 0.128463 5.11676e-20)
(1.26614 0.140875 1.93119e-19)
(1.31223 0.149625 -1.04451e-19)
(1.34298 0.154843 1.48269e-19)
(1.36131 0.156958 -1.77427e-19)
(1.37022 0.156432 -4.09007e-19)
(1.37253 0.15428 5.29977e-20)
(1.37019 0.149298 1.38862e-19)
(0.0104658 -0.00243311 1.44162e-19)
(0.0531652 -0.00824203 -4.64307e-19)
(0.118087 -0.00978015 7.38002e-20)
(0.203198 -0.00779468 -7.6368e-20)
(0.306311 -0.0016463 -1.86155e-19)
(0.424236 0.00891913 -1.47591e-19)
(0.552625 0.023662 1.31449e-19)
(0.686047 0.0418821 -5.96962e-19)
(0.818348 0.0624322 -1.38334e-19)
(0.943308 0.0838485 8.86381e-20)
(1.05547 0.104572 -1.11188e-19)
(1.15089 0.123199 3.15966e-19)
(1.22753 0.138684 2.19715e-19)
(1.28536 0.150452 7.56083e-20)
(1.32594 0.158392 4.14724e-19)
(1.3519 0.16277 -4.05906e-19)
(1.36635 0.16411 2.47687e-19)
(1.37233 0.162944 3.47293e-19)
(1.37255 0.160256 -3.17286e-20)
(1.36881 0.154981 -2.22216e-19)
(0.0131709 -0.00296995 1.14534e-20)
(0.0616598 -0.00919184 -5.01426e-21)
(0.132744 -0.0103028 3.36032e-19)
(0.224146 -0.0072717 -4.78713e-20)
(0.333307 0.00041454 -2.07173e-20)
(0.456559 0.0128433 3.50715e-19)
(0.589019 0.0295656 3.99545e-19)
(0.724767 0.0496517 1.08749e-19)
(0.857325 0.0717383 2.312e-19)
(0.980427 0.0942019 -1.50422e-19)
(1.08888 0.115413 -1.26542e-19)
(1.17926 0.133996 -2.63857e-21)
(1.2502 0.149012 -1.52147e-19)
(1.30229 0.160036 -5.53421e-21)
(1.33761 0.167113 -2.9163e-19)
(1.35914 0.170634 1.14172e-19)
(1.37009 0.171207 2.6524e-19)
(1.3735 0.169424 -1.3254e-19)
(1.37191 0.166224 1.5121e-19)
(1.367 0.160671 2.69976e-19)
(0.0160759 -0.00345039 4.42217e-20)
(0.0706647 -0.00994066 -1.19143e-19)
(0.148122 -0.0104584 -6.93526e-21)
(0.245904 -0.00621328 3.38271e-21)
(0.361054 0.00316006 -2.32777e-19)
(0.489399 0.0175587 -3.27932e-20)
(0.625522 0.0363033 -4.1206e-19)
(0.763047 0.0582231 4.24437e-19)
(0.89525 0.0817428 2.16878e-19)
(1.01592 0.105099 1.92173e-20)
(1.12022 0.126623 -2.06365e-21)
(1.20532 0.144997 -1.10397e-19)
(1.27053 0.159414 6.45026e-20)
(1.31705 0.16961 1.75186e-19)
(1.34742 0.175781 -3.01792e-19)
(1.36487 0.178439 2.27967e-19)
(1.37269 0.17826 -2.72906e-19)
(1.37385 0.175881 -1.22041e-20)
(1.37072 0.172193 1.14126e-21)
(1.36482 0.166377 1.21541e-19)
(0.0191814 -0.00386397 -9.68739e-20)
(0.0801716 -0.0104613 -1.07598e-19)
(0.164193 -0.0102094 1.52822e-19)
(0.268415 -0.00457859 -6.7386e-20)
(0.389455 0.006626 -2.10011e-20)
(0.522619 0.0230878 -2.0411e-19)
(0.661964 0.0438779 2.26415e-19)
(0.800706 0.0675774 -4.02718e-19)
(0.931959 0.0924081 3.64607e-20)
(1.04967 0.116492 6.1022e-20)
(1.14945 0.138153 -3.31586e-20)
(1.22911 0.156161 2.34159e-20)
(1.28863 0.169862 -2.70157e-19)
(1.32979 0.179158 -2.04628e-19)
(1.35553 0.184394 1.70329e-19)
(1.36926 0.18619 -5.44542e-20)
(1.37429 0.185278 -3.24494e-19)
(1.37349 0.182327 -6.16137e-20)
(1.36904 0.178172 -2.67974e-19)
(1.36232 0.172105 -3.29301e-19)
(0.0224868 -0.0042 -2.29341e-20)
(0.0901686 -0.0107268 1.59064e-19)
(0.180923 -0.0095194 1.14417e-19)
(0.291615 -0.00232945 3.3266e-19)
(0.418409 0.0108439 -1.16378e-20)
(0.55608 0.029447 1.74665e-19)
(0.698178 0.0522855 -3.67019e-19)
(0.837574 0.0776895 1.28097e-19)
(0.967309 0.103693 -1.06635e-19)
(1.08158 0.128332 1.53022e-19)
(1.17655 0.149956 3.75137e-20)
(1.25067 0.167453 8.78814e-20)
(1.3046 0.180334 2.50828e-19)
(1.34065 0.188672 3.09884e-20)
(1.36209 0.192954 -1.53794e-19)
(1.37244 0.193895 2.52691e-19)
(1.37501 0.192272 8.86361e-20)
(1.37251 0.18877 -4.1708e-20)
(1.36695 0.184169 2.51635e-19)
(1.35954 0.177862 1.65787e-19)
(0.31543 0.000569066 -4.88044e-20)
(0.447805 0.0158401 5.89026e-20)
(0.589638 0.0366468 -3.4308e-20)
(0.734003 0.0615159 2.08027e-19)
(0.873492 0.0885298 -6.54444e-20)
(1.00117 0.115555 -7.98463e-20)
(1.1116 0.140571 -2.7037e-19)
(1.20151 0.161989 -1.713e-19)
(1.27008 0.178839 -1.57363e-19)
(1.31857 0.190809 -1.27283e-19)
(1.34978 0.198145 4.8438e-20)
(1.36724 0.201464 -9.38262e-20)
(1.37457 0.201563 1.12174e-20)
(1.37496 0.19925 1.76474e-19)
(1.371 0.19522 1.86369e-19)
(1.36449 0.190187 1.34717e-20)
(1.35652 0.183648 1.16027e-19)
(0.623149 0.0446912 -3.5742e-20)
(0.76928 0.0715531 -1.14179e-19)
(0.908315 0.100064 2.72069e-19)
(1.03345 0.127948 -6.79203e-20)
(1.13967 0.153164 -2.40109e-21)
(1.22437 0.174214 1.83883e-19)
(1.2874 0.190292 -1.64161e-19)
(1.33065 0.201276 7.16428e-20)
(1.35732 0.207575 -1.79512e-19)
(1.37114 0.209929 3.01148e-19)
(1.37574 0.209202 -2.2697e-19)
(1.37423 0.206221 -1.3623e-19)
(1.36901 0.201681 -1.43316e-21)
(1.36172 0.196232 -1.98457e-19)
(1.35327 0.189468 -2.35101e-21)
(1.06405 0.140827 -4.86821e-20)
(1.16577 0.166065 8.34276e-20)
(1.24515 0.186594 -1.12364e-19)
(1.30273 0.20179 1.42547e-19)
(1.34096 0.211722 1.36385e-19)
(1.36339 0.216961 3.02753e-20)
(1.37388 0.218354 -8.56906e-20)
(1.37606 0.216819 -2.02526e-20)
(1.3729 0.213193 -1.16961e-19)
(1.36661 0.20816 -4.95899e-20)
(1.35866 0.202306 8.11963e-20)
(1.34982 0.195319 -1.39221e-19)
(1.34963 0.222141 -3.52545e-21)
(1.36811 0.226304 1.26534e-19)
(1.3756 0.226745 -3.60186e-20)
(1.37563 0.224421 2.06047e-19)
(1.37104 0.22017 1.08669e-19)
(1.36384 0.214659 -1.81101e-20)
(1.35533 0.208408 5.94514e-20)
(1.34618 0.201201 2.26797e-19)
(1.37453 0.232014 -1.33262e-20)
(1.36869 0.227157 -1.63431e-19)
(1.36073 0.22118 1.34684e-20)
(1.35176 0.21454 -1.07898e-19)
(1.34235 0.207112 1.04076e-21)
(1.33834 0.213047 -2.25707e-20)
(1.28822 -0.222254 -1.16573e-19)
(1.31844 -0.236793 -4.55208e-20)
(1.31438 -0.233246 4.10463e-21)
(1.30781 -0.228484 1.98374e-20)
(1.29998 -0.22302 -1.00439e-19)
(1.29157 -0.216795 -1.80265e-20)
(1.24817 -0.211415 3.13221e-20)