/*--------------------------------*- C++ -*----------------------------------*\
  =========                 |
  \\      /  F ield         | OpenFOAM: The Open Source CFD Toolbox
   \\    /   O peration     | Website:  https://openfoam.org
    \\  /    A nd           | Version:  7
     \\/     M anipulation  |
\*---------------------------------------------------------------------------*/
FoamFile
{
    version     2.0;
    format      ascii;
    class       volScalarField;
    location    "40";
    object      p;
}
// * * * * * * * * * * * * * * * * * * * * * * * * * * * * * * * * * * * * * //

dimensions      [0 2 -2 0 0 0 0];

internalField   nonuniform List<scalar> 
4575
(
-0.115909
-0.10346
-0.0909825
-0.0786957
-0.0667931
-0.0554611
-0.0448334
-0.0350353
-0.0261497
-0.0182141
-0.0112574
-0.00525598
-0.000199512
0.0039754
0.0073177
0.0099204
0.0118517
0.01322
0.0140938
0.0145779
0.0147269
0.0146265
0.014315
0.0138539
-0.116164
-0.103595
-0.0909966
-0.0785983
-0.0666036
-0.0552035
-0.0445384
-0.0347302
-0.0258603
-0.0179614
-0.0110544
-0.00511232
-0.000116145
0.00400226
0.00729579
0.00986015
0.0117647
0.013118
0.0139875
0.0144762
0.0146365
0.0145522
0.0142588
0.0138164
-0.116443
-0.103755
-0.091036
-0.0785261
-0.0664386
-0.0549696
-0.0442656
-0.0344459
-0.0255899
-0.0177254
-0.010866
-0.00498235
-4.52173e-05
0.00401798
0.007264
0.00979118
0.0116701
0.0130095
0.0138755
0.0143696
0.014542
0.0144741
0.0141994
0.013776
-0.116747
-0.103939
-0.0911005
-0.0784791
-0.0662986
-0.0547602
-0.044016
-0.0341832
-0.0253394
-0.0175076
-0.0106959
-0.00486672
1.28954e-05
0.00402233
0.00722224
0.00971357
0.0115681
0.0128946
0.0137583
0.0142585
0.0144436
0.0143927
0.014137
0.0137328
-0.117073
-0.104148
-0.0911896
-0.0784575
-0.0661841
-0.054576
-0.0437905
-0.0339433
-0.0251099
-0.0173088
-0.0105412
-0.00476726
5.78548e-05
0.00401517
0.00717047
0.00962741
0.011459
0.0127737
0.013636
0.0141431
0.0143415
0.014308
0.0140717
0.0136869
-0.11742
-0.104379
-0.0913029
-0.0784611
-0.0660953
-0.0544176
-0.0435899
-0.0337271
-0.0249024
-0.0171302
-0.0104052
-0.00468352
8.86118e-05
0.00399624
0.00710873
0.00953281
0.0113429
0.012647
0.0135089
0.0140238
0.0142361
0.0142204
0.0140037
0.0136384
-0.117787
-0.104632
-0.09144
-0.0784898
-0.0660325
-0.0542853
-0.043415
-0.0335354
-0.0247178
-0.0169724
-0.0102887
-0.00461564
0.000104288
0.00396432
0.00703675
0.00942968
0.0112196
0.0125146
0.0133772
0.0139007
0.0141275
0.0141301
0.0139331
0.0135875
-0.118173
-0.104906
-0.0916003
-0.0785436
-0.0659959
-0.0541798
-0.0432664
-0.0333691
-0.024557
-0.0168364
-0.0101917
-0.00456485
0.000106492
0.00392031
0.00695341
0.00931779
0.0110899
0.0123769
0.0132411
0.0137741
0.014016
0.014037
0.0138601
0.0135342
-0.118577
-0.1052
-0.0917833
-0.0786221
-0.0659854
-0.0541013
-0.0431446
-0.0332286
-0.0244205
-0.0167227
-0.0101146
-0.00453168
9.36462e-05
0.00386422
0.00686092
0.00919803
0.0109534
0.012234
0.0131009
0.0136442
0.0139016
0.0139415
0.0137847
0.0134786
-0.118997
-0.105514
-0.0919883
-0.0787251
-0.0660013
-0.05405
-0.0430502
-0.0331147
-0.024309
-0.0166319
-0.0100579
-0.00451641
6.53838e-05
0.00379534
0.00675802
0.00907
0.0108104
0.012086
0.0129568
0.0135111
0.0137847
0.0138436
0.0137071
0.0134207
-0.105846
-0.0922147
-0.0788522
-0.0660433
-0.0540262
-0.0429833
-0.0330278
-0.0242231
-0.0165646
-0.0100222
-0.00451936
2.16348e-05
0.00371359
0.00664465
0.00893376
0.010661
0.0119331
0.0128089
0.013375
0.0136652
0.0137435
0.0136272
0.0133606
-0.106195
-0.092462
-0.0790032
-0.0661114
-0.0540299
-0.0429444
-0.0329682
-0.0241631
-0.0165212
-0.0100078
-0.00454079
-3.77142e-05
0.00361898
0.00652096
0.00878942
0.0105054
0.0117756
0.0126575
0.0132361
0.0135432
0.0136411
0.0135452
0.0132982
-0.106561
-0.0927296
-0.0791778
-0.0662056
-0.0540612
-0.0429335
-0.0329362
-0.0241293
-0.0165018
-0.0100148
-0.00458086
-0.000112766
0.0035115
0.00638701
0.0086371
0.0103437
0.0116134
0.0125025
0.0130944
0.013419
0.0135366
0.013461
0.0132336
-0.106942
-0.093017
-0.0793754
-0.0663255
-0.05412
-0.0429507
-0.0329318
-0.0241219
-0.0165067
-0.0100435
-0.00463969
-0.000203563
0.00339118
0.00624286
0.0084769
0.0101761
0.0114467
0.0123441
0.01295
0.0132924
0.0134299
0.0133746
0.0131667
-0.10734
-0.0933235
-0.0795959
-0.066471
-0.0542061
-0.042996
-0.0329553
-0.0241408
-0.016536
-0.0100939
-0.00471727
-0.00031008
0.00325807
0.00608862
0.00830893
0.0100026
0.0112757
0.0121824
0.0128029
0.0131636
0.0133211
0.0132862
0.0130976
-0.107751
-0.0936487
-0.0798387
-0.0666417
-0.0543195
-0.0430694
-0.0330064
-0.0241862
-0.0165896
-0.010166
-0.00481356
-0.000432231
0.00311228
0.0059244
0.00813331
0.00982337
0.0111004
0.0120174
0.0126533
0.0130325
0.0132101
0.0131955
0.0130261
-0.108177
-0.093992
-0.0801035
-0.0668375
-0.0544599
-0.0431705
-0.033085
-0.0242579
-0.0166674
-0.0102596
-0.00492842
-0.000569878
0.00295397
0.00575035
0.00795017
0.0096385
0.0109208
0.0118492
0.012501
0.0128992
0.013097
0.0131026
0.0129523
-0.108615
-0.094353
-0.0803899
-0.0670579
-0.054627
-0.0432992
-0.033191
-0.0243557
-0.0167693
-0.0103746
-0.00506167
-0.000722828
0.0027833
0.00556663
0.00775966
0.0094481
0.0107371
0.0116779
0.0123462
0.0127636
0.0129816
0.0130074
0.0128761
-0.109066
-0.0947311
-0.0806975
-0.0673027
-0.0548204
-0.0434552
-0.033324
-0.0244793
-0.0168948
-0.0105107
-0.00521303
-0.000890839
0.00260051
0.00537343
0.00756192
0.00925229
0.0105494
0.0115034
0.0121888
0.0126257
0.012864
0.01291
0.0127975
-0.10953
-0.0951261
-0.0810259
-0.0675715
-0.0550399
-0.0436381
-0.0334837
-0.0246282
-0.0170438
-0.0106675
-0.00538221
-0.00107363
0.00240583
0.00517096
0.00735712
0.00905118
0.0103576
0.0113258
0.0120288
0.0124854
0.0127442
0.0128102
0.0127163
-0.110004
-0.0955373
-0.0813747
-0.0678638
-0.055285
-0.0438475
-0.0336697
-0.0248023
-0.0172157
-0.0108447
-0.00556883
-0.00127087
0.00219955
0.00495944
0.00714543
0.0088449
0.010162
0.0111452
0.0118663
0.0123428
0.012622
0.0127079
0.0126326
-0.11049
-0.0959645
-0.0817436
-0.0681792
-0.0555553
-0.044083
-0.0338814
-0.0250008
-0.0174101
-0.0110417
-0.00577249
-0.00148221
0.00198197
0.00473913
0.00692704
0.00863356
0.00996247
0.0109615
0.0117011
0.0121978
0.0124974
0.0126032
0.0125463
-0.110987
-0.0964071
-0.082132
-0.0685173
-0.0558503
-0.044344
-0.0341184
-0.0252233
-0.0176265
-0.0112583
-0.00599275
-0.00170726
0.00175342
0.00451027
0.00670212
0.00841729
0.00975916
0.0107748
0.0115333
0.0120504
0.0123704
0.012496
0.0124573
-0.111494
-0.0968649
-0.0825396
-0.0688777
-0.0561695
-0.04463
-0.03438
-0.0254693
-0.0178644
-0.0114937
-0.00622914
-0.00194561
0.00151422
0.00427314
0.00647089
0.00819622
0.00955214
0.010585
0.0113629
0.0119005
0.0122409
0.0123862
0.0123657
-0.11201
-0.0973373
-0.0829659
-0.0692599
-0.0565124
-0.0449404
-0.0346658
-0.0257382
-0.0181231
-0.0117475
-0.00648116
-0.00219683
0.00126476
0.00402801
0.00623354
0.00797049
0.00934148
0.0103923
0.0111899
0.0117481
0.0121089
0.0122738
0.0122713
-0.112537
-0.0978239
-0.0834105
-0.0696633
-0.0568784
-0.0452746
-0.034975
-0.0260292
-0.018402
-0.012019
-0.0067483
-0.00246047
0.00100538
0.00377517
0.00599029
0.00774023
0.00912727
0.0101967
0.0110143
0.0115932
0.0119743
0.0121588
0.0121742
-0.113072
-0.0983244
-0.0838728
-0.0700874
-0.0572669
-0.045632
-0.0353071
-0.0263418
-0.0187006
-0.0123078
-0.00703001
-0.00273607
0.000736462
0.00351492
0.00574134
0.0075056
0.00890958
0.00999811
0.010836
0.0114358
0.0118372
0.0120412
0.0120743
-0.113616
-0.0988383
-0.0843524
-0.0705317
-0.0576773
-0.046012
-0.0356613
-0.0266752
-0.0190181
-0.0126132
-0.00732577
-0.00302317
0.000458395
0.00324755
0.00548693
0.00726674
0.00868852
0.00979671
0.0106552
0.0112759
0.0116976
0.0119208
0.0119717
-0.114168
-0.0993651
-0.0848489
-0.0709955
-0.0581089
-0.0464138
-0.0360369
-0.0270289
-0.0193538
-0.0129345
-0.00763502
-0.00332131
0.000171558
0.00297337
0.00522726
0.0070238
0.00846418
0.00959251
0.0104717
0.0111135
0.0115554
0.0117979
0.0118663
-0.114728
-0.0999044
-0.0853615
-0.0714783
-0.0585612
-0.0468367
-0.0364332
-0.0274019
-0.0197072
-0.0132712
-0.00795721
-0.00363
-0.000123662
0.00269267
0.00496257
0.00677695
0.00823666
0.00938558
0.0102858
0.0109485
0.0114106
0.0116723
0.0117581
-0.115295
-0.100456
-0.0858898
-0.0719795
-0.0590334
-0.0472801
-0.0368495
-0.0277938
-0.0200775
-0.0136226
-0.00829178
-0.00394879
-0.000426879
0.00240576
0.00469309
0.00652635
0.00800608
0.00917599
0.0100973
0.0107811
0.0112633
0.011544
0.0116473
-0.11587
-0.101018
-0.0864331
-0.0724983
-0.0595248
-0.0477432
-0.037285
-0.0282036
-0.020464
-0.0139881
-0.00863818
-0.00427718
-0.000737703
0.00211295
0.00441904
0.00627217
0.00777255
0.00896382
0.00990644
0.0106113
0.0111135
0.0114132
0.0115338
-0.116451
-0.101592
-0.0869911
-0.0730343
-0.0600347
-0.0482253
-0.0377391
-0.0286308
-0.0208661
-0.0143671
-0.00899591
-0.00461477
-0.00105578
0.00181452
0.00414065
0.00601456
0.00753619
0.00874915
0.00971319
0.0104392
0.0109613
0.0112798
0.0114176
-0.117039
-0.102177
-0.0875636
-0.0735872
-0.0605631
-0.0487261
-0.0382114
-0.0290749
-0.0212834
-0.0147592
-0.00936458
-0.0049612
-0.00138084
0.00151067
0.00385806
0.00575364
0.00729708
0.00853205
0.00951761
0.0102647
0.0108066
0.011144
0.0112989
-0.117632
-0.102771
-0.0881492
-0.0741556
-0.0611082
-0.0492442
-0.0387005
-0.0295347
-0.0217148
-0.0151636
-0.0097435
-0.00531594
-0.00171246
0.00120173
0.00357151
0.00548957
0.00705534
0.00831259
0.00931977
0.0100879
0.0106496
0.0110057
0.0111777
-0.118225
-0.10337
-0.0887419
-0.0747338
-0.061665
-0.0497748
-0.0392024
-0.0300068
-0.0221574
-0.0155777
-0.0101307
-0.00567739
-0.00204938
0.000888687
0.00328177
0.00522296
0.00681143
0.00809115
0.00911998
0.00990908
0.0104905
0.0108652
0.0110541
-0.118816
-0.10397
-0.0893405
-0.0753207
-0.0622325
-0.0503171
-0.039716
-0.0304901
-0.0226102
-0.0160006
-0.0105249
-0.00604435
-0.00239041
0.000572684
0.00298993
0.00495479
0.00656625
0.0078685
0.00891888
0.0097288
0.0103297
0.0107227
0.0109285
-0.119447
-0.104616
-0.0899868
-0.0759555
-0.062846
-0.0509022
-0.0402679
-0.0310065
-0.0230906
-0.0164459
-0.0109369
-0.00642489
-0.00274154
0.000249308
0.00269274
0.00468267
0.00631799
0.00764326
0.0087154
0.00954619
0.0101665
0.0105778
0.0108004
-0.120181
-0.105366
-0.0907365
-0.0766894
-0.0635517
-0.0515708
-0.0408939
-0.0315873
-0.0236261
-0.0169375
-0.0113873
-0.00683697
-0.00311849
-9.52025e-05
0.00237819
0.00439618
0.00605774
0.00740791
0.00850333
0.00935624
0.00999697
0.0104276
0.0106677
-0.120746
-0.105945
-0.0913201
-0.0772686
-0.0641193
-0.052121
-0.0414225
-0.0320915
-0.0241044
-0.0173892
-0.0118125
-0.0072356
-0.00349099
-0.000441557
0.00205764
0.0041015
0.00578837
0.00716362
0.00828303
0.00915916
0.00982147
0.0102724
0.0105309
-0.106174
-0.0915834
-0.0775764
-0.0644779
-0.0525325
-0.0418857
-0.0326011
-0.0246535
-0.017968
-0.0124109
-0.00784224
-0.00409552
-0.00103304
0.00148769
0.00356143
0.00528318
0.0066979
0.00785779
0.00877538
0.00947722
0.00996607
0.0102591
-0.105908
-0.0915336
-0.0777418
-0.0648465
-0.0530823
-0.0425882
-0.0334237
-0.025563
-0.0189321
-0.0134014
-0.0088339
-0.00506922
-0.00197313
0.000591036
0.00271556
0.00449065
0.00596062
0.00717403
0.00814436
0.00889566
0.00943233
0.00977001
-0.10552
-0.091408
-0.0778723
-0.0652138
-0.0536565
-0.0433329
-0.0342989
-0.0265297
-0.0199531
-0.0144453
-0.00987402
-0.00608586
-0.0029513
-0.000339901
0.00183767
0.00366708
0.00519201
0.00645799
0.00747963
0.00827909
0.00886249
0.0092443
-0.10509
-0.0912763
-0.0780267
-0.0656275
-0.0542923
-0.0441477
-0.0352472
-0.027568
-0.0210415
-0.0155508
-0.0109693
-0.0071515
-0.00397322
-0.00131042
0.00092322
0.00280897
0.00439009
0.00570942
0.00678286
0.007631
0.00826172
0.00868851
-0.104593
-0.0911177
-0.0781864
-0.0660711
-0.054975
-0.0450194
-0.0362568
-0.0286676
-0.0221882
-0.0167097
-0.0121125
-0.00825989
-0.00503338
-0.00231572
-2.36914e-05
0.00191976
0.00355761
0.00493041
0.00605547
0.00695224
0.00763032
0.00810252
-0.104023
-0.0909226
-0.0783388
-0.0665296
-0.0556879
-0.0459311
-0.0373111
-0.029813
-0.0233793
-0.01791
-0.0132937
-0.00940263
-0.00612499
-0.00335035
-0.000998719
0.00100295
0.00269743
0.00412337
0.00529957
0.00624466
0.00696997
0.00748782
-0.103384
-0.0906881
-0.0784757
-0.0669906
-0.0564163
-0.0468666
-0.038394
-0.030989
-0.0246011
-0.0191399
-0.0145028
-0.0105719
-0.00724184
-0.00440942
-0.00199792
6.18544e-05
0.00181251
0.00329111
0.00451791
0.00551105
0.00628349
0.00684727
-0.10268
-0.0904113
-0.0785885
-0.0674415
-0.0571449
-0.0478095
-0.0394892
-0.0321803
-0.0258399
-0.0203878
-0.0157304
-0.0117597
-0.00837768
-0.00548789
-0.00301714
-0.000899911
0.000906157
0.00243681
0.00371366
0.00475459
0.00557406
0.006184
-0.101916
-0.0900897
-0.0786691
-0.06787
-0.0578589
-0.048744
-0.0405809
-0.0333721
-0.0270825
-0.0216422
-0.0169669
-0.0129585
-0.00952622
-0.00658062
-0.00405204
-0.00187853
-1.81198e-05
0.00156383
0.0028901
0.00397853
0.00484492
0.00550118
-0.101097
-0.0897221
-0.0787104
-0.0682652
-0.058545
-0.0496557
-0.0416548
-0.0345509
-0.0283168
-0.0228926
-0.0182034
-0.0141608
-0.0106814
-0.00768252
-0.0050983
-0.00287018
-0.000956785
0.000675542
0.00205053
0.0031861
0.00409921
0.00480188
-0.10023
-0.089308
-0.0787072
-0.0686182
-0.0591921
-0.0505325
-0.0426988
-0.0357052
-0.0295322
-0.0241297
-0.0194319
-0.0153599
-0.0118375
-0.00878881
-0.00615175
-0.00387115
-0.00190641
-0.000224814
0.00119809
0.00238036
0.00333993
0.00408899
-0.0993203
-0.0888481
-0.0786559
-0.0689226
-0.0597918
-0.051365
-0.043703
-0.0368253
-0.0307199
-0.0253455
-0.0206454
-0.0165497
-0.0129894
-0.00989505
-0.0072085
-0.00487793
-0.00286376
-0.00113419
0.000335694
0.00156413
0.0025698
0.0033651
-0.0983737
-0.0883436
-0.0785545
-0.0691738
-0.0603381
-0.0521461
-0.04466
-0.0379041
-0.0318729
-0.0265337
-0.0218382
-0.0177252
-0.0141325
-0.0109972
-0.00826499
-0.00588731
-0.00382587
-0.0020498
-0.000534006
0.000739928
0.00179122
0.00263253
-0.0973949
-0.0877964
-0.0784025
-0.0693695
-0.0608271
-0.0528713
-0.0455647
-0.0389361
-0.0329858
-0.0276892
-0.0230056
-0.018882
-0.0152631
-0.0120918
-0.00931803
-0.00689637
-0.00479005
-0.00296916
-0.00140867
-9.00332e-05
0.0010063
0.00189325
-0.0963876
-0.0872084
-0.0782002
-0.0695088
-0.061257
-0.0535376
-0.0464138
-0.0399176
-0.0340549
-0.028808
-0.0241437
-0.0200166
-0.0163776
-0.0131758
-0.0103648
-0.00790252
-0.0057539
-0.00389005
-0.00228622
-0.000923819
0.000216853
0.00114896
-0.095355
-0.0865818
-0.0779488
-0.0695919
-0.061627
-0.0541438
-0.0472053
-0.0408462
-0.0350773
-0.0298873
-0.0252496
-0.021126
-0.0174734
-0.0142464
-0.0114027
-0.00890344
-0.00671528
-0.00481049
-0.00316483
-0.00175974
-0.000575554
0.000401114
-0.0942996
-0.0859185
-0.0776498
-0.0696198
-0.0619376
-0.0546897
-0.0479384
-0.0417207
-0.0360515
-0.030925
-0.0263211
-0.0222078
-0.0185479
-0.0153014
-0.0124296
-0.00989704
-0.00767225
-0.0057287
-0.00404288
-0.00259631
-0.00136955
-0.000349021
-0.0932236
-0.0852207
-0.0773051
-0.0695939
-0.0621899
-0.0551758
-0.048613
-0.0425404
-0.0369762
-0.0319197
-0.0273563
-0.0232601
-0.0195992
-0.0163386
-0.0134435
-0.0108814
-0.00862305
-0.00664308
-0.00491888
-0.00343217
-0.0021639
-0.00110033
-0.0921288
-0.0844905
-0.0769168
-0.0695162
-0.0623853
-0.055603
-0.0492297
-0.0433053
-0.0378509
-0.0328704
-0.028354
-0.0242813
-0.0206255
-0.0173563
-0.0144426
-0.0118549
-0.00956606
-0.00755211
-0.00579145
-0.00426608
-0.00295748
-0.00185179
-0.0910171
-0.0837299
-0.0764869
-0.0693887
-0.0625255
-0.0559727
-0.0497892
-0.0440156
-0.0386754
-0.0337762
-0.0293129
-0.02527
-0.0216253
-0.0183527
-0.0154252
-0.0128158
-0.0104997
-0.00845438
-0.0066593
-0.00509687
-0.00374921
-0.00260245
-0.0898901
-0.082941
-0.0760178
-0.0692134
-0.0626124
-0.0562864
-0.0502926
-0.0446718
-0.0394496
-0.0346369
-0.0302323
-0.026225
-0.022597
-0.0193265
-0.0163897
-0.0137626
-0.0114226
-0.00934851
-0.00752116
-0.00592339
-0.00453808
-0.00335138
-0.0887495
-0.0821258
-0.0755115
-0.0689926
-0.0626481
-0.0565458
-0.050741
-0.0452747
-0.0401739
-0.035452
-0.0311115
-0.0271453
-0.0235396
-0.0202762
-0.0173347
-0.0146939
-0.0123333
-0.0102332
-0.00837581
-0.00674451
-0.00532306
-0.00409767
-0.087597
-0.0812863
-0.0749704
-0.0687286
-0.0626346
-0.0567526
-0.051136
-0.0458253
-0.0408485
-0.0362216
-0.0319499
-0.02803
-0.0244518
-0.0212005
-0.0182588
-0.0156082
-0.0132303
-0.0111071
-0.00922203
-0.00755915
-0.00610314
-0.00484041
-0.0864343
-0.0804246
-0.0743967
-0.0684237
-0.0625742
-0.0569089
-0.0514789
-0.0463244
-0.041474
-0.0369457
-0.0327473
-0.0288786
-0.0253327
-0.0220982
-0.0191608
-0.0165042
-0.0141125
-0.011969
-0.0100586
-0.00836619
-0.00687733
-0.00557869
-0.0852631
-0.0795429
-0.0737928
-0.0680802
-0.0624691
-0.0570165
-0.0517715
-0.0467733
-0.0420512
-0.0376244
-0.0335033
-0.0296902
-0.0261814
-0.0229682
-0.0200393
-0.0173806
-0.0149785
-0.0128176
-0.0108845
-0.00916454
-0.0076446
-0.0063116
-0.0840851
-0.0786431
-0.0731609
-0.0677005
-0.0623215
-0.0570774
-0.0520153
-0.0471733
-0.0425808
-0.0382583
-0.034218
-0.0304646
-0.0269972
-0.0238097
-0.0208933
-0.0182363
-0.015827
-0.0136517
-0.0116983
-0.00995312
-0.00840397
-0.00703821
-0.0829022
-0.0777274
-0.0725033
-0.067287
-0.0621338
-0.0570939
-0.0522122
-0.0475256
-0.0430637
-0.0388477
-0.0348913
-0.0312015
-0.0277794
-0.0246216
-0.0217217
-0.0190701
-0.016657
-0.0144703
-0.0124991
-0.0107309
-0.00915442
-0.0077576
-0.081716
-0.0767979
-0.0718224
-0.0668421
-0.0619082
-0.057068
-0.052364
-0.047832
-0.0435011
-0.0393933
-0.0355235
-0.0319005
-0.0285275
-0.0254034
-0.0225237
-0.019881
-0.0174674
-0.015272
-0.0132857
-0.0114967
-0.00989497
-0.00846884
-0.0805283
-0.0758567
-0.0711205
-0.0663682
-0.0616473
-0.057002
-0.0524726
-0.0480937
-0.0438941
-0.0398958
-0.036115
-0.0325617
-0.0292413
-0.0261542
-0.0232984
-0.020668
-0.018257
-0.0160559
-0.0140571
-0.0122496
-0.0106246
-0.00917101
-0.079341
-0.0749059
-0.0703999
-0.0658677
-0.0613533
-0.0568981
-0.0525401
-0.0483127
-0.0442439
-0.0403561
-0.0366661
-0.0331852
-0.0299203
-0.0268737
-0.024045
-0.0214302
-0.0190248
-0.016821
-0.0148122
-0.0129886
-0.0113424
-0.00986319
-0.078156
-0.0739476
-0.069663
-0.0653431
-0.0610287
-0.0567585
-0.0525685
-0.0484905
-0.044552
-0.0407752
-0.0371774
-0.0337712
-0.0305645
-0.0275614
-0.024763
-0.0221669
-0.0197702
-0.0175663
-0.0155501
-0.0137127
-0.0120474
-0.0105445
-0.0769751
-0.072984
-0.068912
-0.0647967
-0.0606759
-0.0565856
-0.0525598
-0.048629
-0.0448197
-0.0411541
-0.0376498
-0.03432
-0.031174
-0.028217
-0.0254517
-0.0228773
-0.0204921
-0.0182909
-0.0162698
-0.0144209
-0.0127386
-0.0112139
-0.0758001
-0.0720172
-0.0681494
-0.0642311
-0.0602973
-0.0563818
-0.0525164
-0.0487301
-0.0450487
-0.041494
-0.0380839
-0.0348321
-0.0317488
-0.0288405
-0.026111
-0.0235609
-0.0211898
-0.018994
-0.0169704
-0.0151124
-0.0134152
-0.0118707
-0.0746331
-0.0710495
-0.0673774
-0.0636486
-0.0598955
-0.0561493
-0.0524402
-0.0487957
-0.0452406
-0.0417963
-0.0384807
-0.035308
-0.0322892
-0.0294316
-0.0267403
-0.0242171
-0.0218628
-0.0196747
-0.0176511
-0.0157862
-0.0140763
-0.012514
-0.073476
-0.0700829
-0.0665984
-0.0630518
-0.0594728
-0.0558907
-0.0523336
-0.0488279
-0.0453971
-0.0420624
-0.0388413
-0.0357485
-0.0327955
-0.0299906
-0.0273397
-0.0248457
-0.0225105
-0.0203326
-0.0183112
-0.0164416
-0.014721
-0.0131428
-0.0723307
-0.0691197
-0.0658149
-0.062443
-0.0590318
-0.0556082
-0.0521989
-0.0488286
-0.04552
-0.0422936
-0.0391668
-0.0361544
-0.0332683
-0.0305175
-0.0279089
-0.0254462
-0.0231323
-0.0209669
-0.01895
-0.0170778
-0.0153486
-0.0137564
-0.0122974
-0.0711994
-0.0681622
-0.0650291
-0.0618248
-0.0585749
-0.0553045
-0.0520384
-0.0488
-0.0456112
-0.0424916
-0.0394584
-0.0365266
-0.0337081
-0.0310128
-0.028448
-0.0260185
-0.023728
-0.0215771
-0.0195667
-0.0176941
-0.0159582
-0.014354
-0.0128784
-0.0700841
-0.0672125
-0.0642435
-0.0611997
-0.0581047
-0.0549818
-0.0518544
-0.0487443
-0.0456725
-0.042658
-0.0397175
-0.036866
-0.0341157
-0.0314768
-0.0289572
-0.0265625
-0.0242972
-0.0221627
-0.0201609
-0.0182898
-0.0165492
-0.0149348
-0.0134443
-0.0689868
-0.066273
-0.0634605
-0.0605702
-0.0576237
-0.0546428
-0.0516492
-0.0486637
-0.045706
-0.0427945
-0.0399455
-0.0371738
-0.0344918
-0.0319099
-0.0294367
-0.0270782
-0.0248397
-0.0227234
-0.020732
-0.0188643
-0.0171207
-0.015498
-0.0139944
-0.0679098
-0.0653459
-0.0626826
-0.0599388
-0.0571345
-0.05429
-0.0514254
-0.0485603
-0.0457137
-0.0429028
-0.0401439
-0.0374513
-0.0348374
-0.032313
-0.0298868
-0.0275657
-0.0253554
-0.023259
-0.0212795
-0.019417
-0.0176723
-0.016043
-0.014528
-0.0668552
-0.0644337
-0.0619122
-0.059308
-0.0566396
-0.0539257
-0.0511853
-0.0484366
-0.0456976
-0.042985
-0.0403143
-0.0376996
-0.0351534
-0.0326865
-0.030308
-0.0280252
-0.0258443
-0.023769
-0.0218032
-0.0199473
-0.0182032
-0.0165689
-0.0150442
-0.0658253
-0.0635388
-0.0611518
-0.0586804
-0.0561417
-0.0535528
-0.0509314
-0.0482948
-0.04566
-0.0430428
-0.0404583
-0.0379202
-0.035441
-0.0330314
-0.0307008
-0.0284569
-0.0263064
-0.0242535
-0.0223026
-0.020455
-0.0187129
-0.0170753
-0.0155423
-0.0648224
-0.0626635
-0.060404
-0.0580587
-0.0556432
-0.0531736
-0.0506663
-0.0481374
-0.0456029
-0.0430782
-0.0405776
-0.0381145
-0.0357012
-0.0333484
-0.0310658
-0.0288613
-0.0267418
-0.0247123
-0.0227775
-0.0209394
-0.0192008
-0.0175613
-0.0160218
-0.0638488
-0.0618103
-0.0596714
-0.0574455
-0.055147
-0.0527909
-0.0503924
-0.0479666
-0.0455287
-0.0430932
-0.040674
-0.038284
-0.0359353
-0.0336387
-0.0314037
-0.0292386
-0.0271507
-0.0251453
-0.0232277
-0.0214003
-0.0196665
-0.0180265
-0.0164817
-0.0629071
-0.0609818
-0.0589565
-0.0568434
-0.0546557
-0.0524073
-0.0501124
-0.0477851
-0.0454397
-0.04309
-0.0407493
-0.0384303
-0.0361447
-0.0339031
-0.0317153
-0.0295895
-0.0275334
-0.0255527
-0.0236529
-0.0218373
-0.0201094
-0.0184702
-0.0169215
-0.0619996
-0.0601806
-0.0582621
-0.0562551
-0.0541721
-0.0520255
-0.0498288
-0.0475951
-0.045338
-0.0430705
-0.0408055
-0.0385551
-0.0363306
-0.0341428
-0.0320013
-0.0299145
-0.0278902
-0.0259344
-0.0240532
-0.0222501
-0.0205291
-0.0188918
-0.0173404
-0.061129
-0.0594094
-0.0575908
-0.0556835
-0.0536988
-0.0516483
-0.0495443
-0.0473994
-0.0452262
-0.0430371
-0.0408444
-0.0386599
-0.0364946
-0.034359
-0.0322626
-0.0302141
-0.0282214
-0.0262907
-0.0244284
-0.0226384
-0.0209252
-0.0192908
-0.0177378
-0.0602978
-0.0586709
-0.0569456
-0.0551314
-0.0532387
-0.0512783
-0.0492616
-0.0472004
-0.0451065
-0.0429918
-0.0408681
-0.0387465
-0.036638
-0.0345527
-0.0325002
-0.0304891
-0.0285274
-0.0266217
-0.0247785
-0.023002
-0.0212973
-0.0196666
-0.0181131
-0.059509
-0.0579679
-0.0563292
-0.0546016
-0.0527946
-0.0509183
-0.0489834
-0.0470006
-0.0449814
-0.042937
-0.0408784
-0.0388167
-0.0367623
-0.0347253
-0.032715
-0.0307402
-0.0288088
-0.0269276
-0.0251034
-0.0233407
-0.0216449
-0.0200186
-0.0184654
-0.0587654
-0.0573034
-0.0557446
-0.0540971
-0.0523696
-0.0505714
-0.0487124
-0.0468028
-0.0448534
-0.0428747
-0.0408775
-0.0388722
-0.0368691
-0.0348779
-0.032908
-0.0309679
-0.0290658
-0.0272086
-0.025403
-0.0236542
-0.0219676
-0.0203463
-0.0187942
-0.0580699
-0.0566803
-0.0551949
-0.053621
-0.0519665
-0.0502402
-0.0484514
-0.0466096
-0.0447249
-0.0428074
-0.0408673
-0.0389149
-0.0369598
-0.0350119
-0.0330801
-0.0311731
-0.0292989
-0.0274648
-0.0256775
-0.0239423
-0.0222651
-0.0206491
-0.0190986
-0.0574259
-0.056102
-0.0546833
-0.0531763
-0.0515885
-0.0499279
-0.0482033
-0.0464236
-0.0445984
-0.0427372
-0.04085
-0.0389464
-0.0370361
-0.0351283
-0.0332323
-0.0313563
-0.0295087
-0.0276964
-0.0259266
-0.0242047
-0.0225367
-0.0209262
-0.0193778
-0.0568365
-0.0555717
-0.054213
-0.0527663
-0.0512386
-0.0496374
-0.0479709
-0.0462475
-0.0444763
-0.0426665
-0.0408274
-0.0389686
-0.0370992
-0.0352286
-0.0333655
-0.0315184
-0.0296953
-0.0279036
-0.0261502
-0.0244411
-0.022782
-0.0211771
-0.0196311
-0.0563053
-0.055093
-0.0537874
-0.0523943
-0.0509201
-0.0493718
-0.0477571
-0.046084
-0.0443612
-0.0425974
-0.0408017
-0.0389831
-0.0371508
-0.0353137
-0.0334806
-0.0316597
-0.0298592
-0.0280863
-0.0263483
-0.0246509
-0.0230004
-0.021401
-0.0198576
-0.0558362
-0.0546694
-0.0534101
-0.0520638
-0.0506362
-0.0491342
-0.0475649
-0.0459359
-0.0442556
-0.0425322
-0.0407747
-0.0389917
-0.0371921
-0.0353848
-0.0335783
-0.0317809
-0.0300005
-0.0282446
-0.0265204
-0.0248339
-0.0231912
-0.0215969
-0.0200561
-0.0554331
-0.0543049
-0.053085
-0.0517783
-0.0503905
-0.0489278
-0.0473972
-0.0458059
-0.0441618
-0.0424731
-0.0407483
-0.0389959
-0.0372245
-0.0354428
-0.0336593
-0.0318822
-0.0301194
-0.0283783
-0.0266662
-0.0249892
-0.0233535
-0.0217639
-0.0202255
-0.0551004
-0.0540037
-0.052816
-0.0515417
-0.0501864
-0.048756
-0.047257
-0.0456966
-0.0440824
-0.0424222
-0.0407243
-0.0389971
-0.037249
-0.0354886
-0.0337242
-0.0319639
-0.0302158
-0.0284871
-0.0267851
-0.0251161
-0.0234864
-0.0219008
-0.0203646
-0.0548427
-0.0537703
-0.0526072
-0.0513579
-0.0500275
-0.0486219
-0.0471474
-0.0456108
-0.0440196
-0.0423814
-0.0407044
-0.0389967
-0.0372666
-0.0355227
-0.0337731
-0.032026
-0.0302893
-0.0285702
-0.0268763
-0.0252135
-0.0235886
-0.0220062
-0.0204718
-0.0546653
-0.0536093
-0.0524631
-0.0512309
-0.0499177
-0.0485291
-0.0470713
-0.0455511
-0.0439757
-0.0423527
-0.0406899
-0.0389957
-0.0372781
-0.0355455
-0.0338062
-0.0320682
-0.0303393
-0.028627
-0.0269386
-0.0252803
-0.0236586
-0.0220785
-0.0205454
-0.0545735
-0.0535261
-0.0523886
-0.0511652
-0.0498608
-0.048481
-0.0470318
-0.04552
-0.0439528
-0.0423376
-0.0406823
-0.0389949
-0.0372838
-0.0355571
-0.0338231
-0.0320898
-0.030365
-0.0286562
-0.0269707
-0.0253147
-0.0236947
-0.0221158
-0.0205833
-0.055472
-0.0545241
-0.0534828
-0.0523516
-0.0511346
-0.0498365
-0.0484627
-0.0470193
-0.0455127
-0.0439501
-0.0423388
-0.0406867
-0.0390019
-0.0372925
-0.0355668
-0.0338332
-0.0320997
-0.0303745
-0.0286648
-0.0269783
-0.0253213
-0.0237004
-0.0221207
-0.0555716
-0.0546156
-0.053566
-0.0524262
-0.0512005
-0.0498938
-0.0485113
-0.0470594
-0.0455445
-0.0439737
-0.0423547
-0.0406952
-0.0390033
-0.0372874
-0.0355557
-0.0338167
-0.0320784
-0.030349
-0.0286357
-0.0269462
-0.0252868
-0.0236642
-0.0220832
-0.0557644
-0.0547926
-0.0537267
-0.0525704
-0.0513279
-0.0500043
-0.0486052
-0.0471366
-0.0456055
-0.0440191
-0.0423849
-0.0407111
-0.0390057
-0.0372772
-0.035534
-0.0337845
-0.032037
-0.0302994
-0.0285792
-0.026884
-0.02522
-0.0235939
-0.0220106
-0.0560444
-0.0550495
-0.0539599
-0.0527794
-0.0515124
-0.0501643
-0.0487407
-0.0472481
-0.0456934
-0.0440841
-0.042428
-0.0407332
-0.0390082
-0.0372614
-0.0355015
-0.0337369
-0.0319758
-0.0302265
-0.0284963
-0.0267929
-0.0251224
-0.0234914
-0.0219047
-0.0564062
-0.0553812
-0.0542607
-0.0530487
-0.05175
-0.0503699
-0.0489146
-0.0473907
-0.0458054
-0.0441665
-0.0424819
-0.0407601
-0.0390097
-0.0372394
-0.0354579
-0.0336737
-0.0318954
-0.0301309
-0.028388
-0.026674
-0.0249951
-0.023358
-0.0217672
-0.0568449
-0.0557831
-0.0546248
-0.0533743
-0.0520367
-0.0506176
-0.0491236
-0.0475615
-0.045939
-0.044264
-0.0425449
-0.0407903
-0.039009
-0.0372101
-0.0354025
-0.0335948
-0.0317955
-0.030013
-0.0282547
-0.0265281
-0.0248394
-0.0231949
-0.0215993
-0.057356
-0.0562508
-0.055048
-0.0537521
-0.0523688
-0.050904
-0.0493645
-0.0477577
-0.0460915
-0.0443743
-0.0426147
-0.0408218
-0.0390047
-0.0371725
-0.0353345
-0.0334995
-0.0316761
-0.0298727
-0.0280967
-0.0263558
-0.0246558
-0.0230032
-0.0214022
-0.0579354
-0.0567803
-0.0555263
-0.0541785
-0.0527428
-0.0512256
-0.0496342
-0.0479763
-0.0462603
-0.044495
-0.0426895
-0.040853
-0.0389952
-0.0371254
-0.035253
-0.0333872
-0.0315367
-0.0297098
-0.0279142
-0.0261573
-0.024445
-0.0227835
-0.0211769
-0.0585792
-0.0573678
-0.0560562
-0.0546499
-0.0531553
-0.0515793
-0.0499296
-0.0482145
-0.0464429
-0.0446238
-0.042767
-0.040882
-0.0389789
-0.0370673
-0.0351569
-0.0332571
-0.0313767
-0.0295243
-0.0277072
-0.025933
-0.0242075
-0.0225365
-0.0209241
-0.0592838
-0.0580098
-0.0566342
-0.055163
-0.0536031
-0.051962
-0.0502479
-0.0484696
-0.0466365
-0.0447583
-0.0428451
-0.0409069
-0.0389542
-0.036997
-0.0350452
-0.0331084
-0.0311957
-0.0293156
-0.0274756
-0.025683
-0.0239435
-0.0222629
-0.0206447
-0.0600458
-0.0587029
-0.0572569
-0.0557145
-0.054083
-0.0523706
-0.0505861
-0.0487389
-0.0468388
-0.0448962
-0.0429217
-0.0409258
-0.0389194
-0.0369129
-0.0349165
-0.0329401
-0.0309928
-0.0290833
-0.027219
-0.0254072
-0.0236533
-0.0219629
-0.0203392
-0.0608621
-0.0594439
-0.0579213
-0.0563014
-0.0545921
-0.0528024
-0.0509416
-0.0490197
-0.0470473
-0.0450352
-0.0429946
-0.0409368
-0.0388728
-0.0368136
-0.0347697
-0.0327512
-0.0307674
-0.028827
-0.0269374
-0.0251057
-0.0233371
-0.021637
-0.0200082
-0.0617296
-0.0602299
-0.0586243
-0.0569206
-0.0551275
-0.0532545
-0.0513115
-0.0493094
-0.0472594
-0.045173
-0.0430619
-0.0409379
-0.0388127
-0.0366976
-0.0346035
-0.0325407
-0.0305187
-0.0285461
-0.0266304
-0.0247784
-0.0229952
-0.0212856
-0.0196523
-0.0626454
-0.0610579
-0.0593631
-0.0575695
-0.0556864
-0.0537241
-0.0516933
-0.0496057
-0.0474729
-0.0453073
-0.0431214
-0.0409273
-0.0387375
-0.0365635
-0.0344167
-0.0323077
-0.0302458
-0.0282401
-0.0262976
-0.0244252
-0.0226274
-0.020909
-0.0192719
-0.0636067
-0.0619252
-0.0601349
-0.0582452
-0.0562661
-0.0542087
-0.0520845
-0.0499059
-0.0476854
-0.0454361
-0.0431711
-0.0409032
-0.0386454
-0.0364098
-0.0342081
-0.032051
-0.0299482
-0.0279084
-0.0259388
-0.024046
-0.0222341
-0.0205075
-0.0188675
-0.064611
-0.062829
-0.060937
-0.0589451
-0.056864
-0.0547058
-0.0524827
-0.0502079
-0.0478948
-0.0455573
-0.043209
-0.0408638
-0.038535
-0.0362352
-0.0339764
-0.0317697
-0.0296248
-0.0275506
-0.0255537
-0.0236408
-0.0218153
-0.0200814
-0.0184396
-0.0656555
-0.0637669
-0.0617669
-0.0596666
-0.0574777
-0.0552128
-0.0528853
-0.0505092
-0.0480988
-0.0456686
-0.0432334
-0.0408074
-0.0384046
-0.0360382
-0.0337206
-0.031463
-0.0292752
-0.027166
-0.025142
-0.0232094
-0.0213712
-0.019631
-0.0179888
-0.066738
-0.0647363
-0.0626221
-0.0604073
-0.0581046
-0.0557275
-0.0532902
-0.0508077
-0.0482953
-0.0457683
-0.0432422
-0.0407322
-0.0382527
-0.0358175
-0.0334393
-0.0311297
-0.0288984
-0.0267542
-0.0247034
-0.0227518
-0.0209018
-0.0191566
-0.0175153
-0.0678558
-0.0657347
-0.0635002
-0.0611649
-0.0587424
-0.0562475
-0.0536951
-0.0511014
-0.0484823
-0.0458544
-0.0432338
-0.0406366
-0.0380778