/*--------------------------------*- C++ -*----------------------------------*\
  =========                 |
  \\      /  F ield         | OpenFOAM: The Open Source CFD Toolbox
   \\    /   O peration     | Website:  https://openfoam.org
    \\  /    A nd           | Version:  7
     \\/     M anipulation  |
\*---------------------------------------------------------------------------*/
FoamFile
{
    version     2.0;
    format      ascii;
    class       volVectorField;
    location    "40";
    object      U;
}
// * * * * * * * * * * * * * * * * * * * * * * * * * * * * * * * * * * * * * //

dimensions      [0 1 -1 0 0 0 0];

internalField   nonuniform List<vector> 
4575
(
(-0.162708 -0.0205918 -1.52659e-22)
(-0.13927 -0.0236764 -3.82997e-23)
(-0.113664 -0.0251387 7.08918e-23)
(-0.0860219 -0.0248642 7.15992e-24)
(-0.0565181 -0.0228959 -3.4072e-23)
(-0.025359 -0.0194349 1.18993e-22)
(0.00718508 -0.0148145 4.64738e-23)
(0.0408141 -0.00944993 7.12008e-24)
(0.0751766 -0.00380519 1.63971e-23)
(0.109938 0.00166259 -6.69135e-24)
(0.144741 0.00654186 1.95441e-23)
(0.179313 0.0105066 1.30721e-24)
(0.213391 0.0133301 -7.45874e-25)
(0.246819 0.0149002 8.35713e-24)
(0.279464 0.0152155 9.53371e-24)
(0.31125 0.0143728 1.15186e-24)
(0.342135 0.012552 9.44369e-24)
(0.372038 0.00998838 1.66167e-23)
(0.400962 0.00695562 -1.9207e-23)
(0.428755 0.00372828 1.81385e-23)
(0.455496 0.000574814 -5.54607e-24)
(0.480934 -0.00228417 -6.93306e-24)
(0.505327 -0.00466199 -7.08742e-24)
(0.528287 -0.00644768 8.59023e-24)
(-0.159567 -0.022782 -2.47041e-22)
(-0.136262 -0.0260366 -5.11873e-22)
(-0.110899 -0.0276508 2.02468e-22)
(-0.0836011 -0.0275078 -2.457e-22)
(-0.0545207 -0.0256487 8.04994e-23)
(-0.0238344 -0.0222715 1.57911e-22)
(0.00822356 -0.0177068 -9.02577e-23)
(0.0413915 -0.012368 4.84753e-23)
(0.0753536 -0.00671856 -1.95763e-23)
(0.109804 -0.00121727 2.97165e-23)
(0.144409 0.00372127 2.52502e-23)
(0.178903 0.00776383 -8.03984e-24)
(0.213024 0.0106809 -1.73006e-24)
(0.246605 0.0123536 9.13564e-24)
(0.279491 0.0127774 -1.88849e-23)
(0.311582 0.012045 -2.18768e-23)
(0.342805 0.0103367 -1.68873e-23)
(0.373047 0.00788564 -1.39364e-23)
(0.402285 0.0049679 5.62835e-23)
(0.430343 0.0018549 3.66224e-24)
(0.457282 -0.0011817 7.47676e-23)
(0.482842 -0.00392766 -1.35512e-23)
(0.507275 -0.00619202 2.95186e-23)
(0.5302 -0.0078732 6.96022e-23)
(-0.154694 -0.0249595 2.27408e-22)
(-0.131499 -0.0283759 2.2339e-22)
(-0.106363 -0.0301344 4.61341e-23)
(-0.0794001 -0.030117 2.98833e-22)
(-0.0507418 -0.0283634 -4.67831e-22)
(-0.0205357 -0.0250692 1.0611e-22)
(0.0110204 -0.0205619 -1.3947e-22)
(0.0437032 -0.0152533 -7.59694e-23)
(0.0772334 -0.00960582 -1.50711e-22)
(0.111336 -0.00407931 8.90289e-23)
(0.145698 0.000912598 -5.56995e-23)
(0.180068 0.00502195 1.727e-23)
(0.214181 0.00802479 6.43789e-24)
(0.247861 0.00979381 1.80849e-23)
(0.280933 0.0103217 -4.96571e-23)
(0.313271 0.00969717 3.80244e-23)
(0.344772 0.00810114 -8.86398e-23)
(0.375295 0.00576413 -6.12916e-23)
(0.404787 0.00296451 -4.77127e-23)
(0.433052 -3.00509e-05 -2.02185e-24)
(0.460131 -0.00294507 -1.13011e-22)
(0.48576 -0.00557314 1.34521e-22)
(0.510181 -0.00771946 -2.64744e-23)
(0.533023 -0.0092921 -9.95406e-23)
(-0.148119 -0.0271263 -7.05317e-22)
(-0.125011 -0.0306954 5.80643e-22)
(-0.100085 -0.03259 -6.69656e-22)
(-0.0734448 -0.0326916 -7.6445e-22)
(-0.0452044 -0.0310392 1.17776e-21)
(-0.0154824 -0.0278262 -7.18823e-22)
(0.0155593 -0.0233776 2.52668e-22)
(0.0477362 -0.018103 2.31393e-22)
(0.0808056 -0.0124637 -1.89918e-22)
(0.114525 -0.00691961 2.25891e-22)
(0.148603 -0.00188596 -3.49456e-23)
(0.1828 0.00228556 4.66552e-23)
(0.216854 0.0053661 3.31344e-24)
(0.250578 0.00722516 -5.10175e-23)
(0.283778 0.00785272 -1.03293e-23)
(0.316303 0.00733385 4.29513e-23)
(0.348021 0.00584968 1.1267e-22)
(0.378763 0.00362828 1.4571e-22)
(0.408448 0.000949991 2.77932e-23)
(0.436861 -0.00192258 -1.99333e-23)
(0.464024 -0.00471157 4.70599e-23)
(0.489666 -0.00721716 -1.63074e-22)
(0.514025 -0.00924112 1.57575e-23)
(0.536738 -0.0107014 -3.22906e-23)
(-0.139884 -0.0292839 6.52637e-22)
(-0.116839 -0.0329964 -2.9697e-22)
(-0.0921029 -0.0350185 4.3237e-23)
(-0.0657731 -0.0352319 1.09492e-22)
(-0.037944 -0.0336757 -5.32139e-22)
(-0.00870693 -0.0305416 9.32312e-22)
(0.0218113 -0.0261522 2.38245e-22)
(0.0534644 -0.0209148 1.57926e-23)
(0.086047 -0.0152892 1.33602e-22)
(0.119349 -0.00973464 -1.78652e-22)
(0.153102 -0.0046707 1.34491e-23)
(0.187081 -0.000441693 -4.28918e-23)
(0.221023 0.00270968 6.22222e-24)
(0.254735 0.00465248 6.80193e-23)
(0.288004 0.00537532 1.04483e-22)
(0.320655 0.00495975 -1.7632e-22)
(0.352527 0.00358721 -1.10315e-22)
(0.383427 0.00148263 -3.03376e-23)
(0.413243 -0.00107212 -4.07114e-23)
(0.441744 -0.00381865 4.9828e-23)
(0.468932 -0.00647746 -1.75719e-22)
(0.494536 -0.00885627 1.25124e-22)
(0.518782 -0.0107539 -1.00646e-22)
(0.541321 -0.0120984 -1.15539e-22)
(-0.130038 -0.0314341 -7.04117e-22)
(-0.107034 -0.0352802 -1.05012e-21)
(-0.082469 -0.0374207 8.44352e-23)
(-0.0564344 -0.0377383 6.37106e-22)
(-0.0290078 -0.0362726 -5.4313e-23)
(-0.000253765 -0.0332144 -1.54789e-22)
(0.0297348 -0.028884 -6.56531e-22)
(0.0608495 -0.0236865 2.72883e-23)
(0.092922 -0.0180793 2.97033e-23)
(0.125775 -0.012521 -2.58653e-22)
(0.159164 -0.0074321 8.72616e-23)
(0.192878 -0.00315652 1.12417e-24)
(0.226658 5.99103e-05 9.9931e-24)
(0.260302 0.00208072 -7.71302e-23)
(0.29358 0.00289444 -6.69804e-24)
(0.326296 0.00257975 6.33924e-23)
(0.358258 0.00131861 4.05044e-23)
(0.389251 -0.000668447 -1.63367e-22)
(0.419136 -0.0030975 -6.53622e-24)
(0.447666 -0.00571421 8.48835e-24)
(0.474823 -0.00823903 -7.40505e-23)
(0.500336 -0.0104871 2.8578e-22)
(0.524421 -0.0122548 8.03267e-23)
(0.546743 -0.0134803 2.72738e-22)
(-0.118642 -0.0335783 3.32434e-22)
(-0.095657 -0.037548 2.95379e-22)
(-0.0712436 -0.0397975 5.89758e-22)
(-0.0454888 -0.0402112 -8.40669e-22)
(-0.018454 -0.03883 1.9308e-21)
(0.00982125 -0.035844 5.51053e-22)
(0.0392769 -0.0315718 -5.20136e-23)
(0.0698417 -0.0264159 -4.8298e-22)
(0.101384 -0.0208316 1.45741e-22)
(0.133758 -0.0152755 2.1704e-22)
(0.166746 -0.0101676 1.27057e-22)
(0.200152 -0.00585414 -5.90301e-24)
(0.233718 -0.00258011 7.10958e-24)
(0.267238 -0.000486107 2.37609e-23)
(0.300465 0.000415036 -1.32741e-23)
(0.333182 0.000198697 1.30308e-22)
(0.365172 -0.000952225 -1.2737e-23)
(0.396195 -0.00282038 6.54856e-23)
(0.426086 -0.00512108 1.36121e-22)
(0.454586 -0.00760529 -7.86081e-23)
(0.481658 -0.00999267 1.47104e-22)
(0.50703 -0.0121065 -2.7206e-22)
(0.530907 -0.0137409 -2.05739e-23)
(0.55297 -0.0148447 -2.56751e-22)
(-0.105763 -0.035718 -6.51379e-22)
(-0.0827766 -0.0398012 -4.53304e-22)
(-0.0584966 -0.0421499 1.35454e-21)
(-0.0330056 -0.0426514 4.91058e-22)
(-0.00635082 -0.041348 -1.52767e-21)
(0.021452 -0.0384301 3.1991e-22)
(0.0503741 -0.0342146 -4.8564e-23)
(0.08038 -0.0291015 9.73878e-22)
(0.111374 -0.0235436 -1.15903e-21)
(0.143244 -0.017995 2.0147e-22)
(0.175795 -0.0128748 -1.57987e-22)
(0.208849 -0.00852979 1.3737e-22)
(0.242153 -0.00520564 1.39509e-23)
(0.275494 -0.00304386 -1.10115e-23)
(0.30861 -0.00205909 -2.51538e-23)
(0.341267 -0.00217898 1.10005e-23)
(0.37322 -0.00322057 -4.19361e-23)
(0.404211 -0.00496844 -3.15123e-23)
(0.434047 -0.00713888 -1.65985e-22)
(0.462459 -0.00948795 1.80797e-22)
(0.489391 -0.0117349 1.52235e-22)
(0.514573 -0.0137113 -4.67863e-23)
(0.538199 -0.0152096 3.9941e-22)
(0.559964 -0.016189 -8.65438e-23)
(-0.0914761 -0.0378542 1.78343e-21)
(-0.0684697 -0.0420407 7.55931e-22)
(-0.0443056 -0.044479 -2.51682e-21)
(-0.0190627 -0.0450594 1.00104e-22)
(0.00722473 -0.043827 -6.15491e-23)
(0.034563 -0.0409725 -6.39121e-22)
(0.0629532 -0.0368115 1.40002e-22)
(0.0923943 -0.0317417 -2.14188e-22)
(0.122825 -0.026213 1.61519e-22)
(0.154167 -0.0206767 -5.09599e-22)
(0.186249 -0.0155501 1.76964e-22)
(0.218911 -0.0111796 -4.15336e-23)
(0.251903 -0.00781104 2.61478e-24)
(0.285011 -0.00558713 1.57797e-23)
(0.317957 -0.00452303 -2.95645e-22)
(0.350493 -0.00454834 7.04383e-24)
(0.382347 -0.00548084 1.86331e-22)
(0.413243 -0.00710811 -2.897e-22)
(0.442965 -0.00914678 1.05217e-22)
(0.471234 -0.0113584 1.01948e-22)
(0.497974 -0.0134622 -2.18545e-22)
(0.52292 -0.0152985 -4.99537e-23)
(0.546253 -0.0166582 -5.58654e-22)
(0.567684 -0.017511 1.18922e-22)
(-0.0758606 -0.0399879 -2.71691e-21)
(-0.0528186 -0.0442674 5.70252e-22)
(-0.0287545 -0.0467854 2.68531e-21)
(-0.00374476 -0.0474361 -8.68988e-22)
(0.0221883 -0.0462674 5.45135e-22)
(0.0490713 -0.0434711 1.9832e-22)
(0.0769331 -0.0393619 -1.12775e-22)
(0.105806 -0.0343353 -4.03017e-22)
(0.135661 -0.0288379 -1.61085e-22)
(0.166453 -0.0233179 4.25516e-22)
(0.198037 -0.0181903 7.37387e-23)
(0.230267 -0.0138 4.59755e-23)
(0.262901 -0.0103923 -2.2405e-23)
(0.295724 -0.00811098 -5.11776e-23)
(0.328444 -0.00697107 1.24184e-22)
(0.360799 -0.00690426 -1.13763e-22)
(0.392492 -0.00772852 5.70729e-23)
(0.423234 -0.00923504 -3.65153e-22)
(0.452784 -0.0111407 5.09087e-22)
(0.480854 -0.0132129 2.32405e-22)
(0.507353 -0.0151714 -3.53318e-23)
(0.532019 -0.0168653 5.72198e-23)
(0.55502 -0.0180843 1.71639e-22)
(0.576085 -0.0188089 1.28758e-22)
(-0.0359103 -0.0464821 1.56836e-21)
(-0.0119327 -0.0490701 5.36088e-22)
(0.012858 -0.049782 1.03008e-21)
(0.0384494 -0.0486697 -1.35093e-21)
(0.064887 -0.045926 8.2074e-22)
(0.0922255 -0.0418655 -8.79815e-22)
(0.120528 -0.0368812 9.00912e-23)
(0.149799 -0.0314166 2.20855e-22)
(0.180023 -0.0259163 -8.83765e-23)
(0.211079 -0.0207921 -6.965e-23)
(0.242842 -0.0163873 -9.40162e-23)
(0.275075 -0.0129455 2.06663e-23)
(0.307563 -0.0106112 -1.25281e-23)
(0.340001 -0.00939884 3.05409e-23)
(0.372116 -0.00924221 2.02639e-22)
(0.40359 -0.00995932 3.20794e-23)
(0.43412 -0.011345 7.62776e-24)
(0.46344 -0.0131167 -3.91556e-22)
(0.491262 -0.0150481 -4.43979e-22)
(0.517472 -0.0168595 -2.67901e-23)
(0.541817 -0.0184091 2.15954e-23)
(0.56445 -0.0194858 2.27767e-22)
(0.585118 -0.0200806 -7.39534e-23)
(-0.0178355 -0.0486851 -1.10563e-21)
(0.00606713 -0.0513334 9.07238e-22)
(0.030651 -0.0520979 -1.66707e-21)
(0.0559129 -0.0510343 -5.14179e-23)
(0.0819153 -0.0483375 9.56987e-22)
(0.108737 -0.0443219 3.02269e-25)
(0.136469 -0.0393785 1.77015e-22)
(0.165148 -0.0339476 4.38046e-23)
(0.194788 -0.0284694 4.50076e-22)
(0.225293 -0.0233527 -9.85086e-23)
(0.256555 -0.0189379 -6.24409e-23)
(0.288344 -0.0154668 -3.24684e-24)
(0.320449 -0.0130835 -1.69115e-23)
(0.352553 -0.0118021 1.18482e-22)
(0.384373 -0.0115578 6.6188e-23)
(0.415571 -0.0121689 2.61781e-23)
(0.445832 -0.0134338 5.0618e-22)
(0.47487 -0.0150711 -5.34287e-22)
(0.502393 -0.0168604 6.96419e-22)
(0.528271 -0.0185236 2.1959e-22)
(0.552257 -0.0199274 -1.93203e-22)
(0.574489 -0.0208606 1.99796e-22)
(0.594733 -0.0213246 -1.15734e-22)
(0.00131341 -0.0508766 3.76203e-22)
(0.0251494 -0.0535757 1.3135e-21)
(0.0495368 -0.0543841 -3.05688e-23)
(0.0744804 -0.0533616 -1.03881e-21)
(0.100058 -0.0507058 8.42039e-22)
(0.126369 -0.0467311 -1.21664e-21)
(0.153533 -0.0418267 6.66064e-22)
(0.181615 -0.0364294 -7.8747e-22)
(0.210658 -0.0309755 1.40879e-22)
(0.240589 -0.0258695 3.847e-22)
(0.271319 -0.0214486 -2.14362e-22)
(0.302627 -0.0179524 7.90984e-24)
(0.334302 -0.015524 7.1593e-23)
(0.366022 -0.0141765 -3.42777e-22)
(0.397494 -0.0138467 6.29528e-24)
(0.428361 -0.0143531 2.01736e-22)
(0.4583 -0.0154976 -1.89976e-22)
(0.487007 -0.0170002 -2.95669e-23)
(0.514185 -0.0186469 1.94099e-23)
(0.539689 -0.0201609 -2.72489e-22)
(0.563281 -0.021418 3.11098e-22)
(0.585082 -0.0222069 -4.70314e-22)
(0.604878 -0.0225394 3.4712e-23)
(0.0214428 -0.0530556 5.38066e-21)
(0.0452175 -0.0557971 -1.42402e-21)
(0.0694164 -0.056641 1.66518e-22)
(0.0940512 -0.0556522 2.61645e-22)
(0.119213 -0.0530311 -2.72759e-22)
(0.145021 -0.0490929 -1.403e-21)
(0.171621 -0.044225 -2.40285e-22)
(0.199103 -0.038861 1.50997e-22)
(0.227536 -0.0334325 -3.33249e-22)
(0.256874 -0.0283398 -4.44139e-22)
(0.287044 -0.0239164 1.70725e-22)
(0.317835 -0.0203987 -1.70874e-23)
(0.349039 -0.0179286 -1.85489e-22)
(0.380327 -0.016518 1.14341e-22)
(0.411401 -0.0161049 -4.19445e-23)
(0.441886 -0.0165079 -8.22051e-23)
(0.471454 -0.0175328 1.86456e-22)
(0.499781 -0.0189008 -1.13318e-23)
(0.526572 -0.0204046 -1.39109e-22)
(0.551663 -0.021769 2.43109e-22)
(0.574828 -0.022879 -2.97352e-22)
(0.596172 -0.0235232 2.42107e-22)
(0.6155 -0.0237237 -5.38174e-23)
(0.0424592 -0.0552221 -7.5481e-21)
(0.0661746 -0.0579976 -5.1482e-21)
(0.0901904 -0.0588687 3.07661e-21)
(0.114524 -0.0579062 1.00562e-21)
(0.139279 -0.0553137 -2.14359e-21)
(0.164592 -0.0514074 2.53212e-21)
(0.19063 -0.0465732 -7.27339e-23)
(0.21751 -0.0412414 4.08013e-22)
(0.245327 -0.035839 -1.69372e-22)
(0.274054 -0.0307616 7.76965e-23)
(0.303639 -0.0263385 2.80338e-23)
(0.333879 -0.0228025 2.30243e-23)
(0.364573 -0.0202939 9.66684e-23)
(0.395385 -0.0188229 1.46055e-22)
(0.426014 -0.0183285 -2.95663e-22)
(0.45607 -0.0186296 -2.52095e-22)
(0.48522 -0.0195357 -7.66009e-23)
(0.513123 -0.0207697 5.93014e-23)
(0.539486 -0.0221307 -6.34424e-22)
(0.56413 -0.0233457 -2.14855e-22)
(0.586839 -0.0243084 1.33706e-22)
(0.607702 -0.0248079 -2.61975e-22)
(0.626545 -0.0248766 1.88893e-22)
(0.0642702 -0.057376 1.57798e-21)
(0.0879248 -0.0601767 3.31282e-21)
(0.11176 -0.0610671 2.48066e-21)
(0.135798 -0.0601238 -3.10763e-22)
(0.160154 -0.0575538 1.00016e-21)
(0.184979 -0.0536746 -1.42845e-21)
(0.21046 -0.0488709 -9.15995e-22)
(0.236737 -0.0435699 8.43009e-22)
(0.26393 -0.0381936 -1.65379e-22)
(0.292033 -0.0331329 2.10956e-22)
(0.32101 -0.0287122 -2.45728e-22)
(0.350671 -0.0251608 7.31724e-23)
(0.380819 -0.0226163 5.46882e-23)
(0.411114 -0.0210875 -1.09866e-22)
(0.441254 -0.0205139 1.10988e-22)
(0.470835 -0.0207148 2.7169e-22)
(0.499524 -0.0215032 -2.67557e-22)
(0.526962 -0.022604 1.74891e-22)
(0.552861 -0.0238228 2.39136e-22)
(0.577027 -0.0248888 3.15369e-22)
(0.599254 -0.0257046 -4.11852e-23)
(0.619616 -0.02606 2.47212e-22)
(0.637957 -0.0259972 -2.76326e-22)
(0.0867852 -0.0595156 -2.00427e-21)
(0.110374 -0.0623335 1.28047e-21)
(0.134028 -0.0632359 -8.29075e-22)
(0.157774 -0.062305 -4.6149e-22)
(0.181736 -0.0597515 2.13909e-22)
(0.206079 -0.0558946 -1.9952e-21)
(0.231009 -0.0511179 1.48886e-22)
(0.256684 -0.0458456 5.11899e-22)
(0.283248 -0.040495 -3.5054e-22)
(0.310714 -0.0354518 5.716e-22)
(0.339065 -0.0310354 -2.49384e-22)
(0.368119 -0.0274708 6.75434e-23)
(0.397688 -0.024893 -1.25252e-22)
(0.427429 -0.0233087 1.43368e-23)
(0.45704 -0.0226579 -1.76332e-22)
(0.486107 -0.0227603 5.78563e-24)
(0.514293 -0.0234324 -4.13784e-23)
(0.54123 -0.0244011 2.67106e-22)
(0.566631 -0.0254787 1.0342e-22)
(0.59029 -0.0263966 2.72175e-22)
(0.612012 -0.0270662 2.73969e-22)
(0.631856 -0.0272783 -1.4914e-22)
(0.649684 -0.0270847 -4.65715e-22)
(0.109916 -0.0616389 -1.03632e-22)
(0.13343 -0.0644671 -3.96857e-21)
(0.156899 -0.0653746 2.54709e-21)
(0.180355 -0.0644496 5.35736e-22)
(0.203927 -0.0619069 2.36681e-21)
(0.227794 -0.0580674 4.78586e-22)
(0.252176 -0.0533141 -1.29419e-21)
(0.277252 -0.0480683 -3.37237e-22)
(0.303183 -0.0427424 -3.60668e-22)
(0.330003 -0.037717 -1.6444e-22)
(0.35771 -0.033306 2.61456e-23)
(0.386134 -0.02973 8.77701e-24)
(0.415095 -0.027121 4.34684e-24)
(0.444249 -0.0254834 2.70288e-22)
(0.473295 -0.0247575 -5.62838e-24)
(0.501809 -0.0247632 1.05291e-23)
(0.529457 -0.0253205 3.88417e-22)
(0.555858 -0.0261586 -3.21926e-22)
(0.580731 -0.0270962 -2.61159e-22)
(0.603858 -0.0278674 7.68272e-23)
(0.625055 -0.0283921 -4.96659e-23)
(0.644366 -0.0284621 -3.52096e-22)
(0.661672 -0.0281387 7.1233e-22)
(0.133578 -0.0637443 -3.91305e-21)
(0.157005 -0.066576 -7.67645e-22)
(0.180282 -0.0674824 -2.72193e-21)
(0.203445 -0.0665573 3.21316e-21)
(0.22663 -0.0640198 -4.22834e-22)
(0.250026 -0.060193 -1.0344e-21)
(0.273865 -0.0554592 1.07725e-21)
(0.298344 -0.0502373 -4.78838e-22)
(0.32364 -0.0449348 4.0919e-22)
(0.349805 -0.0399269 6.49766e-22)
(0.376855 -0.0355223 -1.78976e-22)
(0.404629 -0.0319364 7.58363e-23)
(0.432956 -0.0292979 -6.38705e-23)
(0.461492 -0.027609 6.58936e-23)
(0.489939 -0.0268099 -2.86745e-22)
(0.517867 -0.0267207 -6.12286e-23)
(0.544944 -0.0271651 -1.0709e-22)
(0.570779 -0.0278744 1.28778e-23)
(0.595098 -0.0286738 1.64556e-22)
(0.61767 -0.0292999 1.11372e-22)
(0.638326 -0.0296812 -2.44908e-22)
(0.657092 -0.0296106 2.01611e-24)
(0.673869 -0.0291588 -8.63202e-23)
(0.157689 -0.0658293 1.63456e-21)
(0.181013 -0.0686586 5.26081e-21)
(0.204089 -0.0695581 -5.65064e-21)
(0.226954 -0.0686275 2.3367e-21)
(0.249753 -0.0660901 -1.84556e-21)
(0.27268 -0.0622715 7.06051e-22)
(0.295982 -0.0575534 -5.74471e-22)
(0.319865 -0.0523525 1.70437e-21)
(0.344526 -0.0470716 -7.29683e-22)
(0.370031 -0.0420807 -7.719e-22)
(0.396412 -0.0376826 5.55039e-23)
(0.423518 -0.0340878 7.91052e-23)
(0.451188 -0.0314215 -8.81193e-23)
(0.47908 -0.0296831 -9.77091e-23)
(0.5069 -0.0288127 6.50449e-23)
(0.534212 -0.0286307 4.1848e-23)
(0.560688 -0.0289641 3.36862e-22)
(0.58593 -0.0295467 -4.99461e-23)
(0.60967 -0.0302097 -2.80115e-22)
(0.631669 -0.0306928 -1.6466e-22)
(0.651769 -0.0309327 -9.51838e-23)
(0.669981 -0.0307235 -2.21043e-22)
(0.686224 -0.0301449 -2.57304e-23)
(0.182171 -0.0678915 -1.63897e-21)
(0.205374 -0.0707131 2.16888e-21)
(0.228235 -0.0716007 -3.38856e-21)
(0.250796 -0.0706596 1.70302e-21)
(0.273207 -0.0681176 1.68676e-21)
(0.295668 -0.0643026 1.56479e-21)
(0.318434 -0.0595965 -2.09594e-22)
(0.341725 -0.0544136 -1.40324e-21)
(0.365751 -0.0491523 6.69157e-22)
(0.390593 -0.0441774 -2.002e-22)
(0.416296 -0.0397857 -1.65539e-22)
(0.442719 -0.0361828 -3.96143e-23)
(0.469713 -0.0334898 9.11654e-23)
(0.496937 -0.0317036 2.89463e-22)
(0.524103 -0.0307637 -2.66291e-22)
(0.550773 -0.030491 -1.83478e-22)
(0.576623 -0.0307156 8.98069e-23)
(0.601247 -0.0311736 2.12539e-23)
(0.624389 -0.0317027 5.13991e-22)
(0.645799 -0.0320451 -2.86638e-22)
(0.665331 -0.0321459 2.67376e-22)
(0.682982 -0.0318003 -1.23992e-22)
(0.698689 -0.0310969 4.22994e-22)
(0.206951 -0.0699281 1.59426e-21)
(0.230009 -0.0727374 1.45411e-21)
(0.25264 -0.0736085 4.86056e-21)
(0.274888 -0.0726526 1.36513e-22)
(0.296906 -0.0701017 1.35618e-23)
(0.318902 -0.0662864 -2.03161e-21)
(0.341136 -0.0615885 1.36149e-21)
(0.363838 -0.0564205 2.10372e-22)
(0.38723 -0.0511766 4.78092e-22)
(0.411406 -0.0462163 8.54904e-23)
(0.436424 -0.0418305 6.28682e-23)
(0.462153 -0.0382199 -2.22991e-23)
(0.488454 -0.0355012 -5.71152e-23)
(0.51499 -0.0336687 -9.26038e-23)
(0.541481 -0.0326612 3.45299e-22)
(0.567485 -0.0322999 6.71977e-23)
(0.592686 -0.0324179 -3.74459e-22)
(0.616674 -0.032754 1.00989e-22)
(0.639199 -0.0331516 -1.17504e-22)
(0.660006 -0.0333562 -7.30174e-23)
(0.678961 -0.0333203 -7.87076e-22)
(0.696046 -0.0328409 6.99476e-22)
(0.711217 -0.0320148 5.86722e-23)
(0.231957 -0.0719359 -6.0277e-22)
(0.254846 -0.0747289 -7.83256e-22)
(0.277228 -0.0755799 3.66452e-21)
(0.299151 -0.0746056 -5.88701e-21)
(0.320772 -0.072042 -1.27104e-21)
(0.342301 -0.0682226 -5.5581e-22)
(0.364006 -0.0635294 -1.13437e-21)
(0.386122 -0.0583733 -9.30796e-22)
(0.408882 -0.0531442 5.01324e-22)
(0.432391 -0.0481969 -6.67425e-22)
(0.456718 -0.0438164 2.75521e-22)
(0.481744 -0.040198 -6.6965e-24)
(0.50734 -0.0374544 3.24608e-23)
(0.533172 -0.0355769 -7.65373e-23)
(0.558968 -0.0345035 -2.59089e-22)
(0.584286 -0.0340558 4.20628e-22)
(0.60882 -0.0340698 9.25813e-23)
(0.632153 -0.0342865 -3.29198e-23)
(0.654048 -0.0345557 1.58127e-22)
(0.674241 -0.0346252 2.86784e-22)
(0.692611 -0.0344556 1.42103e-22)
(0.709129 -0.0338452 -8.80318e-23)
(0.723765 -0.0328989 -4.973e-22)
(0.257123 -0.0739119 3.36027e-22)
(0.279816 -0.0766854 1.90585e-21)
(0.301928 -0.0775132 -1.552e-21)
(0.323513 -0.0765173 2.86275e-21)
(0.344729 -0.0739379 1.70237e-21)
(0.365789 -0.070111 5.26931e-22)
(0.386966 -0.0654192 1.01696e-21)
(0.408499 -0.0602718 -9.91126e-22)
(0.43063 -0.055055 -1.98025e-22)
(0.453472 -0.0501189 -5.57344e-22)
(0.477107 -0.0457426 1.26112e-22)
(0.501423 -0.0421164 -6.36147e-23)
(0.526301 -0.0393483 6.97546e-23)
(0.551415 -0.037427 -1.60175e-22)
(0.576502 -0.0362895 3.48694e-22)
(0.601118 -0.0357575 1.36681e-24)
(0.624968 -0.03567 -3.43847e-22)
(0.647632 -0.0357703 3.4624e-22)
(0.668884 -0.035914 -3.3516e-22)
(0.688455 -0.0358519 6.76099e-23)
(0.706236 -0.0355516 -5.14502e-22)
(0.722186 -0.0348133 8.97832e-22)
(0.73629 -0.0337495 -5.83214e-22)
(0.282387 -0.0758526 8.3124e-21)
(0.304853 -0.078604 -3.3025e-21)
(0.326673 -0.0794064 -4.70447e-21)
(0.347903 -0.0783866 -1.28986e-22)
(0.368706 -0.0757887 -2.82552e-22)
(0.389295 -0.0719514 -1.64438e-21)
(0.409944 -0.0672578 -2.91253e-22)
(0.430897 -0.0621162 1.13982e-23)
(0.452402 -0.0569092 8.05814e-22)
(0.474579 -0.0519822 8.35597e-23)
(0.497519 -0.0476088 1.43207e-22)
(0.521121 -0.0439742 -1.52306e-22)
(0.545275 -0.0411821 -1.04651e-23)
(0.569661 -0.039218 1.55829e-22)
(0.594025 -0.038018 -3.46783e-22)
(0.617926 -0.037404 1.04666e-22)
(0.641078 -0.0372177 -4.28784e-23)
(0.663063 -0.0372047 8.80088e-23)
(0.683663 -0.0372262 -1.26671e-22)
(0.702606 -0.0370358 2.19139e-22)
(0.719795 -0.0366083 6.03391e-22)
(0.735177 -0.0357453 -1.05472e-21)
(0.748753 -0.0345669 -5.61026e-22)
(0.307688 -0.0777545 2.83348e-22)
(0.329896 -0.0804819 2.51645e-21)
(0.3514 -0.0812574 -2.41968e-21)
(0.372259 -0.080212 -6.7454e-22)
(0.392638 -0.0775935 1.36991e-21)
(0.41275 -0.0737433 7.82594e-22)
(0.432872 -0.0690452 -3.55296e-22)
(0.453248 -0.0639066 -6.42643e-22)
(0.47413 -0.0587067 -2.48606e-22)
(0.495645 -0.0537868 -5.47954e-22)
(0.517892 -0.0494149 2.19194e-22)
(0.540777 -0.0457713 1.22192e-22)
(0.564201 -0.0429551 -1.91846e-23)
(0.587851 -0.0409492 -4.12431e-23)
(0.611483 -0.0396884 9.10087e-23)
(0.634659 -0.0389947 1.65136e-22)
(0.657104 -0.0387122 -5.10422e-22)
(0.6784 -0.0385892 -4.07682e-22)
(0.698342 -0.0384919 4.00797e-22)
(0.716652 -0.038177 -4.67013e-22)
(0.733248 -0.0376258 6.55654e-22)
(0.748065 -0.0366416 7.41738e-22)
(0.76112 -0.0353516 5.07765e-22)
(0.332972 -0.0796141 -1.52766e-21)
(0.354889 -0.0823165 5.14608e-21)
(0.376051 -0.0830641 1.51861e-23)
(0.39652 -0.0819921 3.15865e-22)
(0.416463 -0.0793516 -1.72851e-21)
(0.436095 -0.0754866 2.60522e-21)
(0.455688 -0.0707816 -3.16681e-22)
(0.47549 -0.0656432 -3.7791e-22)
(0.495753 -0.0604479 2.09495e-22)
(0.516609 -0.0555328 4.3365e-23)
(0.538165 -0.0511608 7.37102e-23)
(0.560333 -0.0475074 -2.35858e-23)
(0.583025 -0.0446672 -2.45282e-24)
(0.605934 -0.0426203 5.7693e-23)
(0.628826 -0.0413001 1.68173e-23)
(0.651271 -0.0405289 8.61449e-24)
(0.673001 -0.0401532 3.73018e-22)
(0.693602 -0.0399233 -1.71817e-22)
(0.71288 -0.039711 3.04863e-22)
(0.730557 -0.0392752 -2.08949e-22)
(0.746561 -0.0386041 -3.30301e-22)
(0.760817 -0.0375025 -9.6951e-22)
(0.773356 -0.0361041 4.32607e-23)
(0.358184 -0.0814278 5.68238e-21)
(0.379777 -0.0841048 -1.25549e-20)
(0.40057 -0.0848244 3.37951e-21)
(0.42063 -0.0837254 -4.20059e-21)
(0.440126 -0.0810622 2.35821e-21)
(0.45927 -0.0771808 -3.12962e-21)
(0.478335 -0.0724668 2.15075e-21)
(0.497565 -0.0673263 1.32161e-21)
(0.517214 -0.062133 -2.41518e-22)
(0.537416 -0.0572206 3.25461e-22)
(0.558283 -0.0528468 -1.1381e-22)
(0.579736 -0.0491826 1.4474e-22)
(0.601695 -0.0463182 -1.40821e-23)
(0.62386 -0.044231 1.38072e-22)
(0.64601 -0.042853 -3.69902e-23)
(0.667717 -0.0420065 -2.99404e-22)
(0.688728 -0.0415404 -2.68249e-22)
(0.708631 -0.0412071 -9.96323e-24)
(0.727243 -0.0408833 3.11924e-22)
(0.744286 -0.0403308 -5.22469e-23)
(0.759699 -0.0395437 6.31678e-23)
(0.7734 -0.0383284 2.89885e-22)
(0.785431 -0.0368251 5.88887e-22)
(0.383276 -0.0831922 3.68629e-21)
(0.40451 -0.085844 -4.18442e-21)
(0.424907 -0.0865361 -1.57313e-21)
(0.444539 -0.0854106 2.73355e-22)
(0.463575 -0.0827243 2.15989e-21)
(0.482225 -0.0788257 4.60489e-22)
(0.50076 -0.074101 -1.03763e-21)
(0.51942 -0.0689562 -3.7719e-22)
(0.538459 -0.0637626 1.17753e-22)
(0.558012 -0.0588505 -5.05969e-22)
(0.578197 -0.0544732 5.9329e-23)
(0.598938 -0.0507971 5.3499e-23)
(0.620166 -0.0479083 -6.37623e-23)
(0.641587 -0.0457813 2.4509e-23)
(0.662992 -0.0443469 2.27799e-23)
(0.68396 -0.0434274 -2.2775e-22)
(0.704249 -0.0428737 9.11097e-23)
(0.723452 -0.0424406 1.34238e-22)
(0.741398 -0.0420092 -2.46041e-22)
(0.757809 -0.041344 -1.80166e-22)
(0.772636 -0.0404448 -4.76257e-23)
(0.785787 -0.0391199 4.14485e-22)
(0.797318 -0.0375152 -2.08257e-22)
(0.4082 -0.0849036 -3.68151e-22)
(0.429041 -0.0875313 -1.24108e-22)
(0.449016 -0.0881973 -2.47039e-21)
(0.468199 -0.0870462 -3.4604e-21)
(0.486762 -0.0843372 6.35143e-21)
(0.504912 -0.0804209 -2.86425e-21)
(0.522915 -0.0756842 -1.10958e-21)
(0.541008 -0.0705332 7.65602e-22)
(0.559442 -0.0653371 4.22607e-22)
(0.578353 -0.0604232 -1.1121e-22)
(0.59786 -0.0560405 1.0638e-22)
(0.617894 -0.0523513 -1.80228e-22)
(0.638394 -0.0494377 -6.09443e-23)
(0.659074 -0.0472715 -3.75019e-24)
(0.679734 -0.045782 -8.88636e-24)
(0.699963 -0.0447917 8.42682e-23)
(0.719531 -0.0441535 2.75559e-22)
(0.738034 -0.0436239 -5.82294e-23)
(0.755316 -0.0430889 2.58021e-22)
(0.771098 -0.0423151 -4.74907e-22)
(0.785343 -0.0413081 -3.53441e-22)
(0.797952 -0.0398776 -2.63816e-22)
(0.808993 -0.038175 5.00273e-22)
(0.432911 -0.0865589 3.76862e-21)
(0.453326 -0.0891642 2.42393e-21)
(0.472852 -0.0898058 7.32204e-21)
(0.491567 -0.0886308 -1.4239e-21)
(0.509644 -0.0859001 -1.99281e-21)
(0.527286 -0.0819661 2.78353e-21)
(0.544756 -0.0772167 -6.1363e-22)
(0.562285 -0.0720578 2.21835e-22)
(0.58012 -0.0668571 -1.01688e-21)
(0.598394 -0.0619394 6.44675e-22)
(0.617232 -0.0575494 -1.54927e-22)
(0.636565 -0.053846 1.04417e-22)
(0.656342 -0.050907 2.35693e-23)
(0.676284 -0.048702 6.49796e-23)
(0.696204 -0.0471588 1.61432e-23)
(0.715696 -0.0460999 -1.0753e-23)
(0.734543 -0.0453799 -1.63955e-22)
(0.752351 -0.0447575 1.40298e-22)
(0.768971 -0.0441227 2.96215e-22)
(0.784129 -0.0432447 -1.53752e-22)
(0.797798 -0.042134 -5.96111e-24)
(0.809873 -0.040602 5.98832e-22)
(0.820434 -0.0388054 -1.40996e-22)
(0.457369 -0.0881548 -1.14053e-21)
(0.477324 -0.0907399 -1.01337e-20)
(0.496375 -0.0913598 -6.52281e-22)
(0.514603 -0.0901631 1.59291e-21)
(0.532181 -0.0874122 8.96387e-22)
(0.54931 -0.083461 1.21406e-21)
(0.566245 -0.0786984 -2.86515e-21)
(0.583212 -0.0735305 1.00199e-21)
(0.600453 -0.0683233 -1.08224e-21)
(0.618099 -0.0633997 3.84654e-22)
(0.636275 -0.0590007 -3.81661e-22)
(0.654916 -0.0552817 6.22607e-23)
(0.673977 -0.0523168 1.16923e-23)
(0.693187 -0.0500734 -1.00214e-22)
(0.71237 -0.0484777 -1.59102e-22)
(0.73113 -0.0473522 1.26706e-22)
(0.749261 -0.0465535 1.11871e-22)
(0.766376 -0.0458418 1.60147e-22)
(0.782341 -0.0451113 2.05465e-23)
(0.796881 -0.0441333 3.15907e-22)
(0.809981 -0.0429232 -7.45617e-23)
(0.821531 -0.041294 -1.28222e-22)
(0.831621 -0.039407 -5.14503e-23)
(0.481533 -0.0896882 -7.07584e-21)
(0.500997 -0.0922562 6.41277e-22)
(0.519548 -0.0928576 2.79587e-21)
(0.537272 -0.091642 -1.6223e-21)
(0.554339 -0.0888729 -7.51417e-22)
(0.570947 -0.0849056 -1.14053e-21)
(0.587347 -0.0801297 7.62474e-22)
(0.603755 -0.0749517 -1.58595e-21)
(0.620409 -0.0697365 7.68825e-22)
(0.637435 -0.0648052 -2.94222e-22)
(0.654957 -0.0603953 2.29367e-22)
(0.672914 -0.0566594 -5.86234e-23)
(0.691268 -0.0536681 1.45307e-23)
(0.709753 -0.0513865 7.32746e-23)
(0.728207 -0.0497394 -1.69661e-22)
(0.74624 -0.0485496 -2.53227e-23)
(0.763662 -0.047675 2.62834e-23)
(0.780091 -0.0468775 -1.66961e-22)
(0.795405 -0.0460553 -5.19831e-22)
(0.809334 -0.0449816 -4.27667e-23)
(0.821874 -0.0436764 5.27112e-22)
(0.832908 -0.0419542 -1.14338e-23)
(0.842538 -0.0399807 1.57919e-22)
(0.505366 -0.0911574 -1.30605e-20)
(0.52431 -0.0937118 9.80555e-21)
(0.542338 -0.0942984 2.84626e-21)
(0.55954 -0.0930672 -3.70184e-21)
(0.576086 -0.0902823 3.32531e-21)
(0.592168 -0.0863003 6.83631e-22)
(0.60803 -0.0815113 1.43344e-21)
(0.623883 -0.0763225 -2.47988e-21)
(0.639956 -0.0710978 -2.90469e-22)
(0.65637 -0.0661569 4.45188e-22)
(0.673249 -0.0617345 2.80762e-22)
(0.690532 -0.0579804 -3.66652e-22)
(0.708188 -0.0549619 5.9738e-23)
(0.725959 -0.0526422 3.6833e-23)
(0.74369 -0.050945 8.04217e-23)
(0.761005 -0.0496927 -1.42007e-22)
(0.777724 -0.0487451 2.32996e-22)
(0.793475 -0.0478654 -1.18536e-22)
(0.808147 -0.0469554 1.00857e-22)
(0.821475 -0.0457903 2.26027e-22)
(0.833463 -0.0443944 -4.09245e-22)
(0.843991 -0.0425834 3.47991e-22)
(0.853171 -0.0405273 4.27861e-23)
(0.528834 -0.0925603 1.90116e-21)
(0.547229 -0.0951052 -2.97606e-21)
(0.564713 -0.0956811 9.59158e-23)
(0.581378 -0.094438 -4.55391e-21)
(0.597392 -0.0916403 9.87778e-22)
(0.612944 -0.0876453 3.15115e-21)
(0.628269 -0.0828439 -3.84759e-21)
(0.64357 -0.0776438 3.36034e-21)
(0.659068 -0.0724083 1.05622e-22)
(0.67488 -0.0674561 -1.0692e-21)
(0.691126 -0.0630195 6.07166e-22)
(0.707747 -0.0592458 -1.58287e-23)
(0.724716 -0.0561994 -5.42055e-23)
(0.741782 -0.0538419 2.24824e-23)
(0.758802 -0.0520955 1.20443e-22)
(0.775407 -0.0507828 -7.713e-23)
(0.791433 -0.0497648 1.71572e-23)
(0.806514 -0.0488064 -3.25767e-22)
(0.820553 -0.0478125 7.16318e-22)
(0.833288 -0.0465603 -3.84615e-22)
(0.844734 -0.0450779 -4.10765e-22)
(0.854768 -0.0431824 -1.50176e-22)
(0.863509 -0.0410475 1.55838e-22)
(0.551904 -0.0938894 8.73679e-21)
(0.569726 -0.0964294 2.54155e-21)
(0.586647 -0.0969994 -6.94465e-22)
(0.602761 -0.0957488 -2.97951e-21)
(0.618235 -0.0929419 -2.82152e-22)
(0.633251 -0.0889367 -3.33069e-21)
(0.64804 -0.0841243 8.52706e-22)
(0.662792 -0.0789134 9.64722e-22)
(0.677724 -0.0736667 -8.87053e-23)
(0.692943 -0.0687022 -3.62173e-22)
(0.708567 -0.0642501 -2.31649e-23)
(0.724538 -0.0604558 4.48574e-22)
(0.740832 -0.0573812 -5.11214e-23)
(0.757204 -0.054986 3.4443e-24)
(0.773523 -0.0531916 6.87413e-23)
(0.789431 -0.0518205 -5.36903e-23)
(0.804773 -0.050735 3.04718e-23)
(0.819195 -0.0497013 -1.21921e-22)
(0.83261 -0.0486275 -3.27257e-22)
(0.844763 -0.0472925 9.959e-23)
(0.855678 -0.0457279 3.87963e-22)
(0.865228 -0.0437521 2.68904e-22)
(0.873542 -0.0415423 -2.78621e-22)
(0.574546 -0.0951321 1.27174e-21)
(0.591772 -0.0976725 3.21663e-21)
(0.608114 -0.0982424 -2.85097e-21)
(0.623665 -0.09699 -2.35374e-21)
(0.638592 -0.094179 3.65894e-21)
(0.65307 -0.0901676 1.76388e-21)
(0.667322 -0.0853471 -2.46121e-21)
(0.681531 -0.0801269 -7.16392e-22)
(0.695904 -0.0748696 -2.98047e-22)
(0.71054 -0.0698927 2.54159e-22)
(0.725555 -0.0654246 -3.08709e-23)
(0.740887 -0.0616093 1.92365e-22)
(0.756519 -0.0585062 1.72594e-23)
(0.772211 -0.056074 -1.60214e-23)