/*--------------------------------*- C++ -*----------------------------------*\
  =========                 |
  \\      /  F ield         | OpenFOAM: The Open Source CFD Toolbox
   \\    /   O peration     | Website:  https://openfoam.org
    \\  /    A nd           | Version:  7
     \\/     M anipulation  |
\*---------------------------------------------------------------------------*/
FoamFile
{
    version     2.0;
    format      ascii;
    class       volVectorField;
    location    "220";
    object      U;
}
// * * * * * * * * * * * * * * * * * * * * * * * * * * * * * * * * * * * * * //

dimensions      [0 1 -1 0 0 0 0];

internalField   nonuniform List<vector> 
36600
(
(0.000192176 -0.0340318 -1.09228e-21)
(-0.00034018 -0.0891382 -5.69198e-21)
(-0.00249749 -0.133716 6.95181e-22)
(-0.00605887 -0.168571 1.02478e-21)
(-0.0109516 -0.194715 1.78666e-21)
(-0.017029 -0.213337 -1.30091e-20)
(-0.024089 -0.225727 2.20299e-21)
(-0.0319103 -0.233195 -8.59852e-21)
(-0.0402706 -0.236987 -1.83584e-20)
(-0.048965 -0.238205 1.55524e-20)
(-0.0578181 -0.237756 4.58325e-21)
(-0.0666913 -0.236318 -5.46668e-21)
(-0.0754841 -0.23433 6.67808e-21)
(-0.0841322 -0.232012 9.12602e-21)
(-0.092602 -0.229388 -5.73768e-21)
(-0.100882 -0.22633 -7.71478e-21)
(-0.108978 -0.222586 -1.84932e-20)
(-0.116934 -0.217819 -1.43501e-21)
(-0.124664 -0.211627 -3.14336e-21)
(-0.13199 -0.203517 -6.23881e-21)
(0.000792491 -0.0336163 -5.27657e-21)
(0.00103557 -0.0878876 4.30675e-21)
(-0.000809433 -0.131651 -4.95858e-21)
(-0.00437034 -0.165742 -1.95378e-20)
(-0.0094989 -0.191208 8.9334e-21)
(-0.0159828 -0.209262 5.38618e-20)
(-0.0235648 -0.221207 -3.28145e-20)
(-0.0319816 -0.228355 5.62237e-21)
(-0.0409815 -0.231942 2.62886e-20)
(-0.0503416 -0.233058 -7.68211e-23)
(-0.059879 -0.232589 1.52462e-20)
(-0.0694566 -0.23119 -2.00579e-20)
(-0.0789826 -0.229281 2.09193e-20)
(-0.0884069 -0.227064 -1.80294e-20)
(-0.0977138 -0.22455 -6.87821e-21)
(-0.106911 -0.221601 3.49654e-20)
(-0.116025 -0.217959 -1.07066e-20)
(-0.125117 -0.213289 1.6732e-21)
(-0.134102 -0.207189 -2.04092e-20)
(-0.142809 -0.199156 -2.10799e-21)
(0.00137233 -0.0330872 -4.05405e-20)
(0.00235719 -0.0863671 5.14077e-21)
(0.00080296 -0.129218 7.80745e-21)
(-0.00276701 -0.162492 4.90826e-20)
(-0.008128 -0.187261 -3.89084e-20)
(-0.015002 -0.20475 -6.00055e-20)
(-0.0230769 -0.216269 5.40106e-20)
(-0.0320478 -0.223122 -1.45374e-20)
(-0.0416342 -0.226532 -7.43225e-21)
(-0.0515955 -0.227569 -3.64052e-20)
(-0.0617413 -0.227095 9.66196e-21)
(-0.0719352 -0.225743 3.54629e-20)
(-0.0820934 -0.223912 -7.4753e-21)
(-0.0921792 -0.221785 2.86291e-20)
(-0.102194 -0.219361 -2.33626e-20)
(-0.112164 -0.216493 -7.48729e-21)
(-0.122136 -0.212922 5.55568e-20)
(-0.13219 -0.208313 -3.46779e-21)
(-0.142239 -0.202273 8.63519e-20)
(-0.152115 -0.194295 -2.03272e-20)
(0.00192595 -0.0324477 6.60418e-20)
(0.00361211 -0.0845858 -2.85417e-20)
(0.00232424 -0.126432 -1.97511e-20)
(-0.00126464 -0.158842 -4.55298e-20)
(-0.00685347 -0.182897 2.73148e-20)
(-0.0140991 -0.19983 -4.79209e-21)
(-0.0226354 -0.210943 -8.95479e-20)
(-0.032117 -0.217529 -9.28941e-21)
(-0.0422348 -0.22079 -1.93238e-20)
(-0.0527308 -0.221773 -2.67286e-21)
(-0.0634067 -0.221313 -3.33228e-20)
(-0.0741264 -0.220019 3.70629e-20)
(-0.084813 -0.218267 -5.48464e-20)
(-0.0954417 -0.216223 -1.64405e-21)
(-0.10603 -0.213873 1.49132e-20)
(-0.116622 -0.211062 -1.13572e-19)
(-0.127284 -0.207531 -9.10295e-20)
(-0.138115 -0.202951 4.91954e-20)
(-0.149026 -0.19694 -6.66873e-20)
(-0.159843 -0.188989 2.43128e-21)
(0.00244786 -0.0317016 -8.88311e-21)
(0.00478828 -0.0825548 1.12241e-19)
(0.00373976 -0.12331 5.17995e-20)
(0.00012175 -0.154812 -2.25075e-21)
(-0.00568935 -0.178142 1.37917e-20)
(-0.0132866 -0.194529 2.42495e-21)
(-0.022251 -0.20526 4.55895e-20)
(-0.032198 -0.211608 5.31681e-20)
(-0.0427906 -0.214752 2.22819e-20)
(-0.0537535 -0.215706 7.88259e-20)
(-0.0648801 -0.215282 -8.94249e-20)
(-0.0760338 -0.21406 -1.89759e-20)
(-0.087143 -0.212393 3.9364e-20)
(-0.0981936 -0.21043 -6.71886e-20)
(-0.109217 -0.208142 3.05451e-20)
(-0.120275 -0.205368 7.12365e-20)
(-0.131452 -0.20185 1.80859e-20)
(-0.142868 -0.197268 2.33069e-20)
(-0.15443 -0.191252 -3.77102e-20)
(-0.16595 -0.183302 4.95805e-21)
(0.00293282 -0.0308537 -4.21871e-20)
(0.00587433 -0.0802864 2.5712e-20)
(0.00503553 -0.119871 -4.26885e-20)
(0.00137779 -0.150426 3.85323e-20)
(-0.00464912 -0.173024 3.3519e-20)
(-0.0125765 -0.188877 1.54606e-20)
(-0.0219344 -0.199251 2.80803e-20)
(-0.0323001 -0.205394 -1.98633e-20)
(-0.04331 -0.208451 -1.20022e-19)
(-0.0546715 -0.209407 -1.05884e-19)
(-0.0661691 -0.209043 -6.78082e-20)
(-0.0776645 -0.20791 2.57614e-20)
(-0.0890901 -0.206338 -1.46655e-20)
(-0.10044 -0.204456 1.10403e-19)
(-0.11176 -0.202224 -3.95259e-20)
(-0.123124 -0.199473 3.16636e-20)
(-0.134637 -0.195945 4.6637e-20)
(-0.14644 -0.191333 -2.66233e-20)
(-0.158435 -0.18528 2.21993e-19)
(-0.170413 -0.177301 -8.28292e-20)
(0.00337596 -0.0299091 5.08941e-20)
(0.00685963 -0.077794 -6.25226e-20)
(0.00619857 -0.116134 -9.41768e-20)
(0.00249009 -0.145709 -2.42954e-20)
(-0.00374555 -0.16757 1.06795e-20)
(-0.0119804 -0.182905 1.62842e-20)
(-0.021696 -0.19295 5.3851e-20)
(-0.0324332 -0.198918 1.15633e-20)
(-0.0438024 -0.201923 4.63319e-21)
(-0.0554941 -0.202913 1.89792e-19)
(-0.0672835 -0.202634 1.41338e-19)
(-0.0790291 -0.201612 -8.33167e-20)
(-0.0906654 -0.20015 -1.22677e-20)
(-0.102193 -0.198358 -3.29804e-20)
(-0.113668 -0.196181 3.20809e-20)
(-0.12518 -0.193443 -1.67573e-19)
(-0.136848 -0.189888 -3.42047e-20)
(-0.148837 -0.185219 -5.22332e-20)
(-0.161043 -0.1791 -1.25413e-19)
(-0.173232 -0.171061 6.8841e-20)
(0.00377276 -0.0288738 8.19978e-21)
(0.00773444 -0.0750925 -2.9755e-20)
(0.00721694 -0.112121 8.4655e-20)
(0.00344628 -0.140686 -3.15672e-20)
(-0.00299038 -0.161809 -2.81669e-20)
(-0.0115092 -0.176642 4.41981e-20)
(-0.0215459 -0.186386 -7.53329e-20)
(-0.0326068 -0.192215 -1.05745e-20)
(-0.0442775 -0.195201 1.39684e-19)
(-0.0562317 -0.196258 -8.85419e-20)
(-0.0682348 -0.196096 -3.61941e-20)
(-0.0801406 -0.195209 4.28986e-20)
(-0.0918839 -0.193877 -1.11442e-20)
(-0.10347 -0.192188 -5.91069e-21)
(-0.114962 -0.190073 4.61262e-20)
(-0.126462 -0.187347 -1.19811e-19)
(-0.138105 -0.183752 4.31946e-20)
(-0.15008 -0.179007 -3.13842e-20)
(-0.162276 -0.172791 -6.9996e-20)
(-0.174427 -0.164661 2.60686e-20)
(0.00411912 -0.0277538 -2.34515e-20)
(0.00848995 -0.0721973 1.63621e-19)
(0.00807992 -0.107853 -3.61126e-20)
(0.00423531 -0.135383 -4.29824e-20)
(-0.00239427 -0.155769 1.01871e-19)
(-0.0111729 -0.170119 -1.05364e-19)
(-0.0214934 -0.179591 -5.08857e-20)
(-0.03283 -0.185314 -8.79847e-20)
(-0.0447448 -0.188319 -9.56349e-20)
(-0.0568951 -0.189477 -6.2091e-20)
(-0.0690356 -0.189464 -8.30772e-20)
(-0.0810142 -0.188743 1.5079e-19)
(-0.0927637 -0.187566 -1.71553e-20)
(-0.104291 -0.186001 -3.39907e-20)
(-0.115665 -0.183961 -1.7704e-19)
(-0.126998 -0.181252 9.97122e-20)
(-0.138439 -0.177614 2.56466e-20)
(-0.150201 -0.172775 6.03065e-20)
(-0.162169 -0.166438 4.01035e-20)
(-0.174038 -0.158181 -1.06336e-19)
(0.00441141 -0.026556 -7.16125e-20)
(0.00911841 -0.0691248 9.35789e-20)
(0.00877808 -0.103353 5.25633e-20)
(0.00484749 -0.129829 2.36546e-20)
(-0.0019664 -0.14948 8.92568e-20)
(-0.0109798 -0.163367 -6.94303e-20)
(-0.0215465 -0.172596 1.49681e-19)
(-0.0331109 -0.178249 8.68783e-21)
(-0.0452131 -0.181308 1.35574e-19)
(-0.0574945 -0.182604 -7.77821e-20)
(-0.0696985 -0.182775 1.25636e-19)
(-0.0816657 -0.182253 -1.22318e-19)
(-0.0933246 -0.181262 -1.09722e-19)
(-0.104681 -0.179848 9.25345e-20)
(-0.115808 -0.177905 3.24745e-19)
(-0.126823 -0.175227 -1.76419e-19)
(-0.137889 -0.171548 1.44363e-19)
(-0.149246 -0.166608 3.21735e-20)
(-0.160773 -0.160124 -1.21002e-19)
(-0.172126 -0.151708 1.01406e-19)
(0.00464643 -0.0252874 1.28788e-19)
(0.00961312 -0.0658921 -7.29164e-20)
(0.00930348 -0.0986458 2.33959e-20)
(0.00527478 -0.124049 9.0315e-20)
(-0.00171427 -0.142971 -6.99687e-20)
(-0.0109369 -0.156416 1.60996e-19)
(-0.0217116 -0.165431 -2.91676e-20)
(-0.033456 -0.171047 3.82679e-21)
(-0.0456898 -0.174197 -1.86524e-19)
(-0.0580389 -0.175668 1.17342e-19)
(-0.0702353 -0.176062 2.62755e-20)
(-0.0821105 -0.175775 -3.32973e-20)
(-0.0935868 -0.175006 4.28818e-20)
(-0.104667 -0.173777 -1.68191e-19)
(-0.115422 -0.171963 -9.36819e-20)
(-0.125976 -0.169339 1.93355e-19)
(-0.136503 -0.165632 -1.06567e-19)
(-0.147268 -0.160587 -1.49892e-19)
(-0.158152 -0.153939 2.74745e-19)
(-0.168762 -0.145328 -1.9534e-21)
(0.00482149 -0.0239552 1.06049e-19)
(0.00996856 -0.0625167 -1.31427e-19)
(0.00964968 -0.0937542 -1.36596e-19)
(0.005511 -0.118072 -6.47643e-20)
(-0.00164336 -0.136272 -4.47534e-20)
(-0.0110489 -0.149293 -5.21969e-20)
(-0.0219931 -0.158124 -2.16919e-19)
(-0.0338698 -0.163736 2.67695e-20)
(-0.0461801 -0.167014 -9.02873e-20)
(-0.0585354 -0.168699 3.14103e-19)
(-0.0706556 -0.169353 -1.8102e-19)
(-0.0823623 -0.169341 1.11248e-19)
(-0.0935692 -0.168836 -3.38037e-20)
(-0.104272 -0.167834 1.821e-19)
(-0.11454 -0.166187 1.44532e-20)
(-0.124497 -0.163651 -1.51974e-19)
(-0.134329 -0.159939 -2.60106e-20)
(-0.144326 -0.154796 7.78084e-21)
(-0.154374 -0.147967 -1.35172e-20)
(-0.164032 -0.139126 1.77455e-19)
(0.00493445 -0.022567 -1.32597e-19)
(0.0101805 -0.0590168 -1.2348e-19)
(0.00981202 -0.0887029 5.12794e-20)
(0.00555195 -0.111925 1.26847e-19)
(-0.00175694 -0.129411 -1.01679e-20)
(-0.0113182 -0.142029 -8.56582e-20)
(-0.0223927 -0.150703 1.90174e-19)
(-0.0343539 -0.156344 -2.08327e-20)
(-0.0466864 -0.159785 2.26412e-19)
(-0.0589878 -0.16172 -2.50494e-19)
(-0.070966 -0.162674 6.57951e-20)
(-0.0824315 -0.162981 7.6335e-20)
(-0.0932875 -0.162784 -2.48593e-21)
(-0.103521 -0.162056 -1.16962e-21)
(-0.113193 -0.160624 -1.40239e-19)
(-0.122428 -0.158221 1.96878e-20)
(-0.131418 -0.154537 1.82337e-19)
(-0.140481 -0.149312 2.29426e-19)
(-0.149513 -0.142295 -2.68495e-19)
(-0.158022 -0.133186 -1.73107e-19)
(0.00498368 -0.0211308 5.44155e-20)
(0.0102459 -0.0554107 8.32369e-20)
(0.00978762 -0.0835168 9.87331e-20)
(0.00539565 -0.105636 -1.66993e-19)
(-0.00205578 -0.122416 1.62248e-19)
(-0.0117444 -0.134652 1.64108e-19)
(-0.0229092 -0.143194 -6.41381e-20)
(-0.0349066 -0.148895 2.74872e-19)
(-0.047207 -0.152531 -2.76334e-19)
(-0.0593956 -0.154753 1.20885e-19)
(-0.0711683 -0.156047 1.2246e-19)
(-0.0823236 -0.156715 -9.95898e-21)
(-0.0927524 -0.156876 9.73685e-22)
(-0.102429 -0.156475 1.58491e-20)
(-0.111407 -0.155315 -1.07719e-19)
(-0.119804 -0.153098 1.05214e-19)
(-0.127817 -0.149488 -5.41755e-20)
(-0.135791 -0.144208 -1.18888e-19)
(-0.143639 -0.137002 1.49603e-19)
(-0.15082 -0.127587 3.08662e-20)
(0.00496816 -0.0196544 -3.17401e-20)
(0.0101632 -0.0517174 3.86645e-20)
(0.00957554 -0.0782208 -8.26353e-20)
(0.00504238 -0.0992335 -1.21569e-19)
(-0.00253823 -0.115317 -1.07486e-19)
(-0.0123242 -0.127187 -1.11588e-19)
(-0.023538 -0.135622 1.78686e-19)
(-0.0355225 -0.14141 -9.15221e-20)
(-0.0477363 -0.145273 7.18307e-20)
(-0.0597535 -0.147815 6.84139e-21)
(-0.0712586 -0.149487 -1.88123e-20)
(-0.0820374 -0.150562 4.60678e-20)
(-0.091967 -0.15113 -9.05113e-20)
(-0.101008 -0.151113 4.77845e-20)
(-0.109199 -0.150288 1.48409e-19)
(-0.116651 -0.148323 -2.12403e-19)
(-0.123563 -0.144846 -1.33436e-19)
(-0.130305 -0.139551 1.71712e-19)
(-0.136816 -0.132162 -1.00205e-19)
(-0.142501 -0.122403 -1.47754e-19)
(0.00488748 -0.0181462 1.13574e-19)
(0.00993241 -0.0479559 -1.14263e-19)
(0.00917693 -0.0728404 9.26646e-20)
(0.00449495 -0.0927452 1.46816e-19)
(-0.00319943 -0.108142 -2.57959e-20)
(-0.0130511 -0.119662 -9.39782e-20)
(-0.0242707 -0.128011 -1.76426e-19)
(-0.0361915 -0.13391 -1.32799e-19)
(-0.0482631 -0.138027 -2.62527e-19)
(-0.06005 -0.140922 2.5519e-20)
(-0.0712256 -0.143008 -2.22333e-20)
(-0.0815632 -0.14453 -1.80767e-19)
(-0.0909249 -0.145556 1.52972e-19)
(-0.0992544 -0.145985 1.86196e-19)
(-0.106575 -0.145563 -8.97907e-21)
(-0.112985 -0.143925 1.10707e-19)
(-0.118681 -0.140652 -5.48395e-20)
(-0.124059 -0.135395 7.75157e-21)
(-0.129089 -0.127842 1.44339e-19)
(-0.133125 -0.117698 3.4427e-19)
(0.00474186 -0.0166145 -5.02789e-20)
(0.00955488 -0.0441458 -3.36131e-20)
(0.00859512 -0.067401 9.46028e-20)
(0.00375878 -0.0861993 -1.3038e-19)
(-0.00403184 -0.100918 -7.31659e-20)
(-0.0139148 -0.112104 1.28756e-19)
(-0.0250949 -0.120384 -4.60014e-20)
(-0.0368991 -0.126416 -1.32387e-19)
(-0.0487707 -0.13081 2.13811e-19)
(-0.0602665 -0.134083 -5.75128e-20)
(-0.07105 -0.136615 4.12293e-20)
(-0.0808817 -0.138624 2.17643e-19)
(-0.0896079 -0.140157 -2.98844e-19)
(-0.0971543 -0.141091 -8.09788e-20)
(-0.103525 -0.141146 -1.54375e-19)
(-0.108803 -0.139916 3.08594e-19)
(-0.113177 -0.13693 9.40625e-21)
(-0.117069 -0.131781 1.60624e-19)
(-0.120484 -0.124094 -6.0975e-20)
(-0.122724 -0.113529 -3.20634e-19)
(0.00453219 -0.015068 -1.14124e-19)
(0.00903371 -0.0403068 1.60148e-19)
(0.00783568 -0.0619284 2.45783e-21)
(0.00284227 -0.0796236 -1.24483e-21)
(-0.00502429 -0.0936735 1.62919e-19)
(-0.0149015 -0.104536 7.80603e-20)
(-0.0259936 -0.112763 -3.83696e-21)
(-0.0376252 -0.118943 3.40497e-19)
(-0.0492361 -0.123633 1.28974e-19)
(-0.060377 -0.127307 -2.34215e-19)
(-0.0707029 -0.130311 1.14069e-20)
(-0.0799618 -0.132842 -9.1975e-21)
(-0.0879843 -0.134926 3.13032e-19)
(-0.0946763 -0.136423 -3.4421e-19)
(-0.100021 -0.137028 9.41964e-20)
(-0.104081 -0.136295 1.62606e-21)
(-0.107034 -0.13369 -2.28403e-19)
(-0.109322 -0.128731 -2.31128e-19)
(-0.110996 -0.120957 -2.91807e-20)
(-0.111297 -0.109938 3.18293e-19)
(0.00426009 -0.0135155 3.64395e-20)
(0.00837359 -0.0364591 -1.13579e-19)
(0.00690656 -0.0564487 1.08783e-19)
(0.00175638 -0.0730465 -1.60852e-19)
(-0.00616244 -0.0864357 1.97166e-19)
(-0.0159937 -0.0969856 -2.93333e-19)
(-0.0269456 -0.10517 -7.97461e-20)
(-0.0383447 -0.111509 -1.78169e-19)
(-0.0496297 -0.116508 -8.29835e-20)
(-0.0603474 -0.120598 1.45801e-19)
(-0.0701454 -0.124095 2.92512e-19)
(-0.0787603 -0.127174 -3.22865e-19)
(-0.0860067 -0.129848 -1.19031e-19)
(-0.0917705 -0.131961 4.23676e-19)
(-0.0960116 -0.133187 -1.49317e-19)
(-0.0987696 -0.133039 -2.11306e-19)
(-0.100205 -0.130917 2.61207e-19)
(-0.100777 -0.126248 5.42271e-20)
(-0.100587 -0.118451 4.80217e-20)
(-0.0987992 -0.106952 -2.02508e-19)
(0.00392786 -0.0119658 1.40679e-20)
(0.00758088 -0.0326228 -5.86691e-20)
(0.00581793 -0.050988 1.88701e-19)
(0.000515059 -0.0664964 -2.41852e-19)
(-0.00742888 -0.0792327 -1.99757e-19)
(-0.0171698 -0.0894769 5.25389e-20)
(-0.0279254 -0.0976241 3.41466e-19)
(-0.039027 -0.10413 -2.13023e-19)
(-0.0499153 -0.109445 5.04778e-20)
(-0.0601353 -0.113959 -9.98877e-20)
(-0.0693283 -0.117961 -3.97176e-19)
(-0.0772206 -0.121606 2.37418e-19)
(-0.0836117 -0.124899 1.868e-19)
(-0.088367 -0.127672 -3.26996e-19)
(-0.0914221 -0.129582 7.63528e-20)
(-0.0927908 -0.130106 2.92747e-19)
(-0.0926118 -0.128576 1.09721e-19)
(-0.091354 -0.124308 3.82454e-20)
(-0.0891782 -0.116573 -2.17882e-19)
(-0.0851416 -0.104582 -1.04339e-19)
(0.00353856 -0.010428 -9.7594e-20)
(0.00666363 -0.0288185 -1.74651e-19)
(0.00458225 -0.0455728 -1.01099e-19)
(-0.000865169 -0.0600018 1.32279e-19)
(-0.00880297 -0.0720923 -7.70928e-21)
(-0.0184051 -0.0820352 2.60216e-20)
(-0.0289027 -0.0901481 -4.73982e-20)
(-0.0396361 -0.0968214 3.21808e-20)
(-0.0500503 -0.102452 1.9884e-19)
(-0.05969 -0.107392 2.49063e-19)
(-0.068192 -0.111901 -1.07926e-20)
(-0.0752733 -0.116122 -5.37308e-20)
(-0.080719 -0.12005 -3.08678e-19)
(-0.0843751 -0.123514 2.27137e-19)
(-0.086152 -0.126161 -1.98889e-20)
(-0.0860362 -0.127437 -1.30342e-19)
(-0.0841386 -0.126603 -6.30848e-19)
(-0.0809334 -0.122859 2.15741e-19)
(-0.076647 -0.115292 1.15768e-20)
(-0.0701831 -0.102815 -1.26706e-19)
(0.00309597 -0.0089113 8.91839e-20)
(0.00563155 -0.0250668 2.27382e-19)
(0.00321424 -0.0402297 -1.71572e-19)
(-0.00236514 -0.0535913 -8.20528e-20)
(-0.0102609 -0.0650425 6.83765e-20)
(-0.0196709 -0.0746863 -1.63628e-19)
(-0.0298435 -0.0827631 -2.82801e-19)
(-0.0401315 -0.0895991 1.75201e-19)
(-0.049986 -0.0955397 -2.04585e-20)
(-0.0589533 -0.100897 -3.92301e-19)
(-0.066667 -0.105909 7.47309e-20)
(-0.072836 -0.110702 4.09569e-20)
(-0.0772323 -0.115268 -6.97529e-20)
(-0.0796833 -0.119439 1.8186e-19)
(-0.0800752 -0.122858 3.45592e-19)
(-0.0783657 -0.124949 -2.18737e-19)
(-0.0746343 -0.124912 1.75624e-19)
(-0.0693536 -0.121818 4.04469e-20)
(-0.062828 -0.114546 2.27653e-19)
(-0.0537322 -0.101616 9.84409e-20)
(0.00260462 -0.00742474 -9.74096e-20)
(0.00449599 -0.0213883 -1.17004e-20)
(0.00173078 -0.0349852 2.42509e-19)
(-0.00396307 -0.047294 2.38e-19)
(-0.0117764 -0.0581118 -4.80484e-20)
(-0.0209353 -0.0674559 -3.04075e-20)
(-0.0307101 -0.0754911 3.21381e-19)
(-0.0404679 -0.0824803 -2.30501e-19)
(-0.0496683 -0.0887178 6.89859e-20)
(-0.0578603 -0.0944785 2.83583e-19)
(-0.0646753 -0.0999751 2.67563e-19)
(-0.0698153 -0.105324 1.0178e-19)
(-0.0730407 -0.110518 4.40799e-19)
(-0.0741615 -0.115393 -5.99522e-20)
(-0.0730412 -0.119597 -4.47935e-19)
(-0.0696099 -0.122548 2.15594e-19)
(-0.063912 -0.123388 -1.10299e-19)
(-0.0564124 -0.121067 -2.52529e-19)
(-0.0475136 -0.114239 -1.72603e-19)
(-0.0355492 -0.10092 -1.68623e-19)
(0.00206974 -0.00597737 6.18541e-20)
(0.00326985 -0.0178034 1.26402e-19)
(0.000150733 -0.029866 -8.79896e-20)
(-0.00563499 -0.0411387 -1.08721e-19)
(-0.0133202 -0.051329 -1.10799e-19)
(-0.0221642 -0.0603709 -2.99554e-20)
(-0.0314616 -0.0683554 -4.08875e-19)
(-0.0405967 -0.0754832 1.56504e-19)
(-0.0490387 -0.0819987 -1.42449e-19)
(-0.0563404 -0.0881397 -2.37113e-19)
(-0.0621317 -0.0940952 8.0164e-21)
(-0.0661087 -0.0999721 -5.83359e-19)
(-0.068021 -0.105764 -4.44764e-19)
(-0.0676637 -0.111319 1.3736e-19)
(-0.0648798 -0.1163 6.81148e-20)
(-0.0595734 -0.120124 -1.42007e-19)
(-0.0517531 -0.121899 5.34287e-19)
(-0.0418712 -0.120458 -8.07062e-20)
(-0.0304611 -0.114235 2.12579e-19)
(-0.0153576 -0.100621 1.82738e-19)
(0.00149722 -0.00457806 -8.51057e-20)
(0.0019675 -0.0143322 -2.75566e-19)
(-0.00150523 -0.0248983 8.64242e-20)
(-0.00735495 -0.0351544 4.61079e-21)
(-0.0148615 -0.0447231 3.63274e-19)
(-0.0233208 -0.0534587 -2.14425e-19)
(-0.0320548 -0.0613803 -1.8211e-19)
(-0.0404665 -0.0686279 2.16087e-19)
(-0.0480355 -0.0753969 -1.28211e-20)
(-0.0543191 -0.0818881 9.88634e-20)
(-0.0589461 -0.0882672 2.95097e-19)
(-0.0616069 -0.0946309 6.08635e-19)
(-0.062042 -0.100976 4.78233e-20)
(-0.0600331 -0.107166 -2.59254e-19)
(-0.0554054 -0.112884 4.67673e-20)
(-0.0480411 -0.117565 4.35932e-19)
(-0.0379142 -0.120296 -2.87026e-19)
(-0.0254614 -0.119812 2.79233e-22)
(-0.0114018 -0.114348 2.02831e-19)
(0.00712159 -0.100518 -1.25695e-19)
(0.000893591 -0.00323536 -8.10255e-20)
(0.000604558 -0.0109942 3.24259e-19)
(-0.00321485 -0.0201077 -2.46054e-19)
(-0.00909529 -0.0293699 -5.00154e-20)
(-0.0163674 -0.0383237 -8.3371e-20)
(-0.0243668 -0.0467475 -2.13806e-19)
(-0.0324449 -0.0545917 2.11252e-19)
(-0.0400239 -0.0619368 -5.56371e-20)
(-0.046595 -0.0689298 -1.21623e-19)
(-0.0517197 -0.075735 1.96758e-19)
(-0.0550256 -0.082494 -2.25024e-19)
(-0.0561979 -0.0892929 -7.14938e-20)
(-0.0549683 -0.0961319 -7.81847e-21)
(-0.0511071 -0.10289 1.8126e-19)
(-0.0444254 -0.109279 -1.60146e-19)
(-0.0347878 -0.114761 -2.93975e-19)
(-0.0221367 -0.118426 -8.54594e-20)
(-0.006888 -0.118937 -1.20642e-19)
(0.00998092 -0.114354 -3.55824e-19)
(0.0321318 -0.100257 -1.00374e-19)
(0.000265873 -0.00195741 1.14509e-19)
(-0.000802202 -0.00780814 -1.42603e-19)
(-0.00495458 -0.0155195 -1.76287e-19)
(-0.010827 -0.0238136 -1.65603e-19)
(-0.017804 -0.03216 5.46311e-20)
(-0.0252627 -0.0402662 3.09123e-20)
(-0.0325855 -0.0480167 7.50282e-20)
(-0.0392147 -0.0554343 -2.59211e-19)
(-0.0446527 -0.0626184 1.47686e-19)
(-0.0484651 -0.0696963 -4.36015e-19)
(-0.0502777 -0.0767848 -2.15862e-19)
(-0.0497698 -0.0839578 3.5179e-21)
(-0.0466654 -0.0912172 1.84756e-19)
(-0.0407251 -0.0984589 -1.18343e-19)
(-0.0317491 -0.105424 2.94688e-19)
(-0.0195897 -0.111618 -7.04521e-20)
(-0.00416241 -0.116151 8.98034e-20)
(0.0141543 -0.11765 3.21486e-19)
(0.0341131 -0.11406 4.14011e-20)
(0.0599944 -0.0995578 1.91623e-19)
(-0.000378468 -0.000751761 -2.42134e-19)
(-0.00223514 -0.00479174 1.90268e-19)
(-0.00669984 -0.0111576 2.13053e-19)
(-0.0125202 -0.018513 -1.22329e-19)
(-0.0191363 -0.0262614 2.07416e-19)
(-0.0259684 -0.0340441 1.98694e-19)
(-0.0324306 -0.0416837 -3.5723e-20)
(-0.037985 -0.049147 -1.97018e-19)
(-0.0421453 -0.0564865 -2.89197e-19)
(-0.0444798 -0.0637924 8.3285e-20)
(-0.0446121 -0.0711552 8.02987e-21)
(-0.0422152 -0.0786344 -2.10135e-19)
(-0.0370051 -0.0862308 1.52693e-19)
(-0.0287347 -0.0938547 -1.17607e-19)
(-0.0171972 -0.101279 -2.08961e-19)
(-0.00223891 -0.108058 -2.64954e-19)
(0.0162412 -0.11335 6.36436e-20)
(0.0379103 -0.115799 8.49657e-20)
(0.0613865 -0.113298 -7.64863e-20)
(0.0912212 -0.0984466 3.1132e-19)
(-0.00103166 0.000374704 -1.90628e-19)
(-0.00367595 -0.00196133 -1.75169e-19)
(-0.00842537 -0.00704467 1.37406e-19)
(-0.0141443 -0.0134948 7.93085e-20)
(-0.0203292 -0.0206567 3.17082e-20)
(-0.0264437 -0.028111 -5.79817e-20)
(-0.0319339 -0.0356222 -4.08095e-20)
(-0.0362817 -0.0431037 9.19812e-20)
(-0.0390107 -0.0505615 -8.19501e-20)
(-0.0396916 -0.0580486 6.78177e-19)
(-0.0379439 -0.0656274 4.88259e-20)
(-0.033434 -0.0733404 -7.30719e-20)
(-0.0258699 -0.0811836 -4.76203e-19)
(-0.0149987 -0.0890777 8.98668e-20)
(-0.000610821 -0.0968255 -2.25305e-19)
(0.0174454 -0.104033 1.45389e-19)
(0.0392712 -0.10993 1.28925e-19)
(0.0645494 -0.113226 -4.69944e-19)
(0.0918882 -0.111785 -1.38825e-19)
(0.126198 -0.0969141 -4.64541e-19)
(-0.00168574 0.00141596 9.2267e-20)
(-0.00510596 0.000668366 1.81066e-19)
(-0.0101055 -0.00320168 -3.23349e-19)
(-0.0156684 -0.00878431 -2.45546e-19)
(-0.0213473 -0.0153738 1.23253e-19)
(-0.0266488 -0.0224964 1.15433e-19)
(-0.0310506 -0.0298624 -2.36663e-19)
(-0.0340536 -0.0373344 -2.10399e-20)
(-0.0351905 -0.0448733 2.84661e-20)
(-0.0340326 -0.052494 -2.04125e-19)
(-0.0301948 -0.0602296 2.92334e-19)
(-0.0233359 -0.0681023 1.57871e-21)
(-0.0131565 -0.0760989 3.5732e-19)
(0.000600297 -0.084145 2.38056e-19)
(0.0181419 -0.0920676 4.01108e-20)
(0.0396089 -0.0995245 4.74027e-19)
(0.0650899 -0.105829 -4.17234e-19)
(0.0942596 -0.109788 1.88346e-19)
(0.125623 -0.109306 1.40874e-19)
(0.164888 -0.094679 1.15851e-19)
(-0.00233275 0.00236696 4.43006e-19)
(-0.00650639 0.0030845 -3.05436e-19)
(-0.0117147 0.000352395 7.40688e-20)
(-0.017062 -0.00440503 2.38317e-19)
(-0.0221557 -0.0104396 -2.54687e-19)
(-0.0265447 -0.0172292 1.2515e-20)
(-0.029737 -0.0244346 1.89891e-19)
(-0.0312516 -0.0318705 3.45677e-19)
(-0.030629 -0.0394535 3.45887e-19)
(-0.0274402 -0.0471608 -3.38515e-19)
(-0.0212948 -0.0549944 -2.57329e-19)
(-0.0118429 -0.0629533 1.20334e-19)
(0.00122127 -0.0710103 -3.39352e-19)
(0.018156 -0.0790891 2.31197e-20)
(0.0391608 -0.0870333 1.27813e-19)
(0.0643546 -0.0945471 9.62665e-20)
(0.0937981 -0.101031 2.80078e-19)
(0.127152 -0.105417 5.48046e-20)
(0.162689 -0.105786 -1.95049e-19)
(0.207187 -0.0913879 1.99896e-19)
(-0.00296482 0.0032237 -4.19908e-19)
(-0.00785863 0.00527635 3.04184e-19)
(-0.0132274 0.003601 7.35222e-20)
(-0.0182947 -0.000378246 -2.35845e-19)
(-0.0227203 -0.00587905 9.87618e-20)
(-0.0260933 -0.0123371 -4.71844e-20)
(-0.027951 -0.0193686 -3.54173e-20)
(-0.0278292 -0.026743 -2.91674e-19)
(-0.0252749 -0.0343348 -4.55254e-19)
(-0.0198583 -0.0420832 2.92361e-19)
(-0.011182 -0.0499578 -1.49563e-19)
(0.00111088 -0.0579317 4.62211e-21)
(0.0173321 -0.0659589 8.20649e-20)
(0.0377376 -0.0739545 1.69957e-19)
(0.0625121 -0.0817691 -2.05172e-20)
(0.0917409 -0.0891435 -4.62666e-20)
(0.125438 -0.0955608 -2.25853e-19)
(0.163241 -0.100088 -1.46187e-19)
(0.203092 -0.101149 -1.33282e-19)
(0.252969 -0.0867983 2.02353e-19)
(-0.00357435 0.00398335 3.36684e-19)
(-0.00914452 0.00723551 -8.55692e-20)
(-0.0146188 0.00653024 2.8961e-19)
(-0.0193368 0.00327735 6.97008e-20)
(-0.0230074 -0.00171475 -1.52128e-19)
(-0.0252576 -0.00784596 2.4536e-20)
(-0.0256522 -0.0146926 -3.18748e-19)
(-0.0237424 -0.0219824 1.43535e-19)
(-0.0190807 -0.0295494 7.68155e-20)
(-0.0112357 -0.0372952 1.1323e-20)
(0.00019605 -0.0451565 1.03901e-19)
(0.0155793 -0.0530776 3.66819e-20)
(0.0352275 -0.0609899 -1.63569e-19)
(0.05939 -0.0687927 -3.72845e-19)
(0.0882291 -0.0763341 1.85466e-19)
(0.121783 -0.0833785 -8.79723e-20)
(0.159999 -0.0894788 -1.9028e-20)
(0.202468 -0.0938314 3.54025e-19)
(0.246747 -0.095344 3.51656e-19)
(0.301999 -0.0807334 -5.16091e-19)
(-0.00415412 0.00464426 -8.58332e-20)
(-0.0103466 0.00895605 -9.21353e-20)
(-0.0158648 0.00912922 -1.81366e-19)
(-0.0201595 0.00654609 1.31618e-19)
(-0.0229845 0.00203343 2.37201e-19)
(-0.0240019 -0.00377917 -3.04197e-19)
(-0.0228017 -0.0104329 4.81491e-19)
(-0.0189494 -0.0176172 -9.31835e-20)
(-0.0120023 -0.0251277 1.35197e-20)
(-0.00152674 -0.0328296 -3.1596e-19)
(0.0128859 -0.0406257 1.05325e-20)
(0.031605 -0.0484302 -2.52636e-19)
(0.0549436 -0.0561479 3.33235e-19)
(0.0831373 -0.0636569 2.14564e-19)
(0.116316 -0.0707926 -4.10294e-19)
(0.154457 -0.0773292 -3.3982e-19)
(0.197419 -0.0828703 7.6134e-20)
(0.244711 -0.0867213 4.24513e-19)
(0.293499 -0.0883802 1.86586e-19)
(0.353917 -0.0730668 9.45646e-20)
(-0.00469746 0.00520603 2.67867e-20)
(-0.0114483 0.0104346 8.94568e-20)
(-0.0169423 0.0113902 1.06716e-19)
(-0.0207347 0.00941572 -8.86435e-20)
(-0.0226197 0.00534902 2.19992e-19)
(-0.0222909 -0.000156751 2.92246e-19)
(-0.0193617 -0.00661242 4.53049e-21)
(-0.0134101 -0.0136727 -3.70387e-19)
(-0.00399768 -0.021097 -2.92952e-19)
(0.00931031 -0.0287154 3.03185e-19)
(0.0269267 -0.0363969 -4.89037e-19)
(0.0492226 -0.0440244 -4.42933e-19)
(0.0765042 -0.0514733 -4.36948e-20)
(0.108986 -0.0585957 -2.35576e-20)
(0.146754 -0.0652061 1.43784e-19)
(0.189708 -0.071075 9.18622e-20)
(0.237598 -0.0758326 1.1505e-19)
(0.289798 -0.0788675 -5.25292e-19)
(0.343154 -0.0803151 -1.36158e-19)
(0.408246 -0.0637399 3.47589e-19)
(-0.0051983 0.00566945 -1.59663e-19)
(-0.012434 0.0116705 1.52482e-19)
(-0.0178292 0.0133089 -1.1164e-19)
(-0.0210355 0.0118777 -5.48975e-20)
(-0.0218819 0.00821947 -1.48392e-19)
(-0.0200904 0.00300525 -1.11463e-19)
(-0.015295 -0.00325002 -1.97772e-19)
(-0.00708529 -0.0101697 3.23655e-19)
(0.004973 -0.0174799 1.27292e-19)
(0.0213153 -0.0249764 -3.09081e-19)
(0.0423547 -0.0324955 -3.70087e-19)
(0.0684599 -0.0398878 1.95025e-19)
(0.0999229 -0.0469981 -1.79053e-19)
(0.136927 -0.0536489 -2.45085e-19)
(0.179502 -0.0596274 -3.0042e-20)
(0.227453 -0.0646884 2.41085e-19)
(0.280403 -0.0684611 -1.53347e-19)
(0.337511 -0.0704007 5.83177e-20)
(0.3955 -0.0712425 1.23607e-19)
(0.464423 -0.052783 2.94333e-19)
(-0.00565125 0.00603644 -1.63316e-20)
(-0.0132895 0.0126656 -3.76751e-19)
(-0.0185045 0.0148844 9.09061e-20)
(-0.0210353 0.0139275 2.00772e-19)
(-0.0207403 0.0106366 -3.62923e-20)
(-0.0173658 0.00569542 -2.38709e-19)
(-0.0105643 -0.000359549 2.60889e-19)
(6.43928e-05 -0.00712385 2.95971e-19)
(0.01495 -0.0142926 1.12054e-19)
(0.034526 -0.0216293 5.49757e-19)
(0.0592033 -0.0289382 -2.52159e-19)
(0.08934 -0.0360383 8.92848e-20)
(0.125206 -0.042743 -1.2086e-19)
(0.166943 -0.0488435 2.84205e-19)
(0.214506 -0.0540957 -2.46286e-20)
(0.267589 -0.0582288 -6.1592e-20)
(0.325672 -0.0608387 -9.575e-20)
(0.38759 -0.0614581 1.44956e-19)
(0.450284 -0.0612391 -3.51328e-19)
(0.521743 -0.0402264 -4.49776e-19)
(-0.00605165 0.00630999 -9.26903e-20)
(-0.0140015 0.0134242 -3.34204e-20)
(-0.0189483 0.0161192 -3.01644e-19)
(-0.0207085 0.0155648 1.83106e-19)
(-0.0191645 0.0125969 -1.8525e-19)
(-0.0140826 0.0079077 -1.86571e-19)
(-0.00513161 0.00205104 -1.66614e-20)
(0.00807911 -0.00454404 -2.98408e-19)
(0.0259737 -0.0115441 -4.68514e-19)
(0.0489814 -0.0186824 1.26626e-19)
(0.0775045 -0.0257322 1.40112e-19)
(0.111884 -0.0324821 -5.82364e-20)
(0.152355 -0.0387151 4.50351e-19)
(0.199002 -0.0441917 -4.04223e-20)
(0.251695 -0.048635 -8.55103e-20)
(0.309994 -0.0517415 -1.07039e-20)
(0.373227 -0.0530394 2.05211e-19)
(0.43977 -0.0521803 3.49477e-19)
(0.507199 -0.0502327 -9.49382e-20)
(0.579092 -0.0257932 3.30769e-19)
(-0.00639556 0.00649401 2.90946e-19)
(-0.014558 0.0139529 -4.59164e-20)
(-0.0191416 0.0170194 2.66393e-19)
(-0.02003 0.0167937 -2.70769e-19)
(-0.0171235 0.0141022 3.96108e-19)
(-0.0102052 0.00964184 3.28693e-19)
(0.00104239 0.00398037 -2.67524e-19)
(0.0170007 -0.00243164 -4.93221e-19)
(0.0380868 -0.00923457 8.08927e-19)
(0.0647211 -0.0161336 1.9731e-19)
(0.0972911 -0.0228728 -1.51747e-19)
(0.136109 -0.0292121 -1.47424e-19)
(0.181364 -0.0349066 -1.52527e-19)
(0.233064 -0.0396891 -1.11043e-19)
(0.290977 -0.0432537 -3.57633e-19)
(0.354519 -0.0452635 -9.37121e-20)
(0.422875 -0.045154 7.80746e-21)
(0.49389 -0.0427473 -2.38883e-19)
(0.56616 -0.0379619 1.15642e-19)
(0.635121 -0.00917257 -2.33521e-19)
(-0.00667972 0.0065932 -4.64924e-19)
(-0.0149482 0.0142605 3.0457e-19)
(-0.0190661 0.0175942 -4.49471e-19)
(-0.0189746 0.0176223 -2.42753e-19)
(-0.0145861 0.0151594 8.95794e-20)
(-0.0056967 0.0109038 -3.54965e-19)
(0.00799923 0.00543434 5.51328e-19)
(0.0268737 -0.000779588 9.54162e-21)
(0.0513341 -0.00735473 -3.00763e-19)
(0.0817871 -0.0139701 -2.59713e-19)
(0.118596 -0.0203429 -4.57515e-19)
(0.162032 -0.0262069 -5.43726e-21)
(0.212219 -0.0312934 -6.27054e-20)
(0.269073 -0.0353142 -1.79344e-19)
(0.332234 -0.0379441 4.32687e-19)
(0.400969 -0.0388271 2.59024e-19)
(0.474349 -0.0373158 6.19043e-20)
(0.549854 -0.0334284 -2.6169e-19)
(0.62777 -0.024513 -1.58167e-20)
(0.691121 0.00685582 -3.89001e-19)
(-0.0069015 0.00661285 1.65171e-19)
(-0.0151619 0.0143575 -3.04552e-19)
(-0.0187043 0.017856 3.87915e-19)
(-0.017517 0.0180634 5.40523e-19)
(-0.0115199 0.0157809 -1.74179e-19)
(-0.00051822 0.0117063 2.27544e-20)
(0.0157829 0.0064267 -4.6442e-19)
(0.0377455 0.000428108 -1.14146e-19)
(0.0657638 -0.00588484 -3.52624e-19)
(0.100224 -0.0121672 4.54458e-19)
(0.141453 -0.0181119 4.15552e-19)
(0.189666 -0.0234301 -7.26417e-20)
(0.2449 -0.0278348 -5.34686e-20)
(0.306952 -0.0310267 -8.42607e-20)
(0.37531 -0.032677 7.82446e-20)
(0.449069 -0.032443 -1.36472e-19)
(0.527194 -0.0296528 -1.53567e-19)
(0.607075 -0.0245533 3.13049e-19)
(0.691663 -0.0114876 -9.50017e-20)
(0.754789 0.0131169 1.00292e-20)
(-0.00705874 0.0065587 4.35913e-20)
(-0.01519 0.0142558 6.16175e-20)
(-0.0180387 0.0178198 -2.03016e-19)
(-0.0156317 0.0181335 -5.56861e-19)
(-0.00789108 0.0159846 8.94888e-20)
(0.00537117 0.0120686 2.68616e-19)
(0.0244404 0.00697919 1.21539e-19)
(0.0496669 0.00121687 5.16275e-19)