/*--------------------------------*- C++ -*----------------------------------*\
  =========                 |
  \\      /  F ield         | OpenFOAM: The Open Source CFD Toolbox
   \\    /   O peration     | Website:  https://openfoam.org
    \\  /    A nd           | Version:  7
     \\/     M anipulation  |
\*---------------------------------------------------------------------------*/
FoamFile
{
    version     2.0;
    format      ascii;
    class       surfaceScalarField;
    location    "180";
    object      phi;
}
// * * * * * * * * * * * * * * * * * * * * * * * * * * * * * * * * * * * * * //

dimensions      [0 3 -1 0 0 0 0];

internalField   nonuniform List<scalar> 
8899
(
-1.97204e-05
-0.000224359
0.000232679
-3.002e-05
-0.000253025
0.000263324
-4.21377e-05
-0.000269649
0.000281767
-5.59301e-05
-0.000276304
0.000290097
-7.12779e-05
-0.000275041
0.000290389
-8.80899e-05
-0.00026773
0.000284542
-0.000106303
-0.000255922
0.000274135
-0.000125881
-0.000240742
0.00026032
-0.000146818
-0.000222829
0.000243765
-0.000169132
-0.000202329
0.000224643
-0.000192875
-0.000178916
0.000202659
-0.000218134
-0.000151843
0.000177102
-0.000245033
-0.000119991
0.00014689
-0.000273735
-8.19079e-05
0.00011061
-0.000304435
-3.5832e-05
6.65327e-05
-0.000337332
2.02723e-05
1.2624e-05
8.89516e-05
-5.36464e-05
-0.000372637
-2.05316e-05
-0.000215758
-3.11145e-05
-0.000242442
-4.35013e-05
-0.000257263
-5.75403e-05
-0.000262265
-7.31118e-05
-0.00025947
-9.01287e-05
-0.000250714
-0.000108536
-0.000237515
-0.000128308
-0.00022097
-0.000149445
-0.000201691
-0.000171976
-0.000179798
-0.000195958
-0.000154935
-0.000221477
-0.000126324
-0.000248654
-9.28143e-05
-0.000277641
-5.29207e-05
-0.000308616
-4.85648e-06
-0.000341749
5.34048e-05
0.000124406
-0.000377203
-2.11998e-05
-0.000206932
-3.19967e-05
-0.000231645
-4.45706e-05
-0.000244689
-5.87612e-05
-0.000248074
-7.44459e-05
-0.000243785
-9.15394e-05
-0.00023362
-0.000109991
-0.000219064
-0.00012978
-0.000201181
-0.000150912
-0.00018056
-0.000173417
-0.000157293
-0.00019735
-0.000131002
-0.000222791
-0.000100882
-0.00024985
-6.57552e-05
-0.000278662
-2.41094e-05
-0.000309375
2.58571e-05
-0.000342131
8.61607e-05
0.000159313
-0.000377038
-2.17306e-05
-0.000197937
-3.26751e-05
-0.000220701
-4.53583e-05
-0.000232005
-5.96098e-05
-0.000233823
-7.5302e-05
-0.000228093
-9.23482e-05
-0.000216574
-0.000110699
-0.000200713
-0.000130333
-0.000181546
-0.000151258
-0.000159635
-0.000173498
-0.000135052
-0.000197101
-0.000107399
-0.000222133
-7.58496e-05
-0.000248686
-3.92025e-05
-0.000276867
4.07193e-06
-0.000306797
5.57869e-05
-0.000338576
0.000117939
0.000192991
-0.000372255
-2.21317e-05
-0.000188824
-3.31618e-05
-0.000209671
-4.58813e-05
-0.000219286
-6.01085e-05
-0.000219596
-7.57085e-05
-0.000212493
-9.25905e-05
-0.000199692
-0.000110701
-0.000182603
-0.000130018
-0.00016223
-0.00015054
-0.000139113
-0.000172286
-0.000113307
-0.000195286
-8.43985e-05
-0.00021959
-5.15456e-05
-0.000245261
-1.35317e-05
-0.000272376
3.11865e-05
-0.000301017
8.4428e-05
-0.000331243
0.000148166
0.000224793
-0.000363045
-2.24129e-05
-0.00017964
-3.34715e-05
-0.000198612
-4.61605e-05
-0.000206597
-6.02849e-05
-0.000205471
-7.57006e-05
-0.000197077
-9.23093e-05
-0.000183083
-0.000110051
-0.000164861
-0.000128896
-0.000143385
-0.000148833
-0.000119176
-0.000169866
-9.22745e-05
-0.000192007
-6.22577e-05
-0.000215278
-2.82746e-05
-0.00023971
1.09011e-05
-0.000265344
5.68205e-05
-0.00029222
0.000111304
-0.000320352
0.000176297
0.000254109
-0.000349668
-2.25855e-05
-0.000170429
-3.36216e-05
-0.000187576
-4.62198e-05
-0.000193999
-6.0171e-05
-0.00019152
-7.53191e-05
-0.000181929
-9.15555e-05
-0.000166847
-0.00010881
-0.000147606
-0.000127041
-0.000125154
-0.000146224
-9.99933e-05
-0.000166341
-7.21569e-05
-0.000187382
-4.12167e-05
-0.000209338
-6.31929e-06
-0.000232201
3.37649e-05
-0.00025597
8.05893e-05
-0.000280639
0.000135973
-0.000306176
0.000201835
0.000280382
-0.000332449
-2.26627e-05
-3.36315e-05
-0.000176607
-4.60865e-05
-0.000181544
-5.98026e-05
-0.000177804
-7.46097e-05
-0.000167122
-9.0386e-05
-0.000151071
-0.000107048
-0.000130944
-0.000124538
-0.000107664
-0.000142812
-8.17188e-05
-0.000161832
-5.31374e-05
-0.000181555
-2.14935e-05
-0.000201937
1.40628e-05
-0.000222931
5.47582e-05
-0.000244485
0.000102143
-0.000266546
0.000158034
-0.000289039
0.000224327
0.000303116
-0.000311773
-3.35223e-05
-0.000165743
-4.57897e-05
-0.000169276
-5.92185e-05
-0.000164375
-7.36222e-05
-0.000152718
-8.88632e-05
-0.00013583
-0.000104841
-0.000114966
-0.000121479
-9.10256e-05
-0.000138712
-6.44863e-05
-0.000156472
-3.53775e-05
-0.000174684
-3.28074e-06
-0.000193265
3.26436e-05
-0.000212121
7.36137e-05
-0.000231151
0.000121174
-0.000250253
0.000177136
-0.000269306
0.00024338
0.00032188
-0.00028807
-3.33163e-05
-0.000155015
-4.53603e-05
-0.000157232
-5.84594e-05
-0.000151276
-7.2409e-05
-0.000138769
-8.70529e-05
-0.000121186
-0.000102271
-9.97479e-05
-0.000117965
-7.53318e-05
-0.000134042
-4.84089e-05
-0.000150406
-1.90141e-05
-0.000166943
1.32569e-05
-0.000183527
4.92276e-05
-0.000200016
9.01019e-05
-0.000216256
0.000137414
-0.000232097
0.000192976
-0.000247377
0.000258661
0.000336316
-0.000261813
-3.30359e-05
-0.000144445
-4.48296e-05
-0.000145439
-5.75671e-05
-0.000138539
-7.10239e-05
-0.000125312
-8.50233e-05
-0.000107186
-9.94229e-05
-8.53482e-05
-0.000114099
-6.06555e-05
-0.000128931
-3.35769e-05
-0.000143787
-4.15803e-06
-0.000158516
2.79855e-05
-0.000172943
6.36546e-05
-0.000186875
0.000104034
-0.000200109
0.000150648
-0.000212441
0.000205308
-0.000223678
0.000269899
0.00034614
-0.000233503
-3.27037e-05
-0.00013405
-4.42288e-05
-0.000133913
-5.65829e-05
-0.000126185
-6.95206e-05
-0.000112374
-8.28426e-05
-9.38643e-05
-9.6382e-05
-7.18087e-05
-0.000109988
-4.70495e-05
-0.000123508
-2.00566e-05
-0.000136774
9.1082e-06
-0.000149593
4.08037e-05
-0.00016174
7.5802e-05
-0.000172971
0.000115265
-0.000183027
0.000160704
-0.00019166
0.000213942
-0.000198651
0.00027689
0.000351143
-0.000203655
-3.23409e-05
-0.000123838
-4.35877e-05
-0.000122667
-5.55471e-05
-0.000114225
-6.79513e-05
-9.99699e-05
-8.05774e-05
-8.12382e-05
-9.32324e-05
-5.91538e-05
-0.000105736
-3.45459e-05
-0.000117902
-7.89009e-06
-0.000129525
2.07308e-05
-0.000140365
5.16435e-05
-0.000150149
8.55858e-05
-0.000158576
0.000123692
-0.000165336
0.000167464
-0.000170136
0.000218742
-0.000172743
0.000279496
0.000351192
-0.000172791
-3.19676e-05
-0.000113811
-4.29342e-05
-0.0001117
-5.44968e-05
-0.000102663
-6.6365e-05
-8.81017e-05
-7.82907e-05
-6.93125e-05
-9.00537e-05
-4.73907e-05
-0.000101443
-2.31564e-05
-0.000112239
2.90536e-06
-0.000122193
3.0685e-05
-0.00013102
6.04711e-05
-0.000138396
9.2961e-05
-0.000143962
0.000129259
-0.000147356
0.000170857
-0.000148245
0.000219632
-0.000146392
0.000277643
0.000346225
-0.000141426
-3.16014e-05
-0.000103966
-4.22929e-05
-0.000101009
-5.34655e-05
-9.14899e-05
-6.48053e-05
-7.67619e-05
-7.60392e-05
-5.80787e-05
-8.69188e-05
-3.65111e-05
-9.7202e-05
-1.28732e-05
-0.000106632
1.23358e-05
-0.000114922
3.89742e-05
-0.000121736
6.72859e-05
-0.000126697
9.79212e-05
-0.000129388
0.000131951
-0.000129393
0.000170862
-0.000126345
0.000216584
-0.000120018
0.000271316
0.000336261
-0.000110053
-3.12573e-05
-4.16847e-05
-9.05812e-05
-5.24812e-05
-8.06934e-05
-6.33096e-05
-6.59335e-05
-7.38714e-05
-4.75169e-05
-8.38902e-05
-2.64923e-05
-9.30925e-05
-3.67099e-06
-0.000101186
2.04292e-05
-0.00010784
4.56284e-05
-0.000112673
7.21188e-05
-0.000115248
0.000100497
-0.000115092
0.000131794
-0.000111731
0.0001675
-0.000104766
0.000209619
-9.40017e-05
0.000260552
0.000321395
-7.91362e-05
-4.11254e-05
-8.04022e-05
-5.15654e-05
-7.02534e-05
-6.19066e-05
-5.55923e-05
-7.18253e-05
-3.75982e-05
-8.10178e-05
-1.72998e-05
-8.91794e-05
4.49057e-06
-9.59822e-05
2.7232e-05
-0.000101054
5.07006e-05
-0.000103965
7.50291e-05
-0.000104219
0.000100751
-0.000101279
0.000128854
-9.46119e-05
0.000160834
-8.37866e-05
0.000198793
-6.86645e-05
0.00024543
0.000301841
-4.91109e-05
-4.06252e-05
-7.04532e-05
-5.07322e-05
-6.01464e-05
-6.06151e-05
-4.57094e-05
-6.99264e-05
-2.82869e-05
-7.83356e-05
-8.8906e-06
-8.5508e-05
1.1663e-05
-9.10816e-05
3.28056e-05
-9.46438e-05
5.42628e-05
-9.57141e-05
7.60995e-05
-9.3739e-05
9.87759e-05
-8.81105e-05
0.000123225
-7.82283e-05
0.000150951
-6.36131e-05
0.000184178
-4.42053e-05
0.000226022
0.00027813
-2.04938e-05
-4.01877e-05
-6.07145e-05
-4.99865e-05
-5.03476e-05
-5.94426e-05
-3.62533e-05
-6.81853e-05
-1.95442e-05
-7.58589e-05
-1.21702e-06
-8.21004e-05
1.79046e-05
-8.65152e-05
3.72204e-05
-8.86519e-05
5.63994e-05
-8.79819e-05
7.54295e-05
-8.3891e-05
9.46849e-05
-7.56956e-05
0.00011503
-6.27118e-05
0.000137968
-4.43754e-05
0.000165842
-2.05717e-05
0.000202219
0.000250386
7.17193e-06
-3.98097e-05
-4.93244e-05
-4.08329e-05
-5.83841e-05
-2.71936e-05
-6.65966e-05
-1.13317e-05
-7.35825e-05
5.76885e-06
-7.89524e-05
2.32745e-05
-8.22815e-05
4.05495e-05
-8.3082e-05
5.71999e-05
-8.07795e-05
7.3127e-05
-7.46991e-05
8.86046e-05
-6.40776e-05
0.000104408
-4.81304e-05
0.00012202
-2.61624e-05
0.000143874
2.41006e-06
0.000173646
0.000217532
3.52647e-05
-4.87317e-05
-3.15819e-05
-5.74214e-05
-1.85039e-05
-6.51374e-05
-3.61562e-06
-7.14784e-05
1.21098e-05
-7.60308e-05
2.78269e-05
-7.8342e-05
4.28607e-05
-7.7891e-05
5.67489e-05
-7.40606e-05
6.92965e-05
-6.61177e-05
8.06617e-05
-5.3218e-05
9.15088e-05
-3.44713e-05
0.000103274
-9.1502e-06
0.000118553
2.30935e-05
0.000141402
0.000179157
6.14677e-05
-4.81843e-05
-2.25808e-05
-5.65228e-05
-1.01654e-05
-6.37671e-05
3.62871e-06
-6.94954e-05
1.78381e-05
-7.32718e-05
3.16033e-05
-7.46186e-05
4.42075e-05
-7.29851e-05
5.51155e-05
-6.77152e-05
6.40266e-05
-5.80209e-05
7.09674e-05
-4.2978e-05
7.64659e-05
-2.15754e-05
8.18711e-05
7.08911e-06
8.98882e-05
4.33378e-05
0.000105154
0.000135966
8.65293e-05
-4.76481e-05
-1.38246e-05
-5.5643e-05
-2.17055e-06
-6.24269e-05
1.04126e-05
-6.75583e-05
2.29695e-05
-7.05806e-05
3.46256e-05
-7.09931e-05
4.46201e-05
-6.82185e-05
5.23409e-05
-6.15662e-05
5.73742e-05
-5.01985e-05
5.95998e-05
-3.31138e-05
5.93812e-05
-9.17675e-06
5.79341e-05
2.26822e-05
5.80293e-05
6.29402e-05
6.48956e-05
8.80029e-05
0.000110903
-4.70801e-05
-5.47246e-05
5.47394e-06
-6.10414e-05
1.67294e-05
-6.55698e-05
2.74979e-05
-6.78327e-05
3.68885e-05
-6.73079e-05
4.40953e-05
-6.33938e-05
4.84268e-05
-5.53696e-05
4.935e-05
-4.23543e-05
4.65844e-05
-2.32758e-05
4.03027e-05
3.12211e-06
3.15362e-05
3.8095e-05
2.30565e-05
8.23469e-05
2.06437e-05
3.51657e-05
0.000135184
-5.36985e-05
1.27437e-05
-5.95199e-05
2.25508e-05
-6.34119e-05
3.139e-05
-6.48765e-05
3.83531e-05
-6.33695e-05
4.25884e-05
-5.82663e-05
4.33235e-05
-4.88193e-05
3.99031e-05
-3.41105e-05
3.18755e-05
-1.3009e-05
1.92012e-05
1.58587e-05
2.66854e-06
5.39379e-05
-1.50227e-05
0.000102211
-2.76298e-05
-2.27449e-05
0.000160122
-5.2487e-05
1.95944e-05
-5.77594e-05
2.78232e-05
-6.09504e-05
3.45809e-05
-6.15382e-05
3.89409e-05
-5.89551e-05
4.00052e-05
-5.25523e-05
3.69207e-05
-4.15574e-05
2.89082e-05
-2.50203e-05
1.53385e-05
-1.74593e-06
-4.07316e-06
2.96805e-05
-2.87579e-05
7.09498e-05
-5.6292e-05
0.000123342
-8.00222e-05
-8.59992e-05
0.000186596
-5.10053e-05
-5.56479e-05
3.24657e-05
-5.80386e-05
3.69716e-05
-5.76282e-05
3.85306e-05
-5.38207e-05
3.61977e-05
-4.59403e-05
2.90403e-05
-3.31895e-05
1.61573e-05
-1.45946e-05
-3.25633e-06
1.10581e-05
-2.97259e-05
4.53127e-05
-6.30125e-05
8.99732e-05
-0.000100952
0.000146662
-0.000136711
-0.000154912
0.000215575
-5.30686e-05
3.63687e-05
-5.45238e-05
3.84269e-05
-5.29485e-05
3.69553e-05
-4.77122e-05
3.09614e-05
-3.81062e-05
1.94342e-05
-2.33045e-05
1.35565e-06
-2.3117e-06
-2.42492e-05
2.61082e-05
-5.81457e-05
6.35334e-05
-0.000100438
0.000111905
-0.000149325
0.000173155
-0.000197961
-0.000229813
0.000248056
-4.99046e-05
3.93937e-05
-5.02534e-05
3.87757e-05
-4.73023e-05
3.40041e-05
-4.03777e-05
2.40369e-05
-2.87299e-05
7.78645e-06
-1.14989e-05
-1.58754e-05
1.23321e-05
-4.80801e-05
4.40061e-05
-8.98198e-05
8.51027e-05
-0.000141534
0.000137636
-0.000201858
0.000203797
-0.000264122
-0.000311013
0.000284997
-4.60439e-05
-4.50817e-05
3.78136e-05
-4.05024e-05
2.94249e-05
-3.158e-05
1.51145e-05
-1.75135e-05
-6.28004e-06
2.59926e-06
-3.59882e-05
2.97983e-05
-7.52791e-05
6.53203e-05
-0.000125342
0.000110709
-0.000186923
0.000167973
-0.000259122
0.000239477
-0.000335626
-0.000398764
0.000327228
-3.88761e-05
3.5306e-05
-3.2381e-05
2.29297e-05
-2.11092e-05
3.84263e-06
-4.19794e-06
-2.31913e-05
1.93064e-05
-5.94925e-05
5.04707e-05
-0.000106443
9.05159e-05
-0.000165387
0.000140913
-0.00023732
0.000203573
-0.000321782
0.000280921
-0.000412974
-0.000493221
0.000375378
-3.15236e-05
-2.27969e-05
1.4203e-05
-8.79309e-06
-1.01612e-05
1.14227e-05
-4.34071e-05
3.88647e-05
-8.69345e-05
7.4631e-05
-0.00014221
0.00011992
-0.000210676
0.000176095
-0.000293496
0.000244876
-0.000390563
0.000328621
-0.000496719
-0.000594399
0.000429799
-1.16423e-05
2.91026e-06
5.49448e-06
-2.72979e-05
2.94908e-05
-6.74034e-05
6.14285e-05
-0.000118872
0.000102441
-0.000183222
0.000153696
-0.000261931
0.000216427
-0.000356226
0.000292066
-0.000466203
0.000382783
-0.000587435
-0.00070214
0.000490523
1.1535e-06
-1.12919e-05
2.18289e-05
-4.79733e-05
5.00793e-05
-9.56539e-05
8.7058e-05
-0.000155851
0.000133934
-0.000230098
0.000191843
-0.00031984
0.000261862
-0.000426245
0.000345056
-0.000549397
0.000443312
-0.000685691
-0.000816073
0.000557245
1.56217e-05
4.02327e-05
-7.25843e-05
7.31906e-05
-0.000128612
0.00011572
-0.00019838
0.000169022
-0.0002834
0.000234193
-0.000385012
0.000312144
-0.000504196
0.000403507
-0.00064076
0.000509827
-0.00079201
-0.00093558
0.000629334
6.06773e-05
-0.000101507
9.87599e-05
-0.000166694
0.000147292
-0.000246912
0.0002075
-0.000343608
0.000280434
-0.000457945
0.000366829
-0.000590591
0.000466859
-0.000740791
0.000581697
-0.000906848
-0.00105977
0.000705885
8.30867e-05
0.000126661
-0.000210269
0.000181574
-0.000301825
0.000249067
-0.0004111
0.000330131
-0.00053901
0.000425322
-0.000685783
0.000534372
-0.00084984
0.000658037
-0.00103051
-0.00118758
0.000785847
0.000156715
-0.00025964
0.000218299
-0.000363409
0.000293334
-0.000486135
0.000382752
-0.000628428
0.000486939
-0.00078997
0.00060526
-0.000968161
0.000737694
-0.00116295
-0.00131817
0.000868283
0.000188698
0.000257141
-0.000431852
0.000339836
-0.00056883
0.00043766
-0.000726252
0.000550932
-0.000903241
0.000678974
-0.0010962
0.000819841
-0.00130381
-0.00145079
0.000952468
0.000297726
-0.000507224
0.000388028
-0.000659133
0.00049407
-0.000832294
0.000616237
-0.00102541
0.00075466
-0.00123463
0.000906116
-0.00145527
-0.0015813
0.00103663
0.000339651
0.000437319
-0.000756801
0.000551066
-0.000946041
0.000681208
-0.00115555
0.000828393
-0.00138181
0.000994454
-0.00162133
-0.00181633
0.00122948
0.000487111
0.000607757
-0.00106669
0.000744411
-0.0012922
0.000897533
-0.00153493
0.00106741
-0.00179121
-0.00202559
0.00127667
0.000663412
-0.00119325
0.000804944
-0.00143374
0.000960918
-0.00169091
0.00112963
-0.00195992
-0.00221767
0.00132171
0.000717428
0.000862273
-0.00157858
0.00101895
-0.00184759
0.00118457
-0.00212554
-0.00239616
0.00136307
0.00091595
0.00107165
-0.00200329
0.00123273
-0.00228662
-0.00256303
0.0013996
0.00111881
-0.00215655
0.00127422
-0.00244203
-0.00271928
0.00143047
0.00116024
0.00130906
-0.00259085
-0.00286535
0.00145514
0.00133726
-0.00300147
0.00147338
0.0014852
0.00368556
0.00151521
0.00143306
0.00331869
0.00359097
0.00152765
0.00131649
0.00290173
0.00143227
0.00320291
0.00348732
0.00153592
0.00130213
0.00276801
0.00142637
0.00307867
0.00337393
0.00153976
0.00114234
0.00230262
0.00128257
0.00262779
0.00141509
0.00294615
0.00324996
0.00153905
0.000965304
0.00183779
0.00111189
0.00215603
0.00125779
0.00248189
0.00139816
0.00280579
0.00311426
0.00153386
0.000928977
0.00169534
0.00107737
0.00200764
0.00122786
0.00233141
0.00137527
0.00265838
0.00296502
0.0015245
0.000749694
0.00127158
0.000890418
0.00155462
0.0010392
0.00185886
0.00119286
0.00217774
0.0013459
0.00250534
0.00279889
0.00151203
0.000587092
0.000903122
0.000712441
0.00114623
0.000850237
0.00141682
0.000997881
0.00171122
0.00115275
0.00202287
0.0013088
0.0023493
0.00260989
0.0014978
0.000554942
0.00079706
0.000675336
0.00102584
0.000809104
0.00128306
0.000954145
0.00156617
0.00110809
0.00186893
0.00126311
0.00219428
0.00247401
0.00139899
0.000423627
0.000511338
0.000524055
0.000696632
0.000638917
0.000910975
0.00076773
0.00115424
0.000908872
0.00142503
0.00105983
0.00171797
0.00121541
0.00203869
0.00233058
0.00135885
0.000400061
0.000430328
0.000494712
0.000601981
0.000603643
0.000802044
0.000726801
0.00103109
0.000863114
0.00128872
0.00101027
0.00157082
0.00116574
0.00188322
0.00218309
0.00131323
0.000302394
0.000221675
0.00037823
0.000354493
0.000467092
0.000513119
0.000569869
0.000699266
0.000686886
0.000914069
0.000817638
0.00115797
0.000960203
0.00142826
0.00111356
0.00172986
0.00203304
0.00126361
0.000287233
0.000161853
0.000358092
0.000283634
0.000441263
0.000429947
0.000537818
0.000602711
0.000648392
0.000803495
0.000772978
0.00103338
0.00091014
0.0012911
0.00105966
0.00158034
0.00188189
0.00121081
0.000217507
1.5686e-05
0.000273399
0.000105961
0.000339525
0.000217508
0.000417189
0.000352283
0.000507581
0.000512319
0.000611577
0.000699499
0.000729569
0.00091539
0.000860657
0.00116001
0.00100513
0.00143587
0.00173139
0.00115562
0.00020846
-2.83269e-05
0.000260679
5.37421e-05
0.000322339
0.000155848
0.000394738
0.000279885
0.000479129
0.000427928
0.000576559
0.000602068
0.000687725
0.000804224
0.000812269
0.00103546
0.00095081
0.00129732
0.00158323
0.00109897
0.000158765
-0.000126803
0.000200043
-6.9605e-05
0.00024883
4.95482e-06
0.000306297
9.83809e-05
0.000373706
0.000212476
0.00045233
0.000349304
0.000543329
0.00051107
0.000647618
0.000699934
0.000765334
0.000917749
0.000897352
0.00116531
0.00143882
0.00104176
0.000153313
-0.000159614
0.000192025
-0.000108316
0.000237598
-4.06185e-05
0.000291133
4.48457e-05
0.000353839
0.00014977
0.000426977
0.000276166
0.000511765
0.000426282
0.000609272
0.000602428
0.000720053
0.000806968
0.000845205
0.00104015
0.00129929
0.000984737
0.000147908
-0.000190517
0.000184187
-0.000144596
0.000226733
-8.31644e-05
0.000276575
-4.99565e-06
0.000334858
9.14873e-05
0.000402809
0.000208215
0.000481665
0.000347426
0.000572594
0.000511499
0.000676487
0.000703075
0.000794645
0.000921996
0.00116547
0.000928461
0.00011333
-0.0002467
0.000142383
-0.000219571
0.000176332
-0.000178545
0.000216004
-0.000122836
0.000262359
-5.13506e-05
0.000316479
3.73671e-05
0.000379542
0.000145152
0.000452776
0.000274192
0.000537405
0.00042687
0.000634578
0.000605901
0.000745782
0.000810792
0.00103794
0.000873309
0.000109363
-0.000270118
0.000136598
-0.000246805
0.000168289
-0.000210236
0.000205207
-0.000159754
0.000248251
-9.43947e-05
0.00029844
-1.28215e-05
0.000356895
8.66967e-05
0.000424822
0.000206264
0.000503473
0.000348219
0.000594183
0.000515192
0.000698593
0.000706381
0.000917052
0.000819485
0.000105016
-0.000292088
0.000130441
-0.00027223
0.000159919
-0.000239714
0.000194174
-0.000194009
0.00023405
-0.000134271
0.000280507
-5.92784e-05
0.000334613
3.25904e-05
0.000397539
0.000143339
0.000470547
0.000275211
0.000555097
0.000430642
0.000652952
0.000608527
0.00080296
0.000767044
7.9732e-05
-0.000317412
0.000100223
-0.000312579
0.00012383
-0.000295837
0.000151119
-0.000267003
0.000182776
-0.000225666
0.000219598
-0.000171092
0.000262492
-0.000102172
0.000312476
-1.73939e-05
0.000370684
8.51313e-05
0.000438378
0.000207517
0.000517094
0.000351925
0.000608664
0.000516957
0.000695697
0.000715927
7.59707e-05
-0.000334002
9.49396e-05
-0.000331548
0.000116709
-0.000317607
0.000141821
-0.000292115
0.000170925
-0.000254771
0.000204782
-0.000204949
0.000244253
-0.000141644
0.000290312
-6.3453e-05
0.000344057
3.13864e-05
0.000406743
0.000144831
0.000479943
0.000278726
0.000565503
0.000431397
0.000595206
0.000665994
7.17456e-05
-0.000349304
8.91468e-05
-0.000348949
0.000109053
-0.000337513
0.000131985
-0.000315047
0.000158569
-0.000281354
0.00018953
-0.00023591
0.000225694
-0.000177808
0.000267996
-0.000105755
0.000317502
-1.81192e-05
0.000375453
8.68794e-05
0.000443426
0.000210753
0.00052323
0.000351593
0.000501381
0.000617054
5.31035e-05
-0.000350786
6.70563e-05
-0.000363256
8.28431e-05
-0.000364736
0.000100858
-0.000355528
0.000121604
-0.000335793
0.000145688
-0.000305438
0.000173808
-0.00026403
0.00020676
-0.00021076
0.000245446
-0.00014444
0.000290902
-6.35755e-05
0.000344353
3.34286e-05
0.000407348
0.000147758
0.000481609
0.000277332
0.000414103
0.000568888
4.93691e-05
-0.000362018
6.19161e-05
-0.000375803
7.60445e-05
-0.000378864
9.21392e-05
-0.000371623
0.000110692
-0.000354346
0.000132292
-0.000327037
0.000157616
-0.000289354
0.000187433
-0.000240578
0.000222618
-0.000179626
0.000264182
-0.000105139
0.000313323
-1.57124e-05
0.00037154
8.9541e-05
0.000440424
0.000208448
0.000333257
0.00052127
4.52605e-05
-0.000372028
5.63504e-05
-0.000386893
6.87811e-05
-0.000391295
8.29316e-05
-0.000385773
9.92839e-05
-0.000370699
0.000118412
-0.000346166
0.000140976
-0.000311918
0.000167723
-0.000267324
0.000199502
-0.000211405
0.000237297
-0.000142935
0.000282275
-6.06899e-05
0.000335859
3.5957e-05
0.000399476
0.000144831
0.00025875
0.000473983
4.08051e-05
-0.000380765
5.03939e-05
-0.000396482
6.10947e-05
-0.000401996
7.3282e-05
-0.00039796
8.74296e-05
-0.000384846
0.000104099
-0.000362835
0.000123934
-0.000331753
0.000147661
-0.000291051
0.000176107
-0.000239851
0.000210226
-0.000177054
0.000251142
-0.000101605
0.000300185
-1.30863e-05
0.000358596
8.64204e-05
0.000190513
0.000426833
2.86203e-05
-0.000361063
3.60372e-05
-0.000388182
4.40894e-05
-0.000404534
5.30361e-05
-0.000410943
6.32479e-05
-0.000408172
7.51912e-05
-0.00039679
8.94159e-05
-0.00037706
0.000106549
-0.000348886
0.000127298
-0.0003118
0.000152464
-0.000265017
0.000182969
-0.000207559
0.000219883
-0.000138519
0.000264427
-5.76303e-05
0.000317652
3.31955e-05
0.000128474
0.000379691
2.49345e-05
-0.000366831
3.09961e-05
-0.000394243
3.74858e-05
-0.000411024
4.4663e-05
-0.00041812
5.28946e-05
-0.000416404
6.26392e-05
-0.000406534
7.44343e-05
-0.000388855
8.88903e-05
-0.000363342
0.000106693
-0.000329603
0.000128616
-0.00028694
0.000155542
-0.000234485
0.000188476
-0.000171453
0.000228518
-9.76726e-05
0.000276531
-1.48173e-05
7.25083e-05
0.000332497
2.10449e-05
-0.00037142
2.57254e-05
-0.000398924
3.06366e-05
-0.000415935
3.60381e-05
-0.000423521
4.22929e-05
-0.000422658
4.98503e-05
-0.000414092
5.92342e-05
-0.000398239
7.10363e-05
-0.000375144
8.59181e-05
-0.000344485
0.000104621
-0.000305643
0.00012798
-0.000257844
0.000156924
-0.000200396
0.000192422
-0.000133171
0.000235144
-5.754e-05
2.28056e-05
0.000284847
1.69876e-05
-0.000374804
2.02715e-05
-0.000402208
2.35984e-05
-0.000419262
2.72279e-05
-0.000427151
3.15174e-05
-0.000426948
3.69057e-05
-0.00041948
4.39005e-05
-0.000405234
5.30717e-05
-0.000384315
6.50529e-05
-0.000356466
8.05474e-05
-0.000321138
0.000100334
-0.000277631
0.000125256
-0.000225319
0.000156146
-0.00016406
0.000193488
-9.48826e-05
-2.05997e-05
0.000236893
1.06359e-05
-0.00033839
1.28007e-05
-0.000376968
1.46829e-05
-0.00040409
1.64303e-05
-0.00042101
1.8301e-05
-0.000429022
2.06455e-05
-0.000429292
2.38896e-05
-0.000422724
2.85219e-05
-0.000409866
3.50872e-05
-0.00039088
4.41862e-05
-0.000365565
5.64778e-05
-0.00033343
7.26782e-05
-0.000293831
9.35373e-05
-0.000246178
0.000119747
-0.000190269
0.000151629
-0.000126765
-5.76882e-05
0.000188718
7.5823e-06
-0.000339815
8.52347e-06
-0.00037791
9.00952e-06
-0.000404576
9.19214e-06
-0.000421192
9.32723e-06
-0.000429157
9.75595e-06
-0.000429721
1.08883e-05
-0.000423857
1.31907e-05
-0.000412169
1.71787e-05
-0.000394868
2.34152e-05
-0.000371801
3.2509e-05
-0.000342523
4.51075e-05
-0.000306429
6.18626e-05
-0.000262933
8.33308e-05
-0.000211738
0.000109693
-0.000153127
-8.84297e-05
0.000140434
4.47276e-06
-0.000340195
4.19595e-06
-0.000377633
3.30155e-06
-0.000403681
1.94463e-06
-0.000419835
3.76899e-07
-0.000427589
-1.07177e-06
-0.000428272
-2.01028e-06
-0.000422918
-1.99796e-06
-0.000412181
-5.52455e-07
-0.000396314
2.84646e-06
-0.0003752
8.7529e-06
-0.00034843
1.77404e-05
-0.000315417
3.03619e-05
-0.000275554
4.70543e-05
-0.00022843
6.78677e-05
-0.000173941
-0.000112816
9.22543e-05
1.33744e-06
-0.000339536
-1.41866e-07
-0.000376153
-2.39082e-06
-0.000401432
-5.25199e-06
-0.000416974
-8.4796e-06
-0.000424361
-1.1758e-05
-0.000424994
-1.47174e-05
-0.000419959
-1.69465e-05
-0.000409952
-1.79997e-05
-0.000395261
-1.74037e-05
-0.000375796
-1.46637e-05
-0.00035117
-9.28179e-06
-0.000320799
-8.04651e-07
-0.000284032
1.10758e-05
-0.00024031
2.6476e-05
-0.000189341
-0.000130755
4.44149e-05
-1.79381e-06
-0.00033785
-4.45046e-06
-0.000373497
-8.01819e-06
-0.000397865
-1.23385e-05
-0.000412654
-1.71735e-05
-0.000419526
-2.22238e-05
-0.000419944
-2.71442e-05
-0.000415038
-3.15553e-05
-0.000405541
-3.50523e-05
-0.000391764
-3.72115e-05
-0.000373637
-3.76004e-05
-0.000350781
-3.57976e-05
-0.000322601
-3.14374e-05
-0.000288392
-2.42834e-05
-0.000247464
-1.44355e-05
-0.000199189
-0.000142055
-3.13546e-06
-4.8915e-06
-0.000335162
-8.69112e-06
-0.000369697
-1.35325e-05
-0.000393023
-1.92572e-05
-0.000406929
-2.56372e-05
-0.000413146
-3.23916e-05
-0.000413189
-3.92021e-05
-0.000408228
-4.57239e-05
-0.000399019
-5.15953e-05
-0.000385892
-5.64452e-05
-0.000368787
-5.99043e-05
-0.000347322
-6.16268e-05
-0.000320879
-6.13308e-05
-0.000288688
-5.88773e-05
-0.000249918
-5.44349e-05
-0.000203631
-0.000148261
-4.82296e-05
-7.92715e-06
-0.000331503
-1.28267e-05
-0.000364798
-1.88875e-05
-0.000386963
-2.59527e-05
-0.000399864
-3.38055e-05
-0.000405294
-4.21858e-05
-0.000404809
-5.08037e-05
-0.00039961
-5.93514e-05
-0.000390471
-6.75119e-05
-0.000377732
-7.49676e-05
-0.000361332
-8.14129e-05
-0.000340876
-8.65753e-05
-0.000315717
-9.02516e-05
-0.000285011
-9.23764e-05
-0.000247793
-9.3128e-05
-0.000202879
-0.000148614
-9.27752e-05
-1.08737e-05
-0.000326911
-1.68219e-05
-0.000358849
-2.40396e-05
-0.000379745
-3.23724e-05
-0.000391531
-4.16165e-05
-0.00039605
-5.15336e-05
-0.000394892
-6.18642e-05
-0.000389279
-7.23383e-05
-0.000379997
-8.26843e-05
-0.000367386
-9.26385e-05
-0.000351377
-0.000101958
-0.000331557
-0.000110439
-0.000307236
-0.000117952
-0.000277498
-0.000124496
-0.000241249
-0.000130274
-0.000197101
-0.000143278
-0.00013561
-8.22825e-06
-0.000278093
-1.37058e-05
-0.000321434
-2.0644e-05
-0.000351911
-2.89479e-05
-0.000371441
-3.84672e-05
-0.000382012
-4.90117e-05
-0.000385505
-6.03663e-05
-0.000383537
-7.23023e-05
-0.000377343
-8.45878e-05
-0.000367712
-9.69967e-05
-0.000354977
-0.000109318
-0.000339056
-0.000121367
-0.000319508
-0.000133007
-0.000295595
-0.000144175
-0.000266331
-0.000154925
-0.000230498
-0.000165483
-0.000186543
-0.000132553
-0.000176208
-1.00895e-05
-0.000273375
-1.64003e-05
-0.000315123
-2.42628e-05
-0.000344049
-3.35755e-05
-0.000362128
-4.41922e-05
-0.000371395
-5.59376e-05
-0.00037376
-6.86199e-05
-0.000370855
-8.20414e-05
-0.000363922
-9.60078e-05
-0.000353745
-0.000110337
-0.000340648
-0.000124868
-0.000324525
-0.000139473
-0.000304903
-0.000154073
-0.000280995
-0.000168664
-0.000251739
-0.00018335
-0.000215812
-0.000198371
-0.000171523
-0.000116822
-0.000214102
-1.18508e-05
-0.00026798
-1.89363e-05
-0.000308038
-2.76516e-05
-0.000335333
-3.78889e-05
-0.000351891
-4.95071e-05
-0.000359777
-6.23458e-05
-0.000360921
-7.62363e-05
-0.000356965
-9.10113e-05
-0.000349147
-0.000106513
-0.000338244
-0.0001226
-0.00032456
-0.000139159
-0.000307966
-0.000156113
-0.00028795
-0.000173435
-0.000263672
-0.000191173
-0.000234002
-0.000209468
-0.000197517
-0.00022857
-0.00015242
-9.65362e-05
-0.000248856
-1.34986e-05
-0.000261955
-2.12956e-05
-0.000300241
-3.07871e-05
-0.000325842
-4.18595e-05
-0.000340819
-5.43772e-05
-0.000347259
-6.81943e-05
-0.000347104
-8.31645e-05
-0.000341994
-9.91495e-05
-0.000333162
-0.000116025
-0.000321368
-0.00013369