/*--------------------------------*- C++ -*----------------------------------*\
  =========                 |
  \\      /  F ield         | OpenFOAM: The Open Source CFD Toolbox
   \\    /   O peration     | Website:  https://openfoam.org
    \\  /    A nd           | Version:  7
     \\/     M anipulation  |
\*---------------------------------------------------------------------------*/
FoamFile
{
    version     2.0;
    format      ascii;
    class       volVectorField;
    location    "180";
    object      U;
}
// * * * * * * * * * * * * * * * * * * * * * * * * * * * * * * * * * * * * * //

dimensions      [0 1 -1 0 0 0 0];

internalField   nonuniform List<vector> 
4575
(
(-0.0125817 -0.11862 5.71932e-22)
(-0.0202116 -0.129272 9.81608e-22)
(-0.0289699 -0.133181 -7.04107e-21)
(-0.0385731 -0.131992 1.17395e-21)
(-0.048789 -0.127157 -4.52023e-21)
(-0.0594307 -0.119879 -9.52538e-21)
(-0.070353 -0.111086 7.95401e-21)
(-0.0814471 -0.101418 2.31044e-21)
(-0.0926357 -0.0912515 -2.71444e-21)
(-0.103869 -0.0807314 3.27004e-21)
(-0.115121 -0.0698186 4.40583e-21)
(-0.12639 -0.0583382 -2.73319e-21)
(-0.137692 -0.0460219 -3.6104e-21)
(-0.149068 -0.0325384 -8.52087e-21)
(-0.160594 -0.0175159 -6.50457e-22)
(-0.172216 -0.000558489 -1.40029e-21)
(-0.18385 0.0188072 -2.70716e-21)
(-0.0109879 -0.114471 -1.0842e-20)
(-0.0186621 -0.124444 4.88349e-21)
(-0.027569 -0.127844 2.90743e-20)
(-0.0373852 -0.126288 -1.74592e-20)
(-0.0478505 -0.121197 2.97325e-21)
(-0.0587594 -0.113752 1.36054e-20)
(-0.0699561 -0.104857 -5.76033e-23)
(-0.0813281 -0.0951347 7.63213e-21)
(-0.0927986 -0.0849464 -9.90896e-21)
(-0.104321 -0.0744238 1.01747e-20)
(-0.115875 -0.0635158 -8.68032e-21)
(-0.127463 -0.0520369 -3.24406e-21)
(-0.139105 -0.0397087 1.62855e-20)
(-0.150844 -0.0261922 -4.8521e-21)
(-0.162758 -0.0111122 7.68604e-22)
(-0.174776 0.00592507 -9.01405e-21)
(-0.186784 0.0253907 -8.86042e-22)
(-0.0094666 -0.110172 2.71834e-20)
(-0.0171621 -0.119476 -2.12394e-20)
(-0.0261814 -0.122386 -3.23053e-20)
(-0.0361633 -0.120484 2.86512e-20)
(-0.0468198 -0.11516 -7.5787e-21)
(-0.0579271 -0.107566 -3.86012e-21)
(-0.0693186 -0.0985835 -1.8459e-20)
(-0.0808768 -0.0888171 4.78875e-21)
(-0.0925245 -0.078613 1.75242e-20)
(-0.104217 -0.0680913 -3.70156e-21)
(-0.115937 -0.0571907 1.36976e-20)
(-0.12769 -0.0457161 -1.09712e-20)
(-0.139498 -0.0333809 -3.51574e-21)
(-0.151404 -0.0198398 2.53785e-20)
(-0.163489 -0.00471604 -1.55728e-21)
(-0.175661 0.01238 3.80879e-20)
(-0.187766 0.0319158 -8.63368e-21)
(-0.00802755 -0.10575 -2.51655e-20)
(-0.0157229 -0.1144 1.48986e-20)
(-0.0248203 -0.116841 -2.51578e-21)
(-0.0349219 -0.114617 -4.73421e-20)
(-0.0457134 -0.109083 -4.81631e-21)
(-0.0569523 -0.101361 -9.92117e-21)
(-0.0684608 -0.092307 -1.26875e-21)
(-0.0801155 -0.082509 -1.66391e-20)
(-0.0918373 -0.0722986 1.81805e-20)
(-0.103582 -0.0617852 -2.65208e-20)
(-0.115334 -0.0508987 -7.83213e-22)
(-0.1271 -0.039436 6.99243e-21)
(-0.138902 -0.0271038 -5.23483e-20)
(-0.150781 -0.0135516 -4.12602e-20)
(-0.162821 0.00159788 2.18782e-20)
(-0.17491 0.0187286 -2.94201e-20)
(-0.186838 0.0383033 1.09951e-21)
(-0.00667991 -0.101235 -1.24241e-21)
(-0.0143559 -0.109245 7.50328e-21)
(-0.023499 -0.11124 1.36461e-21)
(-0.033677 -0.10872 2.40513e-20)
(-0.0445495 -0.103001 2.75886e-20)
(-0.0558559 -0.0951732 1.13821e-20)
(-0.0674062 -0.0860681 3.97791e-20)
(-0.0790704 -0.0762543 -4.43532e-20)
(-0.0907662 -0.0660508 -9.31923e-21)
(-0.102449 -0.0555571 1.89652e-20)
(-0.114101 -0.044696 -3.17884e-20)
(-0.125731 -0.0332578 1.42016e-20)
(-0.137358 -0.0209433 3.27839e-20)
(-0.149021 -0.00739844 8.33493e-21)
(-0.160806 0.00775363 1.02229e-20)
(-0.172582 0.0248929 -1.64917e-20)
(-0.184069 0.0444746 2.01871e-21)
(-0.00543243 -0.0966513 2.1138e-20)
(-0.0130722 -0.104041 1.8127e-20)
(-0.0222315 -0.105615 8.30013e-21)
(-0.0324453 -0.102826 1.47074e-20)
(-0.043348 -0.0969496 -1.03229e-20)
(-0.0546609 -0.089041 -6.11526e-20)
(-0.0661816 -0.0799067 -5.30477e-20)
(-0.077772 -0.0700965 -3.33744e-20)
(-0.0893456 -0.0599166 1.25453e-20)
(-0.100855 -0.0494586 -7.04621e-21)
(-0.112282 -0.0386387 5.21652e-20)
(-0.123631 -0.0272422 -1.83805e-20)
(-0.13492 -0.0149654 1.44541e-20)
(-0.146185 -0.00145077 2.10646e-20)
(-0.157514 0.0136773 -1.18207e-20)
(-0.168755 0.0307959 9.63327e-20)
(-0.17955 0.0503522 -3.48426e-20)
(-0.00429342 -0.0920255 -1.33488e-20)
(-0.011883 -0.0988153 5.75246e-21)
(-0.021032 -0.0999956 8.64263e-21)
(-0.0312443 -0.0969666 2.81297e-20)
(-0.0421302 -0.0909615 5.90561e-21)
(-0.0533927 -0.083 2.49547e-21)
(-0.0648163 -0.0738616 9.50116e-20)
(-0.0762544 -0.0640778 6.96579e-20)
(-0.0876146 -0.0539427 -4.03497e-20)
(-0.0988454 -0.0435404 -5.87892e-21)
(-0.109926 -0.0327823 -1.55293e-20)
(-0.120858 -0.0214498 1.48353e-20)
(-0.131655 -0.00923509 -7.6121e-20)
(-0.142348 0.00422179 -1.51397e-20)
(-0.153029 0.0192957 -2.29609e-20)
(-0.163527 0.0363617 -5.42208e-20)
(-0.173394 0.0558607 2.90175e-20)
(-0.00327079 -0.0873799 -1.72435e-20)
(-0.0107993 -0.0935933 -1.51149e-20)
(-0.0199149 -0.0944077 2.33099e-20)
(-0.0300924 -0.0911702 -3.9354e-20)
(-0.0409184 -0.0850679 -5.51327e-21)
(-0.052078 -0.0770838 7.07069e-20)
(-0.0633423 -0.06797 -4.41628e-20)
(-0.0745548 -0.0582392 -1.77772e-20)
(-0.0856163 -0.0481741 2.08301e-20)
(-0.0964702 -0.0378523 -5.34831e-21)
(-0.107091 -0.0271813 -2.78382e-21)
(-0.117477 -0.0159396 2.12217e-20)
(-0.127636 -0.00381643 -5.39626e-20)
(-0.137595 0.00955101 1.94164e-20)
(-0.147448 0.024537 -1.37559e-20)
(-0.157013 0.0415165 -3.00536e-20)
(-0.165733 0.060927 1.10489e-20)
(-0.00983208 -0.0883977 5.46526e-20)
(-0.018895 -0.0888768 -5.57472e-20)
(-0.029008 -0.0854636 -2.64466e-20)
(-0.0397357 -0.0792978 -4.50738e-20)
(-0.0507449 -0.0713242 -4.82802e-20)
(-0.0617929 -0.0622668 -3.07619e-20)
(-0.0727129 -0.0526195 -4.04933e-20)
(-0.0833974 -0.042654 7.25738e-20)
(-0.0937835 -0.032442 -8.21852e-21)
(-0.10384 -0.0218882 -1.57701e-20)
(-0.11356 -0.0107692 -8.10804e-20)
(-0.122947 0.00122855 4.50508e-20)
(-0.132021 0.0144706 1.15553e-20)
(-0.140881 0.0293317 2.62459e-20)
(-0.149339 0.046189 1.71268e-20)
(-0.156719 0.0654809 -4.4116e-20)
(-0.00899186 -0.083249 4.76409e-20)
(-0.0179864 -0.0834247 -3.65244e-20)
(-0.0280099 -0.0798708 7.76631e-20)
(-0.0386053 -0.0736774 4.48633e-21)
(-0.0494219 -0.0657502 6.81046e-20)
(-0.0602029 -0.0567844 -3.83621e-20)
(-0.0707699 -0.0472551 6.12674e-20)
(-0.0810067 -0.037423 -5.85946e-20)
(-0.0908427 -0.0273548 -5.18662e-20)
(-0.10024 -0.0169532 4.2926e-20)
(-0.109185 -0.00599342 1.4827e-19)
(-0.117677 0.00584024 -7.91216e-20)
(-0.12573 0.018917 6.38297e-20)
(-0.133448 0.0336131 1.38988e-20)
(-0.140645 0.0503108 -5.16847e-20)
(-0.146511 0.0694559 4.21078e-20)
(-0.00828877 -0.0781652 -3.74525e-20)
(-0.0172034 -0.0780711 8.45913e-20)
(-0.0271163 -0.0744129 -1.51422e-20)
(-0.0375503 -0.06823 1.94855e-21)
(-0.0481376 -0.0603878 -9.35786e-20)
(-0.0586069 -0.0515521 5.79866e-20)
(-0.068768 -0.042179 1.26405e-20)
(-0.0784944 -0.0325186 -1.57025e-20)
(-0.0877072 -0.0226328 2.00999e-20)
(-0.0963609 -0.0124233 -7.7637e-20)
(-0.104435 -0.00166423 -4.27353e-20)
(-0.111922 0.00996218 8.64105e-20)
(-0.118832 0.0228295 -4.68203e-20)
(-0.125276 0.0373178 -6.46845e-20)
(-0.131079 0.0538172 1.17e-19)
(-0.135284 0.0727892 -8.81887e-22)
(-0.00773231 -0.0731611 -2.38262e-20)
(-0.016559 -0.0728324 -2.74274e-20)
(-0.0263447 -0.0691081 -1.11798e-19)
(-0.0365931 -0.0629756 1.3659e-20)
(-0.0469199 -0.0552595 -4.49894e-20)
(-0.0570393 -0.0465957 1.54312e-19)
(-0.0667486 -0.0374208 -8.75172e-20)
(-0.0759108 -0.0279743 5.31769e-20)
(-0.084437 -0.0183143 -1.5862e-20)
(-0.0922734 -0.00834139 8.3949e-20)
(-0.0993915 0.00217055 6.52667e-21)
(-0.105779 0.0135418 -6.76855e-20)
(-0.111439 0.0261517 -1.12812e-20)
(-0.116493 0.0403865 3.47767e-21)
(-0.120791 0.0566477 -5.91861e-21)
(-0.123213 0.0754221 7.29804e-20)
(-0.00733119 -0.0682491 -5.32892e-21)
(-0.0160656 -0.0677221 -4.4681e-20)
(-0.0257113 -0.0639711 9.78652e-20)
(-0.0357545 -0.057931 -1.04725e-20)
(-0.0457949 -0.0503843 1.12677e-19)
(-0.0555324 -0.0419368 -1.22861e-19)
(-0.0647518 -0.0330054 3.18234e-20)
(-0.0733044 -0.0238193 3.61656e-20)
(-0.0810909 -0.0144327 -1.16306e-21)
(-0.0880479 -0.00474566 -5.08172e-22)
(-0.0941386 0.00546795 -6.32403e-20)
(-0.0993445 0.0165314 8.91254e-21)
(-0.103666 0.0288316 7.9606e-20)
(-0.107232 0.0427647 9.84159e-20)
(-0.109936 0.0587466 -1.13648e-19)
(-0.110477 0.077301 -7.13474e-20)
(-0.00709315 -0.0634388 8.58975e-20)
(-0.0157339 -0.0627507 8.55127e-20)
(-0.0252306 -0.0590135 -3.30066e-20)
(-0.0350531 -0.0531089 1.38604e-19)
(-0.0447862 -0.0457769 -1.37148e-19)
(-0.0541161 -0.0375926 5.9013e-20)
(-0.0628144 -0.028953 5.88862e-20)
(-0.0707206 -0.0200772 -4.84156e-21)
(-0.0777244 -0.0110155 3.47238e-22)
(-0.0837515 -0.00166831 7.29084e-21)
(-0.0887561 0.00819093 -4.83616e-20)
(-0.0927137 0.0188891 4.6367e-20)
(-0.0956206 0.0308231 -2.36255e-20)
(-0.0976178 0.0444035 -5.09624e-20)
(-0.0986611 0.0600642 6.31871e-20)
(-0.0972458 0.0783777 1.27395e-20)
(-0.00702471 -0.0587373 -5.6776e-20)
(-0.0155731 -0.0579256 -5.79986e-20)
(-0.0249146 -0.0542436 9.10923e-20)
(-0.0345046 -0.0485185 -4.6286e-20)
(-0.043914 -0.0414478 3.56373e-20)
(-0.0528157 -0.0335753 3.13774e-21)
(-0.0609687 -0.0252783 -8.98021e-21)
(-0.0682 -0.0167654 2.15261e-20)
(-0.0743873 -0.00808402 -4.18681e-20)
(-0.0794453 0.000865496 2.19865e-20)
(-0.083318 0.0103097 6.64779e-20)
(-0.0859742 0.0205801 -9.35954e-20)
(-0.0874069 0.0320867 -5.78518e-20)
(-0.0877692 0.0452607 7.33505e-20)
(-0.0871063 0.0605572 -4.23097e-20)
(-0.0836813 0.0786106 -6.04472e-20)
(-0.00713088 -0.054149 -1.35079e-20)
(-0.0155901 -0.0532518 -4.84806e-20)
(-0.0247726 -0.0496661 -9.01356e-20)
(-0.0341211 -0.044165 -6.67546e-20)
(-0.0431939 -0.0374027 -1.29257e-19)
(-0.0516515 -0.0298918 1.22275e-20)
(-0.0592404 -0.0219897 -1.04102e-20)
(-0.0657754 -0.0138948 -8.48304e-20)
(-0.0711218 -0.00565157 7.02706e-20)
(-0.0751818 0.00283882 8.4438e-20)
(-0.0778884 0.011803 -3.93299e-21)
(-0.0792032 0.0215783 4.86982e-20)
(-0.0791152 0.0325916 -2.37765e-20)
(-0.0777904 0.0453028 3.22542e-21)
(-0.0753953 0.0601917 6.05563e-20)
(-0.0699259 0.0779731 1.40827e-19)
(-0.0157891 -0.0487311 6.6672e-20)
(-0.0248101 -0.0452828 -2.33311e-20)
(-0.0339098 -0.0400498 -6.61307e-20)
(-0.0426356 -0.033643 1.05271e-19)
(-0.0506366 -0.0265437 -2.80798e-20)
(-0.0576475 -0.0190892 1.96645e-20)
(-0.0634707 -0.0114684 1.01519e-19)
(-0.0679588 -0.00372299 -1.37351e-19)
(-0.0710012 0.00424431 -3.66941e-20)
(-0.0725181 0.0126599 -6.84397e-20)
(-0.0724626 0.0218679 1.34931e-19)
(-0.0708191 0.032317 4.04282e-21)
(-0.067765 0.0445061 6.80259e-20)
(-0.063627 0.0589471 -2.57979e-20)
(-0.0561019 0.0764795 -1.30938e-19)
(-0.0161712 -0.0443634 4.01751e-20)
(-0.0250285 -0.0410923 -1.80393e-21)
(-0.0338728 -0.0361703 1.69478e-19)
(-0.0422424 -0.0301652 6.31402e-20)
(-0.049776 -0.0235265 -1.1266e-19)
(-0.0561976 -0.0165721 5.48244e-21)
(-0.0612976 -0.009481 -4.65112e-21)
(-0.0649158 -0.00229353 1.43097e-19)
(-0.0669276 0.00508551 -1.54815e-19)
(-0.0672396 0.0128815 4.18634e-20)
(-0.0657939 0.0214457 4.41945e-22)
(-0.0625682 0.0312534 -9.80842e-20)
(-0.0577465 0.042855 -9.78452e-20)
(-0.0518519 0.0568127 -1.23387e-20)
(-0.0423023 0.074198 1.29604e-19)
(-0.0167338 -0.040146 -1.50436e-19)
(-0.0254242 -0.0370903 -4.00951e-20)
(-0.0340057 -0.0325206 -8.87054e-20)
(-0.0420092 -0.0269611 -4.06046e-20)
(-0.049065 -0.0208302 7.01508e-20)
(-0.0548868 -0.0144262 1.38071e-19)
(-0.0592538 -0.00791897 -1.4969e-19)
(-0.0619931 -0.00134806 -5.43134e-20)
(-0.0629658 0.00537817 1.90085e-19)
(-0.0620631 0.0124826 -6.56422e-20)
(-0.059213 0.020323 -9.16591e-20)
(-0.0543834 0.0294044 1.11648e-19)
(-0.0477525 0.040339 2.29261e-20)
(-0.0400427 0.0537636 1.99638e-20)
(-0.028553 0.071185 -8.23948e-20)
(-0.0174701 -0.0360747 2.72068e-20)
(-0.0259882 -0.0332703 1.71825e-19)
(-0.0342972 -0.0290912 -1.0541e-19)
(-0.0419225 -0.0240184 2.44043e-20)
(-0.0484875 -0.0184392 -4.77911e-20)
(-0.0536972 -0.0126324 -1.8652e-19)
(-0.0573202 -0.00675964 1.0981e-19)
(-0.0591712 -0.000860464 8.44652e-20)
(-0.0590967 0.00515136 -1.45981e-19)
(-0.056971 0.0114938 3.3816e-20)
(-0.0527052 0.0185294 1.2671e-19)
(-0.0462537 0.0267921 4.64516e-20)
(-0.0377742 0.0369606 1.60772e-20)
(-0.0280923 0.0497341 -9.08836e-20)
(-0.0147363 0.0673064 -4.25541e-20)
(-0.0267055 -0.0296237 -2.39846e-20)
(-0.034728 -0.0258699 1.61138e-20)
(-0.0419586 -0.0213208 9.60312e-20)
(-0.0480154 -0.0163325 1.18413e-19)
(-0.0525959 -0.0111649 -4.8753e-21)
(-0.0554591 -0.00597155 -2.47767e-20)
(-0.0564077 -0.000793469 -1.39645e-19)
(-0.0552738 0.00444822 1.01134e-19)
(-0.0519136 0.00996363 -8.70802e-21)
(-0.0462185 0.0161159 -5.62828e-20)
(-0.0381291 0.0234654 -2.67993e-19)
(-0.027803 0.0327591 9.03911e-20)
(-0.015996 0.0448139 4.94776e-21)
(-0.000653165 0.0623746 -5.14247e-20)
(-0.0275549 -0.0261403 -1.41318e-19)
(-0.0352709 -0.0228422 8.60916e-20)
(-0.0420837 -0.0188485 -1.0079e-20)
(-0.0476073 -0.0144846 -1.86175e-19)
(-0.0515333 -0.0099913 3.50755e-20)
(-0.0536121 -0.00551495 1.8714e-20)
(-0.053635 -0.00109892 -3.12577e-20)
(-0.0514195 0.00332602 8.05041e-20)
(-0.0468035 0.00795836 1.50342e-19)
(-0.0396559 0.0131572 -9.36574e-20)
(-0.0298971 0.0195044 7.46631e-20)
(-0.0176935 0.0278232 1.66654e-20)
(-0.0037413 0.039122 9.42716e-20)
(0.013758 0.0564397 3.98971e-20)
(-0.0285082 -0.0228091 1.60097e-19)
(-0.03589 -0.0199915 -1.12917e-19)
(-0.0422526 -0.016579 3.30275e-20)
(-0.0472081 -0.0128657 1.34034e-19)
(-0.0504427 -0.00907395 1.24088e-19)
(-0.0516992 -0.00534267 4.6008e-20)
(-0.0507583 -0.00171869 1.97419e-19)
(-0.0474231 0.00185541 -2.65966e-20)
(-0.0415131 0.00556232 -1.94487e-19)
(-0.032873 0.00975061 9.23654e-20)
(-0.0213961 0.0150148 -4.6212e-20)
(-0.00724959 0.0222495 -1.05345e-19)
(0.00888685 0.0326883 -7.12736e-20)
(0.0286679 0.0496973 -6.83191e-20)
(-0.0295307 -0.0196185 -2.02877e-19)
(-0.0365406 -0.0173007 7.64384e-20)
(-0.0424096 -0.0144879 -6.83024e-20)
(-0.0467485 -0.0114436 -1.1155e-19)
(-0.0492395 -0.00837088 3.57929e-21)
(-0.0496183 -0.00540153 -2.65108e-19)
(-0.0476553 -0.00258624 -1.98872e-19)
(-0.0431399 0.00011875 6.01579e-20)
(-0.0358727 0.00287618 2.95702e-20)
(-0.0256747 0.00601636 -6.03856e-20)
(-0.0124069 0.0101347 2.24507e-19)
(0.00377563 0.0161888 -3.3543e-20)
(0.0221784 0.0256358 8.76209e-20)
(0.0443971 0.0422961 7.40767e-20)
(-0.0371697 -0.0147521 1.04757e-19)
(-0.0424878 -0.0125502 -6.19855e-21)
(-0.0461458 -0.0101841 4.64294e-20)
(-0.0478222 -0.00783742 1.35454e-19)
(-0.0472457 -0.0056342 2.75375e-19)
(-0.0441768 -0.0036289 2.12051e-20)
(-0.0383913 -0.00179254 -1.13374e-19)
(-0.0296716 1.40051e-05 2.02696e-20)
(-0.0178157 0.00209453 1.84683e-19)
(-0.00264922 0.00503198 -1.20155e-19)
(0.0156942 0.00983213 1.14875e-22)
(0.0364864 0.0181529 8.32857e-20)
(0.0613602 0.0344077 -5.08475e-20)
(-0.0377162 -0.0123291 -2.7219e-20)
(-0.0424106 -0.0107408 -5.77802e-20)
(-0.0453048 -0.00905274 9.20014e-20)
(-0.0460735 -0.00742789 -1.03584e-19)
(-0.0444381 -0.00598141 -3.24907e-20)
(-0.0401491 -0.00477071 -3.52429e-21)
(-0.0329687 -0.00378167 7.89108e-20)
(-0.0226615 -0.00290162 -6.85487e-20)
(-0.00900422 -0.0018627 -1.24384e-19)
(0.0082095 -0.000100974 -3.52703e-20)
(0.0288813 0.00340201 -4.97257e-20)
(0.0522252 0.0104774 -1.45769e-19)
(0.0800374 0.0262532 -4.07252e-20)
(-0.0381117 -0.0100163 -1.25069e-19)
(-0.0420921 -0.00903647 6.99873e-20)
(-0.0441189 -0.00801633 -2.02539e-19)
(-0.0438621 -0.0070975 -9.87158e-20)
(-0.0410353 -0.00638447 1.39551e-21)
(-0.0353778 -0.00593574 8.13553e-20)
(-0.0266385 -0.00575093 -5.12204e-20)
(-0.014566 -0.00574504 1.2563e-19)
(0.00108607 -0.00569023 -2.97069e-20)
(0.0205475 -0.00506062 3.76253e-20)
(0.043758 -0.00285297 1.32203e-19)
(0.0698557 0.00288645 1.6929e-20)
(0.100951 0.0181046 7.74664e-20)
(-0.0414392 -0.00741585 -1.36696e-19)
(-0.0424727 -0.00704422 3.92056e-20)
(-0.0410465 -0.00680431 3.7826e-21)
(-0.0368645 -0.00678786 -9.41334e-20)
(-0.0296538 -0.00705165 6.65127e-20)
(-0.0191495 -0.00760629 -5.05444e-20)
(-0.00508554 -0.00839295 -8.8972e-20)
(0.0128013 -0.00922649 -1.10845e-19)
(0.0347643 -0.00964133 2.64818e-20)
(0.0607737 -0.00866774 3.46124e-20)
(0.0898605 -0.00431293 -3.11058e-20)
(0.124635 0.0102798 1.25546e-19)
(-0.0403528 -0.00586154 -3.84048e-20)
(-0.0402444 -0.00610967 3.13246e-19)
(-0.0374776 -0.006511 2.213e-20)
(-0.0317448 -0.00714166 -3.22097e-20)
(-0.0227594 -0.00805307 -2.08463e-19)
(-0.0102424 -0.00926263 3.89448e-20)
(0.00608549 -0.010734 -9.53679e-20)
(0.0264977 -0.0123259 6.09742e-20)
(0.051262 -0.0136419 5.31957e-20)
(0.0803753 -0.0137788 -1.92039e-19)
(0.112712 -0.0108002 -5.62592e-20)
(0.151594 0.00313344 -1.87395e-19)
(-0.0387305 -0.00436012 1.34346e-20)
(-0.0373086 -0.00519113 -9.42524e-20)
(-0.0330035 -0.00618647 1.31868e-19)
(-0.0254937 -0.00740371 8.39425e-22)
(-0.0144772 -0.00888459 1.55805e-19)
(0.000339433 -0.0106478 1.02289e-19)
(0.0192457 -0.0126737 1.72229e-20)
(0.0425176 -0.0148614 1.97302e-19)
(0.0704236 -0.0168878 -1.71659e-19)
(0.102979 -0.0179438 7.68867e-20)
(0.138841 -0.0162626 5.7155e-20)
(0.182259 -0.00295973 4.67005e-20)
(-0.0335397 -0.00427297 -1.55322e-19)
(-0.0274734 -0.00580691 -1.16324e-19)
(-0.0179321 -0.0075411 5.34897e-20)
(-0.00459695 -0.00950288 -1.47708e-19)
(0.0128392 -0.0117059 9.87937e-21)
(0.0346723 -0.014139 5.38982e-20)
(0.0611714 -0.0167346 3.98891e-20)
(0.0925879 -0.019241 1.15041e-19)
(0.128941 -0.0209598 2.23436e-20)
(0.168601 -0.0204191 -7.87314e-20)
(0.216948 -0.00762651 8.02255e-20)
(-0.0288149 -0.00334598 1.33902e-19)
(-0.0207421 -0.00535656 -6.75274e-20)
(-0.00889065 -0.00753105 2.07238e-21)
(0.00707588 -0.00987777 3.56605e-20)
(0.0274767 -0.0123984 7.2353e-20)
(0.0526086 -0.0150814 -8.77033e-21)
(0.0827214 -0.0178813 -1.93244e-20)
(0.118029 -0.0206091 -9.24767e-20)
(0.158531 -0.0226799 -5.92364e-20)
(0.202245 -0.0230434 -5.357e-20)
(0.255824 -0.010519 8.08573e-20)
(-0.0126735 -0.00482758 4.65661e-20)
(0.00178574 -0.00736091 1.60205e-20)
(0.0207143 -0.00999228 -7.06587e-20)
(0.04444 -0.0127049 -1.58728e-19)
(0.0732528 -0.0154766 7.77041e-20)
(0.107369 -0.0182713 -3.6434e-20)
(0.14694 -0.0209478 -7.71068e-21)
(0.191916 -0.0230221 1.43549e-19)
(0.239908 -0.02398 1.41944e-19)
(0.298865 -0.0113364 -2.06212e-19)
(-0.00314394 -0.00421977 4.74504e-21)
(0.0142336 -0.00702742 -1.11082e-19)
(0.0364645 -0.00984147 1.44068e-19)
(0.0638796 -0.0126205 9.1141e-20)
(0.0967518 -0.0153226 -1.7184e-19)
(0.135247 -0.0179068 -1.40454e-19)
(0.179428 -0.0202591 3.11327e-20)
(0.229149 -0.0219722 1.71949e-19)
(0.281607 -0.0231517 7.52072e-20)
(0.345855 -0.00984401 3.79848e-20)
(0.00795564 -0.00353917 -2.18334e-19)
(0.0285682 -0.00653525 -1.94177e-19)
(0.0544426 -0.00943039 -1.88296e-20)
(0.0859048 -0.0121538 -1.02157e-20)
(0.123197 -0.0146355 6.00752e-20)
(0.166416 -0.016816 3.79469e-20)
(0.215512 -0.018584 4.70178e-20)
(0.270174 -0.0195795 -2.12766e-19)
(0.327258 -0.020558 -5.4911e-20)
(0.396388 -0.00589788 1.38602e-19)
(0.044882 -0.00589494 8.56052e-20)
(0.0747335 -0.00877143 -7.70822e-20)
(0.110583 -0.0113227 -1.03863e-19)
(0.152626 -0.0134441 -1.24904e-20)
(0.200869 -0.0150461 9.95838e-20)
(0.255127 -0.0159916 -6.27029e-20)
(0.314834 -0.0159477 2.35514e-20)
(0.376697 -0.0162673 4.98647e-20)
(0.4499 0.000524691 1.17278e-19)
(0.0632444 -0.00512045 3.90928e-20)
(0.0973905 -0.00788114 -5.20893e-20)
(0.137938 -0.0101506 1.20584e-19)
(0.185022 -0.0117856 -1.03395e-20)
(0.238531 -0.0126566 -2.53826e-20)
(0.298129 -0.0125678 -3.92287e-20)
(0.362873 -0.0112205 5.88014e-20)
(0.42967 -0.0103701 -1.41666e-19)
(0.505627 0.00939991 -1.79524e-19)
(0.122436 -0.00677692 1.94089e-19)
(0.167958 -0.00866261 -1.71792e-20)
(0.220318 -0.00970061 -3.57894e-20)
(0.27927 -0.00971539 -4.35142e-21)
(0.344315 -0.0084148 8.40151e-20)
(0.413985 -0.0055773 1.42119e-19)
(0.48583 -0.00285194 -3.83009e-20)
(0.56235 0.0209822 1.32089e-19)
(0.149865 -0.00547356 -6.5805e-20)
(0.200587 -0.00688157 -4.71984e-20)
(0.258396 -0.00723051 -1.49979e-19)
(0.322895 -0.00629945 -3.88332e-20)
(0.393429 -0.00367182 3.26703e-21)
(0.467927 0.000732459 -9.72797e-20)
(0.545023 0.00646215 4.67254e-20)
(0.61855 0.0356239 -9.33676e-20)
(0.235735 -0.00482369 -7.63427e-20)
(0.299086 -0.00441157 1.81634e-19)
(0.369136 -0.00249291 1.07546e-19)
(0.44511 0.00146441 2.55979e-20)
(0.524501 0.00734521 -1.06996e-19)
(0.60778 0.0174172 -6.32743e-21)
(0.675414 0.0505379 -1.57524e-19)
(0.273275 -0.00249342 -3.59709e-20)
(0.342164 -0.00126554 3.30212e-20)
(0.417633 0.00163526 -5.675e-20)
(0.498791 0.00679326 -6.31773e-20)
(0.582986 0.0138371 1.2817e-19)
(0.673585 0.028335 -3.91217e-20)
(0.741118 0.0557314 2.83209e-21)
(0.387364 0.00221011 -7.19609e-20)
(0.467963 0.00606717 1.97432e-20)
(0.553778 0.0122438 -2.50166e-20)
(0.641999 0.0199012 -1.23987e-20)
(0.736669 0.0352776 2.87081e-20)
(0.810627 0.0493958 2.93974e-19)
(0.519678 0.0108363 2.45811e-21)
(0.60941 0.0178817 -1.31107e-19)
(0.700594 0.0258853 -3.39575e-20)
(0.796649 0.0409252 1.56341e-19)
(0.873101 0.048098 -1.70667e-19)
(0.572327 0.0160004 1.36873e-19)
(0.665111 0.0238233 4.19282e-20)
(0.758088 0.0321432 2.31265e-19)
(0.853654 0.0465982 -1.42378e-19)
(0.929943 0.0504983 2.29576e-19)
(0.720356 0.0301593 5.30124e-20)
(0.813948 0.0388248 3.08855e-20)
(0.907592 0.0526332 -2.46705e-19)
(0.982279 0.0550409 -1.34824e-19)
(0.86771 0.0459699 4.28358e-20)
(0.958272 0.0591357 1.93319e-19)
(1.03023 0.0610373 -1.30108e-19)
(0.918961 0.0535588 -1.49218e-19)
(1.00549 0.0661022 9.32268e-20)
(1.07381 0.0680022 4.15801e-20)
(1.04907 0.0734618 -1.46709e-19)
(1.11302 0.0755612 2.01165e-19)
(1.14793 0.0834343 -1.00865e-19)
(1.32012 0.00544999 -1.32214e-19)
(1.25641 0.00477105 -4.14187e-19)
(1.30102 0.0128545 2.35145e-19)
(1.15752 0.0112095 -2.81281e-19)
(1.22814 0.0109022 2.19273e-19)
(1.27862 0.0199414 -7.01688e-20)
(1.11912 0.0164902 -1.62028e-19)
(1.19641 0.0164864 4.75896e-19)
(1.25267 0.0265243 -1.0724e-19)
(0.984537 0.0178643 6.41666e-21)
(1.07753 0.0210488 -4.52084e-20)
(1.16117 0.0214129 -4.65046e-19)
(1.22294 0.0323442 -2.44438e-19)
(0.832328 0.0172965 -2.45317e-20)
(0.93636 0.0205085 7.20543e-20)
(1.03298 0.024792 2.90617e-19)
(1.12243 0.0255973 -1.00797e-19)
(1.1892 0.0370397 2.87743e-19)
(0.781712 0.0176902 1.55063e-19)
(0.886542 0.0222121 -1.52447e-19)
(0.985764 0.0276477 -2.67726e-19)
(1.08024 0.0290245 4.49029e-19)
(1.15122 0.040099 -2.81208e-19)
(0.627147 0.0104899 -2.2034e-20)
(0.731043 0.0170485 -2.76807e-19)
(0.835601 0.0229678 1.02913e-19)
(0.93629 0.0295854 1.84541e-19)
(1.03473 0.0318403 3.99618e-21)
(1.10821 0.0405698 3.77028e-19)
(0.483391 -0.000605135 2.65922e-19)
(0.579849 0.0074281 -6.66615e-20)
(0.680877 0.0153868 -1.91048e-19)
(0.784112 0.0227996 -4.72318e-20)
(0.885115 0.0306446 3.00734e-19)
(0.985906 0.034779 9.55453e-21)
(1.05962 0.0360844 -1.28486e-19)
(0.442362 -0.00582544 6.07657e-20)
(0.534312 0.00340779 1.91052e-19)
(0.631762 0.0127396 9.97774e-20)
(0.732705 0.0217361 1.14308e-19)
(0.833014 0.030874 -3.42027e-19)
(0.933291 0.039273 7.62417e-20)
(1.01529 0.0337582 -2.82401e-19)
(0.324148 -0.0217182 1.65797e-20)
(0.403786 -0.0118467 -1.4861e-19)
(0.490899 -0.00149908 -6.75043e-20)
(0.584203 0.00915536 -1.52278e-19)
(0.682029 0.0197845 -6.56372e-20)
(0.780934 0.0302517 2.45377e-20)
(0.879774 0.0429497 -1.50355e-19)
(0.971928 0.0372735 -1.27985e-20)
(0.293302 -0.029208 2.33639e-19)
(0.367809 -0.0185652 2.18058e-20)
(0.449893 -0.00720351 1.03798e-19)
(0.538636 0.00469332 -1.5346e-19)
(0.632689 0.0169173 2.38268e-19)
(0.729547 0.0287863 6.27295e-20)
(0.826294 0.0447853 8.91126e-20)
(0.926144 0.0415459 3.15426e-19)
(0.203244 -0.0473062 1.81971e-19)
(0.265024 -0.037171 1.83048e-20)
(0.334494 -0.0258629 7.80292e-20)
(0.411479 -0.0135986 1.07036e-19)
(0.495388 -0.000565298 -4.69805e-20)
(0.585165 0.0131366 -1.86276e-19)
(0.679255 0.0264704 9.16043e-20)
(0.773186 0.0448519 -1.19028e-19)
(0.877354 0.0445869 -3.36708e-19)
(0.181951 -0.0559718 1.90299e-19)
(0.239225 -0.0454798 -5.98846e-20)
(0.303825 -0.0336091 -6.52055e-20)
(0.375747 -0.0205595 -2.11937e-19)
(0.454677 -0.00651169 2.91623e-19)
(0.539815 0.00850965 -8.34408e-20)
(0.630441 0.02332 -5.45699e-20)
(0.720989 0.0434824 7.88734e-20)
(0.82669 0.0463129 2.50906e-19)
(0.11636 -0.073779 4.06945e-19)
(0.162713 -0.064778 -3.00915e-19)
(0.215756 -0.0540025 -2.29186e-19)
(0.275709 -0.041665 -1.54349e-19)
(0.342693 -0.0279471 3.33906e-19)
(0.416612 -0.013014 -1.82097e-21)
(0.496897 0.00315576 8.8733e-20)
(0.583491 0.0193917 -3.32579e-19)
(0.670273 0.0409285 2.10324e-20)
(0.775301 0.0468173 1.57752e-19)
(0.102441 -0.0826785 -3.18035e-20)
(0.145332 -0.0736041 -8.12569e-20)
(0.194431 -0.0626063 1.28986e-19)
(0.249995 -0.0498884 1.6672e-19)
(0.31223 -0.0356138 -4.08045e-19)
(0.381207 -0.0199262 -1.62099e-19)
(0.45656 -0.00277876 1.61709e-19)
(0.538713 0.0147736 1.98461e-19)
(0.621464 0.0373637 2.18465e-19)
(0.724059 0.0460828 1.22385e-20)
(0.0557037 -0.0982856 -6.79196e-20)
(0.0898972 -0.0914569 -4.47615e-20)
(0.129597 -0.0823335 2.33017e-19)
(0.175035 -0.0711624 -2.37661e-19)
(0.226484 -0.0581393 -1.36068e-19)
(0.284206 -0.0434109 6.16183e-20)
(0.348388 -0.0270963 1.09948e-19)
(0.418841 -0.00913674 -9.53859e-20)
(0.496303 0.00957724 1.5153e-19)
(0.57484 0.0329462 2.1113e-19)
(0.673663 0.0441208 -2.04188e-19)
(0.0468541 -0.106778 2.64642e-19)
(0.0785357 -0.100017 -2.05647e-19)
(0.115292 -0.0908571 2.37234e-19)
(0.157338 -0.0795498 -3.00285e-20)
(0.204948 -0.0662852 9.79981e-20)
(0.258417 -0.0511951 -6.08047e-20)
(0.318008 -0.0343741 -5.66486e-20)
(0.383678 -0.0157596 3.59425e-20)
(0.456341 0.00393216 -3.74724e-19)
(0.530564 0.0278386 3.80228e-20)
(0.624671 0.0410217 1.71916e-19)
(0.0388159 -0.11498 -4.25123e-19)
(0.0681749 -0.108268 5.08378e-20)
(0.102207 -0.099076 -9.95182e-20)
(0.141108 -0.0876593 -1.06141e-19)
(0.185146 -0.0742056 -4.1248e-20)
(0.234629 -0.0588347 3.03755e-19)
(0.289867 -0.0416184 -6.01727e-20)
(0.350935 -0.0224957 -6.70666e-20)
(0.418812 -0.00202419 2.12276e-19)
(0.488694 0.0222016 -8.85926e-20)
(0.577495 0.0369313 -3.27974e-20)
(0.00846988 -0.126628 7.52029e-20)
(0.0314518 -0.122819 -4.19629e-20)
(0.0586484 -0.116133 9.80489e-20)
(0.0901464 -0.106904 6.46623e-21)
(0.126124 -0.0953961 3.30262e-19)
(0.166837 -0.0817959 2.4899e-19)
(0.212595 -0.0662139 3.83518e-20)
(0.263734 -0.048703 3.67431e-20)
(0.320417 -0.0292079 3.86715e-20)
(0.383617 -0.00815736 7.82013e-20)
(0.449197 0.0161864 9.10843e-20)
(0.532394 0.032023 1.24737e-19)
(0.00336501 -0.133982 2.3735e-20)
(0.0246418 -0.130232 2.93306e-19)
(0.0498086 -0.123543 2.72529e-19)
(0.0789345 -0.114268 -5.27674e-20)
(0.112182 -0.102681 -4.2451e-19)
(0.149793 -0.088969 -7.14838e-20)
(0.192073 -0.0732362 -1.768e-19)
(0.239366 -0.0555216 2.63372e-19)
(0.291903 -0.035779 6.51703e-20)
(0.3506 -0.0143447 -3.25077e-19)
(0.41197 0.0099303 -1.51703e-19)
(0.489489 0.0264817 -5.9823e-19)
(-0.00137282 -0.140904 -1.10379e-19)
(0.018284 -0.137164 1.04734e-19)
(0.0415289 -0.130442 -8.77248e-20)
(0.0684183 -0.12111 -1.91174e-19)
(0.0991009 -0.109451 1.41474e-19)
(0.133807 -0.0956568 -3.90264e-20)
(0.172835 -0.0798261 -1.60274e-19)
(0.216527 -0.0619898 -2.11567e-19)
(0.26516 -0.0421151 1.07554e-19)
(0.319567 -0.020481 6.90539e-20)
(0.376859 0.00355511 -1.003e-19)
(0.448794 0.0204913 2.93431e-19)
(-0.0205581 -0.147647 2.61683e-20)
(-0.0058089 -0.147348 1.77354e-19)
(0.0122944 -0.143572 -4.09265e-19)
(0.0337045 -0.136787 -1.6421e-19)
(0.0584696 -0.127385 6.15061e-20)
(0.0867288 -0.115661 2.15186e-20)
(0.118702 -0.101809 -7.64449e-20)
(0.154679 -0.0859287 2.0985e-19)
(0.194995 -0.0680456 -1.63671e-20)
(0.23996 -0.0481454 1.32443e-19)
(0.290309 -0.0264808 6.17577e-20)
(0.343682 -0.00283397 2.78199e-19)
(0.410236 0.014226 1.22424e-19)
(-0.0235002 -0.153615 -8.01334e-20)
(-0.00999504 -0.153277 4.58388e-20)
(0.00660572 -0.149421 1.40417e-19)
(0.026251 -0.142544 -1.39377e-19)
(0.0489845 -0.133061 -1.53001e-19)
(0.0749395 -0.121278 2.06513e-21)
(0.104329 -0.107394 3.58613e-20)
(0.137432 -0.0915079 1.95232e-20)
(0.174578 -0.0736477 -1.53016e-19)
(0.216095 -0.0538206 -1.49288e-19)
(0.262622 -0.0322776 -4.13145e-20)
(0.312248 -0.00914717 -2.86556e-19)
(0.37369 0.00784474 -9.46168e-20)
(-0.0262584 -0.159094 4.98017e-20)
(-0.013971 -0.15866 3.13241e-20)
(0.0011665 -0.154683 1.03921e-21)
(0.019103 -0.147691 3.19923e-19)
(0.0398818 -0.138118 3.96879e-19)
(0.0636335 -0.126285 6.19868e-20)
(0.090566 -0.112392 -1.39089e-19)
(0.120952 -0.0965437 5.55027e-20)
(0.155112 -0.0787719 2.92879e-19)
(0.193382 -0.0591091 -2.76465e-19)
(0.236311 -0.0378208 -4.13991e-20)
(0.282364 -0.0153075 1.16913e-19)
(0.338993 0.00148953 -1.86239e-19)
(-0.0371802 -0.160452 1.04222e-19)
(-0.028854 -0.164056 6.49699e-20)
(-0.0177661 -0.163475 -9.51356e-20)
(-0.00406141 -0.15934 -1.84462e-19)
(0.0122122 -0.152213 -9.90584e-20)
(0.0311007 -0.142547 -4.26332e-19)
(0.0527351 -0.130673 -1.92159e-19)
(0.0773207 -0.116798 1.95903e-20)
(0.105125 -0.101029 7.53756e-21)
(0.136459 -0.0834074 -3.7177e-20)
(0.171664 -0.0639919 2.94871e-19)
(0.211203 -0.0430713 1.62475e-19)
(0.253852 -0.021247 -7.25265e-20)
(0.305966 -0.00471412 2.4973e-19)
(-0.0386689 -0.165031 2.15939e-19)
(-0.0313021 -0.168478 -1.70988e-19)
(-0.0214007 -0.167703 8.21047e-20)
(-0.00910466 -0.163381 1.81153e-19)
(0.00554446 -0.156104 4.34422e-20)
(0.0225977 -0.146345 1.72148e-19)
(0.0421889 -0.134444 3.5795e-19)
(0.0645229 -0.120613 -2.85899e-20)