/*--------------------------------*- C++ -*----------------------------------*\
  =========                 |
  \\      /  F ield         | OpenFOAM: The Open Source CFD Toolbox
   \\    /   O peration     | Website:  https://openfoam.org
    \\  /    A nd           | Version:  7
     \\/     M anipulation  |
\*---------------------------------------------------------------------------*/
FoamFile
{
    version     2.0;
    format      ascii;
    class       volScalarField;
    location    "280";
    object      p;
}
// * * * * * * * * * * * * * * * * * * * * * * * * * * * * * * * * * * * * * //

dimensions      [0 2 -2 0 0 0 0];

internalField   nonuniform List<scalar> 
20050
(
-0.353508
-0.356086
-0.357275
-0.358161
-0.35887
-0.359487
-0.360102
-0.360762
-0.361487
-0.362279
-0.363139
-0.364076
-0.365128
-0.366362
-0.36794
-0.357157
-0.359928
-0.361252
-0.362294
-0.363193
-0.364035
-0.364909
-0.365857
-0.366891
-0.368002
-0.369175
-0.3704
-0.371685
-0.373082
-0.374683
-0.361052
-0.363985
-0.365431
-0.366625
-0.367714
-0.368783
-0.369922
-0.371165
-0.372517
-0.373958
-0.375455
-0.376978
-0.378508
-0.380074
-0.381689
-0.3652
-0.368259
-0.369814
-0.371152
-0.372428
-0.373727
-0.375134
-0.376679
-0.378357
-0.380134
-0.381965
-0.383793
-0.385577
-0.387315
-0.388935
-0.369601
-0.372746
-0.374395
-0.375869
-0.377327
-0.378855
-0.380533
-0.382384
-0.384392
-0.386513
-0.388681
-0.390819
-0.392862
-0.394771
-0.396384
-0.37425
-0.377439
-0.379164
-0.380764
-0.382399
-0.384153
-0.386102
-0.388259
-0.3906
-0.393065
-0.395572
-0.39802
-0.400321
-0.402394
-0.40398
-0.379138
-0.382325
-0.384108
-0.38582
-0.387624
-0.3896
-0.391816
-0.394278
-0.39695
-0.399758
-0.402599
-0.40535
-0.407902
-0.410122
-0.411652
-0.384247
-0.387386
-0.389208
-0.391018
-0.39298
-0.395169
-0.397646
-0.400408
-0.403404
-0.406548
-0.409715
-0.412754
-0.415541
-0.417883
-0.419312
-0.389554
-0.3926
-0.39444
-0.396332
-0.398438
-0.40083
-0.403558
-0.40661
-0.409922
-0.413389
-0.416865
-0.420173
-0.423167
-0.425599
-0.426863
-0.395032
-0.39794
-0.399775
-0.401733
-0.403968
-0.406548
-0.409514
-0.412842
-0.416454
-0.420228
-0.423992
-0.427538
-0.430704
-0.433184
-0.434195
-0.400647
-0.403375
-0.405184
-0.407186
-0.409532
-0.412283
-0.41547
-0.419056
-0.422949
-0.427007
-0.431032
-0.434781
-0.438072
-0.440553
-0.441195
-0.406363
-0.408871
-0.41063
-0.412657
-0.415092
-0.417994
-0.421381
-0.425203
-0.429353
-0.433667
-0.43792
-0.44183
-0.445191
-0.447624
-0.44775
-0.41214
-0.414391
-0.41608
-0.418107
-0.420609
-0.423637
-0.427199
-0.43123
-0.435609
-0.440147
-0.444591
-0.448616
-0.451981
-0.454321
-0.453752
-0.417935
-0.419899
-0.421494
-0.423499
-0.426042
-0.429168
-0.432875
-0.437086
-0.441659
-0.446386
-0.450981
-0.455071
-0.458368
-0.460576
-0.459092
-0.423706
-0.425357
-0.426838
-0.428795
-0.43135
-0.434544
-0.438363
-0.442717
-0.447448
-0.452324
-0.457027
-0.461132
-0.464283
-0.466341
-0.463587
-0.429411
-0.43073
-0.432076
-0.433959
-0.436495
-0.439723
-0.443616
-0.448074
-0.452922
-0.457903
-0.46267
-0.466739
-0.46967
-0.471604
-0.467063
-0.43501
-0.435984
-0.437175
-0.438959
-0.441444
-0.444667
-0.448594
-0.453112
-0.458032
-0.463072
-0.467854
-0.471843
-0.474472
-0.476263
-0.470397
-0.440466
-0.441089
-0.442109
-0.443765
-0.446165
-0.449343
-0.45326
-0.457791
-0.462732
-0.467782
-0.472531
-0.476403
-0.478732
-0.480076
-0.47298
-0.445748
-0.44602
-0.446852
-0.448356
-0.450634
-0.453725
-0.457583
-0.462077
-0.466987
-0.471995
-0.476658
-0.480367
-0.482344
-0.483264
-0.474674
-0.450827
-0.450756
-0.451389
-0.452713
-0.454833
-0.457793
-0.461543
-0.465946
-0.470771
-0.475678
-0.480203
-0.483703
-0.485263
-0.485818
-0.475513
-0.455686
-0.455285
-0.455707
-0.456825
-0.458752
-0.461536
-0.465127
-0.469384
-0.474066
-0.478815
-0.483146
-0.48639
-0.48747
-0.487695
-0.47555
-0.460311
-0.4596
-0.4598
-0.460691
-0.462389
-0.464953
-0.468333
-0.472388
-0.476868
-0.481401
-0.485479
-0.488417
-0.488964
-0.488869
-0.474838
-0.464698
-0.463699
-0.463672
-0.464313
-0.465749
-0.468049
-0.47117
-0.474968
-0.47919
-0.483447
-0.487212
-0.48979
-0.489758
-0.489326
-0.473436
-0.468852
-0.46759
-0.46733
-0.467703
-0.468845
-0.470842
-0.473656
-0.477146
-0.481054
-0.484979
-0.488373
-0.49053
-0.489884
-0.489052
-0.47142
-0.472783
-0.471286
-0.470791
-0.470879
-0.471701
-0.473356
-0.47582
-0.478955
-0.482498
-0.486036
-0.489003
-0.490673
-0.48939
-0.488041
-0.468877
-0.476511
-0.474806
-0.474075
-0.473864
-0.474342
-0.475626
-0.477701
-0.480437
-0.483569
-0.486671
-0.489158
-0.490267
-0.488343
-0.486293
-0.465914
-0.480065
-0.478177
-0.477209
-0.47669
-0.476804
-0.477689
-0.479344
-0.481645
-0.484326
-0.486944
-0.488903
-0.48937
-0.486813
-0.483815
-0.462623
-0.483478
-0.481429
-0.480225
-0.479389
-0.479126
-0.479591
-0.4808
-0.482636
-0.48483
-0.486923
-0.488306
-0.488049
-0.484876
-0.480581
-0.458981
-0.486789
-0.484597
-0.483158
-0.482
-0.48135
-0.481381
-0.482124
-0.483471
-0.485147
-0.486677
-0.487437
-0.486383
-0.482613
-0.47653
-0.454849
-0.490043
-0.487718
-0.486045
-0.484563
-0.48352
-0.483108
-0.483373
-0.484211
-0.485342
-0.486271
-0.486361
-0.484462
-0.480114
-0.47175
-0.450782
-0.493287
-0.490833
-0.488927
-0.48712
-0.485681
-0.484822
-0.4846
-0.484914
-0.485474
-0.485764
-0.485133
-0.482359
-0.477407
-0.466789
-0.449508
-0.49657
-0.493983
-0.491841
-0.48971
-0.487878
-0.486572
-0.485857
-0.485633
-0.485597
-0.485207
-0.483795
-0.480112
-0.474396
-0.462304
-0.453353
-0.499938
-0.497208
-0.494829
-0.492375
-0.490154
-0.488403
-0.487192
-0.486417
-0.485755
-0.484636
-0.482377
-0.477739
-0.471075
-0.458039
-0.449776
-0.50344
-0.500547
-0.497926
-0.495152
-0.492546
-0.490353
-0.488644
-0.487301
-0.485979
-0.484081
-0.480903
-0.475247
-0.467473
-0.453564
-0.444018
-0.507117
-0.504036
-0.501169
-0.498076
-0.495089
-0.492458
-0.490246
-0.488316
-0.486295
-0.483558
-0.479385
-0.472643
-0.463651
-0.448864
-0.4376
-0.51101
-0.50771
-0.504587
-0.501175
-0.497812
-0.494745
-0.492021
-0.489479
-0.486713
-0.483072
-0.47783
-0.469934
-0.459662
-0.443991
-0.430924
-0.515152
-0.511596
-0.508208
-0.504476
-0.500738
-0.497233
-0.493985
-0.490799
-0.487236
-0.482623
-0.47624
-0.467132
-0.455553
-0.438996
-0.424278
-0.51957
-0.515719
-0.512055
-0.508
-0.503887
-0.499938
-0.496146
-0.492278
-0.487858
-0.482201
-0.47461
-0.464244
-0.451361
-0.433933
-0.417778
-0.524285
-0.520098
-0.516145
-0.511761
-0.507269
-0.502865
-0.498503
-0.493907
-0.488565
-0.481792
-0.472933
-0.461279
-0.447117
-0.428848
-0.41148
-0.529312
-0.524747
-0.520492
-0.515773
-0.510892
-0.506017
-0.501051
-0.495671
-0.489338
-0.481379
-0.471201
-0.458243
-0.442844
-0.423775
-0.405394
-0.534659
-0.529676
-0.525104
-0.52004
-0.514759
-0.509388
-0.503777
-0.497552
-0.490153
-0.48094
-0.469404
-0.455141
-0.438555
-0.418735
-0.399511
-0.54033
-0.534889
-0.529987
-0.524566
-0.518868
-0.512971
-0.506663
-0.499523
-0.490982
-0.480451
-0.467528
-0.451973
-0.43426
-0.41374
-0.39381
-0.546321
-0.540387
-0.535141
-0.529349
-0.523212
-0.51675
-0.509685
-0.501554
-0.491794
-0.479889
-0.465562
-0.448737
-0.42996
-0.40879
-0.388264
-0.552623
-0.546165
-0.540562
-0.534384
-0.52778
-0.520706
-0.512816
-0.503613
-0.492556
-0.479229
-0.463492
-0.445431
-0.425651
-0.403881
-0.382842
-0.559224
-0.552215
-0.546243
-0.539662
-0.532558
-0.524816
-0.516024
-0.50566
-0.493234
-0.478445
-0.461304
-0.442047
-0.421326
-0.399
-0.377512
-0.566106
-0.558523
-0.552172
-0.545168
-0.537524
-0.529051
-0.51927
-0.507657
-0.493792
-0.477512
-0.458982
-0.438576
-0.416974
-0.394134
-0.372245
-0.573244
-0.565072
-0.558333
-0.550883
-0.542653
-0.533374
-0.522513
-0.50956
-0.494193
-0.476404
-0.456512
-0.435006
-0.412579
-0.389262
-0.367009
-0.58061
-0.571839
-0.564702
-0.556781
-0.547911
-0.537745
-0.525707
-0.511325
-0.494402
-0.475098
-0.453876
-0.431322
-0.408123
-0.384364
-0.361774
-0.588171
-0.578794
-0.571254
-0.562831
-0.553261
-0.542117
-0.528799
-0.512904
-0.494383
-0.473568
-0.451056
-0.427508
-0.403589
-0.379417
-0.356513
-0.595886
-0.585905
-0.577953
-0.568995
-0.558656
-0.546438
-0.531737
-0.514252
-0.4941
-0.47179
-0.448035
-0.423545
-0.398953
-0.374398
-0.351197
-0.60371
-0.593129
-0.584758
-0.575227
-0.564042
-0.550648
-0.534465
-0.515319
-0.493519
-0.469739
-0.444792
-0.419415
-0.394195
-0.369283
-0.3458
-0.611589
-0.600422
-0.591623
-0.581473
-0.569361
-0.554685
-0.536922
-0.51606
-0.492606
-0.467391
-0.441305
-0.415094
-0.38929
-0.364047
-0.340296
-0.619467
-0.607728
-0.598492
-0.587675
-0.574545
-0.558481
-0.539049
-0.516427
-0.491327
-0.464721
-0.437554
-0.410561
-0.384214
-0.358665
-0.334661
-0.627276
-0.614987
-0.605302
-0.593763
-0.579524
-0.561967
-0.540787
-0.516376
-0.489649
-0.461704
-0.433515
-0.405793
-0.378945
-0.353113
-0.328871
-0.634946
-0.622133
-0.611985
-0.599664
-0.58422
-0.565069
-0.542075
-0.515861
-0.487541
-0.458313
-0.429165
-0.400765
-0.373456
-0.347368
-0.322904
-0.6424
-0.629093
-0.618464
-0.605298
-0.588552
-0.567716
-0.542854
-0.51484
-0.484971
-0.454524
-0.42448
-0.395455
-0.367725
-0.341407
-0.316738
-0.649556
-0.635786
-0.624659
-0.61058
-0.592437
-0.569832
-0.543068
-0.513272
-0.481909
-0.450311
-0.419435
-0.389837
-0.361727
-0.335206
-0.310352
-0.656325
-0.64213
-0.630481
-0.61542
-0.59579
-0.571348
-0.542662
-0.511116
-0.478324
-0.445649
-0.414007
-0.383888
-0.35544
-0.328744
-0.303728
-0.662616
-0.648035
-0.635841
-0.619727
-0.598525
-0.57219
-0.541583
-0.508336
-0.474187
-0.440512
-0.408171
-0.377585
-0.348843
-0.322001
-0.296848
-0.668335
-0.653408
-0.640642
-0.623407
-0.600559
-0.572293
-0.539781
-0.504894
-0.469471
-0.434875
-0.401904
-0.370906
-0.341913
-0.314958
-0.289694
-0.673384
-0.658154
-0.644789
-0.626366
-0.601808
-0.571591
-0.53721
-0.500758
-0.464148
-0.428714
-0.395183
-0.363828
-0.33463
-0.307595
-0.282252
-0.677667
-0.662177
-0.648184
-0.628511
-0.602194
-0.570025
-0.533827
-0.495895
-0.458193
-0.422007
-0.387987
-0.356332
-0.326977
-0.299898
-0.274508
-0.681085
-0.665379
-0.65073
-0.629752
-0.601641
-0.567537
-0.529592
-0.490277
-0.451581
-0.414731
-0.380295
-0.348399
-0.318935
-0.291849
-0.266449
-0.683541
-0.667663
-0.65233
-0.630001
-0.600079
-0.564077
-0.524469
-0.483876
-0.444291
-0.406866
-0.372087
-0.34001
-0.31049
-0.283437
-0.258065
-0.68494
-0.668934
-0.652892
-0.629177
-0.597442
-0.559599
-0.518426
-0.476669
-0.436301
-0.398394
-0.363346
-0.33115
-0.301626
-0.274647
-0.249345
-0.68519
-0.669099
-0.652327
-0.6272
-0.593672
-0.554061
-0.511434
-0.468634
-0.427594
-0.389297
-0.354058
-0.321806
-0.292331
-0.26547
-0.240281
-0.684205
-0.668072
-0.650553
-0.624003
-0.588717
-0.547428
-0.50347
-0.459753
-0.418154
-0.379561
-0.344207
-0.311964
-0.282594
-0.255899
-0.230874
-0.681902
-0.66577
-0.64749
-0.61952
-0.582531
-0.539671
-0.494514
-0.450011
-0.407966
-0.369173
-0.333783
-0.301614
-0.272404
-0.245926
-0.22113
-0.678207
-0.662116
-0.643071
-0.613696
-0.575077
-0.530766
-0.48455
-0.439395
-0.397022
-0.358124
-0.322777
-0.290746
-0.261751
-0.235541
-0.211024
-0.673051
-0.657042
-0.637232
-0.606484
-0.566324
-0.520695
-0.473567
-0.427898
-0.385313
-0.346407
-0.311183
-0.279356
-0.250634
-0.224732
-0.200464
-0.666374
-0.650486
-0.62992
-0.597845
-0.556248
-0.509446
-0.461559
-0.415514
-0.372835
-0.334019
-0.298997
-0.267445
-0.239063
-0.213514
-0.189366
-0.658124
-0.642395
-0.62109
-0.58775
-0.544834
-0.497012
-0.448523
-0.402243
-0.359587
-0.320957
-0.286219
-0.25501
-0.227038
-0.20191
-0.177913
-0.648258
-0.632726
-0.610708
-0.576176
-0.532074
-0.483393
-0.434461
-0.388086
-0.345571
-0.307223
-0.272849
-0.242055
-0.214544
-0.189827
-0.166301
-0.636744
-0.621446
-0.598748
-0.563114
-0.517968
-0.468594
-0.419381
-0.373051
-0.330792
-0.292823
-0.258894
-0.228587
-0.201605
-0.177327
-0.15438
-0.623557
-0.60853
-0.585196
-0.548558
-0.502521
-0.452627
-0.403294
-0.357147
-0.315259
-0.277763
-0.244362
-0.214614
-0.188214
-0.164446
-0.142109
-0.608684
-0.593964
-0.570046
-0.532515
-0.485747
-0.435507
-0.386216
-0.340389
-0.298984
-0.262058
-0.229264
-0.200143
-0.174383
-0.151189
-0.129488
-0.592123
-0.577746
-0.553302
-0.514999
-0.467667
-0.417256
-0.368167
-0.322793
-0.281984
-0.245721
-0.213611
-0.185186
-0.160126
-0.137561
-0.116529
-0.57388
-0.55988
-0.534978
-0.496032
-0.448306
-0.397902
-0.349172
-0.304382
-0.264279
-0.228767
-0.19742
-0.169759
-0.145456
-0.12357
-0.103248
-0.553972
-0.540384
-0.515098
-0.475643
-0.427696
-0.377482
-0.329261
-0.285183
-0.245889
-0.211218
-0.18071
-0.153879
-0.130391
-0.109231
-0.0896618
-0.532425
-0.519284
-0.493694
-0.45387
-0.405881
-0.356027
-0.308466
-0.265222
-0.226841
-0.193097
-0.163502
-0.137565
-0.114948
-0.0945596
-0.0757877
-0.509276
-0.496615
-0.470807
-0.430769
-0.382935
-0.333548
-0.286815
-0.244533
-0.207163
-0.174431
-0.145821
-0.120841
-0.0991469
-0.0795743
-0.0616453
-0.484569
-0.472421
-0.446486
-0.406405
-0.358931
-0.310066
-0.264344
-0.22315
-0.186889
-0.155248
-0.127693
-0.103731
-0.083011
-0.0642971
-0.0472561
-0.458353
-0.446758
-0.420797
-0.380822
-0.333717
-0.285805
-0.241118
-0.201114
-0.166053
-0.135581
-0.109147
-0.0862625
-0.0665649
-0.0487516
-0.0326443
-0.43069
-0.419691
-0.393813
-0.354053
-0.307526
-0.260679
-0.217182
-0.178467
-0.144694
-0.115464
-0.0902155
-0.0684644
-0.0498354
-0.0329637
-0.017837
-0.401646
-0.391297
-0.365608
-0.32611
-0.280454
-0.234759
-0.192586
-0.155257
-0.122851
-0.0949333
-0.0709313
-0.0503681
-0.0328511
-0.0169619
-0.00286569
-0.371295
-0.361653
-0.336171
-0.297196
-0.252524
-0.208113
-0.16738
-0.13153
-0.100568
-0.0740275
-0.0513297
-0.032006
-0.015642
-0.000778519
0.0122282
-0.339716
-0.330857
-0.305586
-0.267385
-0.22381
-0.180808
-0.141623
-0.107337
-0.0778893
-0.0527867
-0.0314473
-0.013412
0.00176062
0.015551
0.0273903
-0.306972
-0.298964
-0.274064
-0.236723
-0.194387
-0.152913
-0.115374
-0.0827306
-0.0548622
-0.0312528
-0.011322
0.00537884
0.0193257
0.0319942
0.0425711
-0.273165
-0.266122
-0.241687
-0.205297
-0.164334
-0.124499
-0.088695
-0.0577656
-0.0315353
-0.00946896
0.00900659
0.0243297
0.0370258
0.0485327
0.0577437
-0.238568
-0.232304
-0.208521
-0.1732
-0.133733
-0.0956391
-0.0616501
-0.0324989
-0.00795866
0.0125203
0.0294977
0.0434064
0.0548457
0.0651506
0.0727959
-0.203188
-0.197663
-0.174657
-0.140525
-0.102667
-0.0664074
-0.0343056
-0.00698914
0.0158159
0.0346688
0.0501112
0.0625866
0.0727915
0.081772
0.0872947
-0.167088
-0.162349
-0.140197
-0.107369
-0.0712233
-0.0368809
-0.00672973
0.0187033
0.0397344
0.0569283
0.0708096
0.0818634
0.0908716
0.0982299
0.100717
-0.130386
-0.126477
-0.105251
-0.0738293
-0.0394898
-0.00713781
0.0210081
0.0445163
0.063741
0.0792487
0.0915561
0.101219
0.10902
0.114378
0.113836
-0.0932079
-0.0901608
-0.0699274
-0.0400067
-0.00755642
0.0227421
0.0488368
0.0703862
0.0877777
0.101578
0.112309
0.120592
0.12705
0.130127
0.13005
-0.0556715
-0.0535139
-0.0343381
-0.00600263
0.0244861
0.0526782
0.0766844
0.0962482
0.111786
0.123865
0.133016
0.139885
0.144904
0.146378
0.146845
-0.0179001
-0.0166539
0.00140442
0.0280804
0.0565464
0.082589
0.104478
0.122037
0.135707
0.146056
0.153623
0.159048
0.162621
0.162817
0.163098
0.0199827
0.020301
0.0371873
0.0621399
0.0885327
0.112393
0.132145
0.147686
0.15948
0.168097
0.174076
0.178041
0.180202
0.179259
0.178996
0.0578533
0.0572314
0.0728976
0.096073
0.120353
0.142008
0.159612
0.173131
0.183048
0.189932
0.194324
0.196823
0.1976
0.19555
0.194536
0.0955883
0.094018
0.108423
0.129778
0.151917
0.171354
0.186806
0.198305
0.206349
0.211508
0.214316
0.215352
0.214766
0.211611
0.209715
0.133064
0.130542
0.143651
0.163153
0.183133
0.200348
0.213655
0.223143
0.229325
0.232769
0.234004
0.233586
0.231655
0.227388
0.224531
0.17016
0.166684
0.178472
0.196098
0.213913
0.228912
0.240087
0.24758
0.251919
0.253665
0.25334
0.251482
0.248221
0.242842
0.238975
0.206753
0.202328
0.212776
0.228514
0.244167
0.256967
0.266031
0.271554
0.274072
0.274143
0.272278
0.268999
0.264427
0.257941
0.253033
0.242726
0.237359
0.246456
0.260305
0.27381
0.284435
0.291419
0.295002
0.295729
0.294152
0.290773
0.286095
0.280235
0.272653
0.266692
0.277961
0.271664
0.279408
0.291375
0.302756
0.31124
0.316181
0.317863
0.316835
0.313643
0.308781
0.302732
0.29561
0.286952
0.279933
0.312345
0.305133
0.311527
0.321633
0.330923
0.337309
0.340253
0.340078
0.337336
0.332568
0.326258
0.318872
0.310519
0.300808
0.292736
0.345766
0.337657
0.342716
0.350988
0.358231
0.36257
0.36357
0.361588
0.357181
0.350882
0.343164
0.334477
0.32493
0.314195
0.305082
0.378117
0.369134
0.372878
0.379354
0.384603
0.386954
0.386069
0.382338
0.376319
0.368538
0.359458
0.349512
0.33881
0.327085
0.31695
0.409293
0.399462
0.40192
0.406647
0.409962
0.410393
0.40769
0.402274
0.394702
0.385493
0.375102
0.363943
0.35213
0.339451
0.32832
0.439195
0.428547
0.429753
0.432787
0.434239
0.432824
0.428377
0.421343
0.412283
0.401706
0.390057
0.377736
0.36486
0.351269
0.339169
0.467727
0.456294
0.456292
0.457697
0.457364
0.454185
0.448073
0.439498
0.429018
0.417137
0.404289
0.39086
0.376972
0.362512
0.349479
0.494799
0.482618
0.481456
0.481306
0.479273
0.474417
0.466727
0.45669
0.444865
0.431748
0.417764
0.403284
0.388439
0.373156
0.359229
0.520324
0.507436
0.50517
0.503543
0.499904
0.493467
0.484288
0.472875
0.459783
0.445503
0.430449
0.41498
0.399235
0.383178
0.3684
0.544223
0.53067
0.527361
0.524346
0.519199
0.511283
0.500712
0.488011
0.473735
0.458367
0.442314
0.425921
0.409336
0.392556
0.376976
0.566419
0.552247
0.547964
0.543654
0.537106
0.527815
0.515953
0.502059
0.486686
0.47031
0.453331
0.436082
0.418719
0.40127
0.38494
0.586843
0.572102
0.566917
0.561412
0.553574
0.54302
0.529973
0.514984
0.498604
0.481303
0.463473
0.445438
0.427363
0.409299
0.392275
0.605433
0.590173
0.584164
0.57757
0.568558
0.556857
0.542735
0.526752
0.509458
0.491318
0.472717
0.453969
0.435247
0.416628
0.398968
0.62213
0.606405
0.599654
0.592081
0.582017
0.56929
0.554205
0.537333
0.519222
0.500332
0.481041
0.461655
0.442356
0.423238
0.405007
0.636884
0.620749
0.613342
0.604906
0.593916
0.580286
0.564354
0.546702
0.527872
0.508323
0.488425
0.468479
0.448672
0.429118
0.410379
0.64965
0.633162
0.625189
0.616009
0.604222
0.589816
0.573157
0.554834
0.535388
0.515272
0.494853
0.474424
0.454182
0.434252
0.415075
0.66039
0.643608
0.635161
0.62536
0.612908
0.597855
0.580592
0.56171
0.54175
0.521162
0.500309
0.47948
0.458875
0.438632
0.419086
0.669073
0.652057
0.64323
0.632933
0.619952
0.604385
0.58664
0.567313
0.546945
0.525982
0.504783
0.483634
0.462739
0.442247
0.422405
0.675673
0.658485
0.649375
0.63871
0.625337
0.609388
0.591287
0.571631
0.550961
0.52972
0.508265
0.486877
0.465768
0.445092
0.425027
0.680173
0.662874
0.653581
0.642676
0.629049
0.612854
0.594523
0.574655
0.553789
0.532368
0.510747
0.489205
0.467956
0.447161
0.426952
0.682562
0.665215
0.655837
0.644823
0.631081
0.614775
0.596341
0.576378
0.555424
0.533922
0.512226
0.490613
0.4693
0.448451
0.428171
0.682836
0.665503
0.65614
0.645147
0.63143
0.61515
0.59674
0.576799
0.555865
0.534381
0.5127
0.4911
0.469797
0.448958
0.428685
0.680997
0.663742
0.654493
0.643651
0.630098
0.61398
0.595721
0.57592
0.555113
0.533745
0.512169
0.490666
0.46945
0.448686
0.42849
0.677057
0.659941
0.650904
0.640343
0.627093
0.611271
0.59329
0.573744
0.553173
0.532019
0.510639
0.489315
0.46826
0.447635
0.427594
0.671031
0.654115
0.645388
0.635236
0.622426
0.607034
0.589456
0.570282
0.550051
0.529209
0.508115
0.487053
0.466233
0.445813
0.426
0.662943
0.646289
0.637966
0.628349
0.616114
0.601284
0.584233
0.565545
0.54576
0.525327
0.504606
0.483888
0.463377
0.443224
0.423714
0.652824
0.63649
0.628665
0.619706
0.60818
0.594042
0.577639
0.55955
0.540314
0.520384
0.500124
0.47983
0.4597
0.439878
0.420741
0.64071
0.624754
0.617518
0.609336
0.598648
0.58533
0.569696
0.552315
0.533731
0.514396
0.494683
0.474891
0.455215
0.435785
0.417091
0.626646
0.611124
0.604563
0.597275
0.587552
0.575176
0.560427
0.543864
0.526029
0.507382
0.4883
0.469087
0.449934
0.430957
0.412772
0.610681
0.595648
0.589845
0.583562
0.574925
0.563614
0.549864
0.534223
0.517235
0.499364
0.480993
0.462435
0.443873
0.425407
0.407797
0.592873
0.57838
0.573414
0.568243
0.56081
0.55068
0.538038
0.523421
0.507373
0.490364
0.472783
0.454954
0.43705
0.419153
0.402177
0.573283
0.559381
0.555326
0.551367
0.545251
0.536412
0.524985
0.51149
0.496473
0.480409
0.463696
0.446665
0.429484
0.41221
0.395927
0.551981
0.538716
0.53564
0.532989
0.528296
0.520857
0.510746
0.498467
0.484568
0.469529
0.453756
0.437592
0.421196
0.404599
0.389062
0.529041
0.516457
0.514424
0.51317
0.51
0.504061
0.495362
0.48439
0.471692
0.457755
0.442992
0.427759
0.412208
0.39634
0.381598
0.504543
0.492681
0.491749
0.491972
0.490419
0.486076
0.478882
0.469301
0.457882
0.445119
0.431434
0.417194
0.402545
0.387454
0.373554
0.478573
0.467472
0.46769
0.469464
0.469615
0.466957
0.461353
0.453244
0.44318
0.431659
0.419114
0.405925
0.392233
0.377964
0.364948
0.451221
0.440915
0.442327
0.445719
0.447652
0.446761
0.442828
0.436267
0.427626
0.417411
0.406065
0.393982
0.381297
0.367896
0.3558
0.422583
0.413102
0.415747
0.420813
0.4246
0.425552
0.423362
0.418418
0.411265
0.402416
0.392324
0.381398
0.369768
0.357274
0.346131
0.392758
0.384131
0.388037
0.394827
0.400529
0.403391
0.403013
0.399749
0.394143
0.386716
0.377928
0.368204
0.357675
0.346125
0.335961
0.361851
0.354101
0.359291
0.367843
0.375514
0.380347
0.381841
0.380315
0.37631
0.370353
0.362915
0.354437
0.345047
0.334476
0.325313
0.329968
0.323117
0.329605
0.339949
0.349635
0.35649
0.359908
0.360171
0.357815
0.353374
0.347326
0.34013
0.331917
0.322355
0.314208
0.297223
0.291286
0.299079
0.311236
0.32297
0.33189
0.337278
0.339375
0.338711
0.335823
0.331202
0.325322
0.318317
0.309789
0.302669
0.263728
0.258719
0.267816
0.281795
0.295602
0.306622
0.314019
0.317988
0.31905
0.31775
0.314586
0.31005
0.30428
0.296808
0.290716
0.229602
0.225529
0.235922
0.251723
0.267618
0.280763
0.290198
0.296069
0.298888
0.299204
0.297522
0.294353
0.289841
0.28344
0.278371
0.194964
0.191832
0.203503
0.221116
0.239104
0.25439
0.265885
0.273682
0.278281
0.280234
0.280055
0.278272
0.275035
0.269714
0.265652
0.159935
0.157746
0.170671
0.190075
0.210148
0.227581
0.241151
0.250891
0.257286
0.260893
0.262231
0.261847
0.2599
0.255662
0.252577
0.124639
0.12339
0.137537
0.158699
0.180841
0.200419
0.216068
0.227759
0.235962
0.241233
0.244098
0.245121
0.244477
0.241316
0.239159
0.0891988
0.088884
0.104212
0.127092
0.151275
0.172984
0.190708
0.204352
0.214367
0.221307
0.225703
0.228138
0.228807
0.226717
0.22541
0.0537397
0.0543483
0.070812
0.0953554
0.121541
0.145357
0.165146
0.180737
0.192561
0.20117
0.207095
0.21094
0.212938
0.211916
0.211335
0.018386
0.0199034
0.0374494
0.0635941
0.0917316
0.117623
0.139454
0.15698
0.170603
0.180876
0.188324
0.19357
0.196917
0.196991
0.196938
-0.0167377
-0.0143312
0.00423853
0.0319115
0.0619399
0.0898621
0.113707
0.133147
0.148555
0.16048
0.169442
0.176068
0.180791
0.182085
0.182235
-0.051508
-0.0482372
-0.028707
0.000411032
0.0322583
0.062158
0.0879784
0.109303
0.126474
0.140037
0.150503
0.158475
0.164562
0.167366
0.167072
-0.0858013
-0.0816978
-0.0612741
-0.0308043
0.00277869
0.0345921
0.0623407
0.0855149
0.10442
0.119599
0.13156
0.140843
0.148201
0.153135
0.152558
-0.119495
-0.114601
-0.0933521
-0.0616332
-0.026408
0.00724509
0.0368658
0.0618468
0.082452
0.0992191
0.112662
0.123259
0.131758
0.138546
0.14076
-0.152469
-0.146827
-0.124832
-0.0919759
-0.0552121
-0.0198034
0.0116247
0.038362
0.0606264
0.0789469
0.093852
0.105782
0.115403
0.123689
0.128683
-0.184662
-0.178226
-0.15561
-0.121735
-0.0835455
-0.0464755
-0.0133136
0.0151221
0.0389988
0.0588323
0.0751662
0.0884305
0.0991987
0.108706
0.115663
-0.216059
-0.208647
-0.185594
-0.150815
-0.111323
-0.0726953
-0.0378819
-0.00781318
0.0176224
0.038923
0.0566423
0.071215
0.0831439
0.093755
0.102162
-0.246382
-0.238111
-0.214719
-0.179122
-0.13846
-0.0983891
-0.0620148
-0.030386
-0.0034516
0.0192644
0.0383199
0.0541586
0.0672354
0.0789068
0.088571
-0.275537
-0.26649
-0.242876
-0.20657
-0.164877
-0.123486
-0.0856492
-0.0525406
-0.024174
-9.96499e-05
0.0202392
0.0372951
0.0514892
0.0641785
0.0749959
-0.303458
-0.293702
-0.269866
-0.233129
-0.190494
-0.147916
-0.108725
-0.0742231
-0.0444971
-0.0191269
0.00243896
0.0206603
0.0359324
0.0495883
0.0614645
-0.330068
-0.319654
-0.295648
-0.258682
-0.215229
-0.171614
-0.131183
-0.0953822
-0.0643754
-0.0377766
-0.015044
0.00428852
0.0205952
0.0351676
0.0480231
-0.35529
-0.344268
-0.320191
-0.28302
-0.239095
-0.194519
-0.152967
-0.115969
-0.0837653
-0.0560099
-0.0321741
-0.0117875
0.00550771
0.0209502
0.0347228
-0.379058
-0.367469
-0.343428
-0.306191
-0.261927
-0.216559
-0.174027
-0.135937
-0.102625
-0.0737897
-0.0489177
-0.0275365
-0.00930104
0.00696668
0.0216028
-0.401313
-0.389191
-0.365283
-0.328142
-0.283634
-0.237711
-0.194313
-0.155243
-0.120917
-0.0910811
-0.0652427
-0.0429286
-0.0238039
-0.00675589
0.00869321
-0.422003
-0.409379
-0.385692
-0.348802
-0.304224
-0.257886
-0.213776
-0.173845
-0.138605
-0.107852
-0.0811192
-0.0579362
-0.0379755
-0.0201931
-0.00398035
-0.441084
-0.427991
-0.404606
-0.368114
-0.323646
-0.277045
-0.232377
-0.191708
-0.155655
-0.124071
-0.0965199
-0.0725337
-0.0517927
-0.033323
-0.0163949
-0.458522
-0.444992
-0.421986
-0.386028
-0.341847
-0.295155
-0.250077
-0.208798
-0.172039
-0.139713
-0.11142
-0.0866979
-0.0652343
-0.0461256
-0.0285299
-0.474291
-0.460358
-0.4378
-0.402509
-0.358785
-0.312178
-0.266846
-0.225088
-0.187726
-0.154753
-0.125796
-0.100408
-0.0782815
-0.058584
-0.0403668
-0.488376
-0.474074
-0.452027
-0.417526
-0.374428
-0.328081
-0.282652
-0.240549
-0.2027
-0.169168
-0.13963
-0.113645
-0.0909178
-0.0706842
-0.0518884
-0.500773
-0.486137
-0.464656
-0.43106
-0.388749
-0.342836
-0.297471
-0.255159
-0.216937
-0.182945
-0.152903
-0.126394
-0.103128
-0.0824163
-0.0630789
-0.511487
-0.496554
-0.475683
-0.443097
-0.40173
-0.356423
-0.311283
-0.268899
-0.230419
-0.196065
-0.165605
-0.13864
-0.114898
-0.0937731
-0.0739262
-0.520536
-0.505341
-0.485119
-0.453635
-0.413357
-0.368826
-0.324071
-0.281756
-0.243135
-0.208516
-0.177724
-0.150383
-0.126211
-0.104745
-0.0844336
-0.527946
-0.512527
-0.492982
-0.46268
-0.423627
-0.380033
-0.335825
-0.29372
-0.255075
-0.22029
-0.189247
-0.161606
-0.137085
-0.115286
-0.0946533
-0.533755
-0.51815
-0.499301
-0.470247
-0.432542
-0.390042
-0.346538
-0.304782
-0.266233
-0.23138
-0.20017
-0.1723
-0.147491
-0.125406
-0.10471
-0.538011
-0.522258
-0.504117
-0.476361
-0.440113
-0.398855
-0.356207
-0.314941
-0.276606
-0.241784
-0.21049
-0.182463
-0.157432
-0.135117
-0.114343
-0.540769
-0.52491
-0.507479
-0.481058
-0.446361
-0.406479
-0.364837
-0.324198
-0.286195
-0.251502
-0.220206
-0.192093
-0.166906
-0.144401
-0.123479
-0.542096
-0.526172
-0.509447
-0.48438
-0.451311
-0.412929
-0.372435
-0.332558
-0.295003
-0.260537
-0.229321
-0.201192
-0.175909
-0.15326
-0.13219
-0.542065
-0.52612
-0.510088
-0.486381
-0.454999
-0.418227
-0.379013
-0.340029
-0.303038
-0.268895
-0.23784
-0.209762
-0.184443
-0.161701
-0.140538
-0.540758
-0.524835
-0.50948
-0.487124
-0.457468
-0.422399
-0.384589
-0.346624
-0.310309
-0.276585
-0.24577
-0.21781
-0.192513
-0.169735
-0.148537
-0.538262
-0.522407
-0.507707
-0.486677
-0.458769
-0.425479
-0.389185
-0.352359
-0.316829
-0.283618
-0.25312
-0.225345
-0.200129
-0.177364
-0.156185
-0.53467
-0.518929
-0.504858
-0.48512
-0.45896
-0.427507
-0.392827
-0.357253
-0.322615
-0.290007
-0.259904
-0.232377
-0.207299
-0.184596
-0.163482
-0.530081
-0.5145
-0.50103
-0.482536
-0.458108
-0.428529
-0.395547
-0.361328
-0.327683
-0.295768
-0.266134
-0.238919
-0.214033
-0.191438
-0.170433
-0.524593
-0.509221
-0.496323
-0.479016
-0.456284
-0.428597
-0.39738
-0.364609
-0.332055
-0.300918
-0.271825
-0.244983
-0.220344
-0.197899
-0.177047
-0.51831
-0.503194
-0.490838
-0.474655
-0.453567
-0.427768
-0.398367
-0.367127
-0.335752
-0.305476
-0.276995
-0.250585
-0.226242
-0.20399
-0.183331
-0.511335
-0.496522
-0.48468
-0.46955
-0.450039
-0.426105
-0.398551
-0.368911
-0.338799
-0.309463
-0.281661
-0.255739
-0.231743
-0.209723
-0.189294
-0.503772
-0.489307
-0.477952
-0.463803
-0.445789
-0.423677
-0.397981
-0.369997
-0.341221
-0.312899
-0.285841
-0.260462
-0.23686
-0.21511
-0.194947
-0.49572
-0.481648
-0.470756
-0.457514
-0.440907
-0.420555
-0.39671
-0.37042
-0.343046
-0.315807
-0.289557
-0.264772
-0.24161
-0.220165
-0.200301
-0.487278
-0.473641
-0.463191
-0.450783
-0.435486
-0.416815
-0.394793
-0.370221
-0.344302
-0.31821
-0.292826
-0.268687
-0.246006
-0.224901
-0.205366
-0.478541
-0.465379
-0.455352
-0.443707
-0.429618
-0.412537
-0.39229
-0.369441
-0.34502
-0.320131
-0.295669
-0.272223
-0.250067
-0.229334
-0.210154
-0.469599
-0.456947
-0.447329
-0.436382
-0.423397
-0.407801
-0.389264
-0.368125
-0.34523
-0.321593
-0.298106
-0.275399
-0.253806
-0.233477
-0.214679
-0.460536
-0.448425
-0.439206
-0.428896
-0.416912
-0.402688
-0.385779
-0.36632
-0.344964
-0.32262
-0.300156
-0.278232
-0.257241
-0.237345
-0.218953
-0.451429
-0.439889
-0.43106
-0.421332
-0.41025
-0.397282
-0.381903
-0.364073
-0.344256
-0.323236
-0.301837
-0.280738
-0.260386
-0.240953
-0.222988
-0.44235
-0.431403
-0.42296
-0.413767
-0.403492
-0.39166
-0.377704
-0.361436
-0.343141
-0.323464
-0.303167
-0.282933
-0.263256
-0.244314
-0.226797
-0.433363
-0.423027
-0.414967
-0.406268
-0.396715
-0.385901
-0.37325
-0.358462
-0.341655
-0.323327
-0.304163
-0.284829
-0.265864
-0.24744
-0.230392
-0.424524
-0.414812
-0.407136
-0.398896
-0.389987
-0.380077
-0.368608
-0.355203
-0.339833
-0.322849
-0.304841
-0.286441
-0.26822
-0.250344
-0.233786
-0.415882
-0.406802
-0.399511
-0.391704
-0.383369
-0.374255
-0.363845
-0.351715
-0.337715
-0.322053
-0.305215
-0.287778
-0.270336
-0.253036
-0.236989
-0.407478
-0.399034
-0.39213
-0.384733
-0.376913
-0.368497
-0.359023
-0.348051
-0.335339
-0.320964
-0.305298
-0.28885
-0.272218
-0.255523
-0.240012
-0.399346
-0.391536
-0.385021
-0.378019
-0.370663
-0.362856
-0.354199
-0.344264
-0.332746
-0.319607
-0.305104
-0.289663
-0.273874
-0.257814
-0.242866
-0.391512
-0.384332
-0.378207
-0.371587
-0.364655
-0.357377
-0.349427
-0.340405
-0.329975
-0.318006
-0.304645
-0.290221
-0.275305
-0.25991
-0.245559
-0.383996
-0.377436
-0.371704
-0.365457
-0.358913
-0.352096
-0.344751
-0.336522
-0.327067
-0.316187
-0.303934
-0.29053