/*--------------------------------*- C++ -*----------------------------------*\
  =========                 |
  \\      /  F ield         | OpenFOAM: The Open Source CFD Toolbox
   \\    /   O peration     | Website:  https://openfoam.org
    \\  /    A nd           | Version:  7
     \\/     M anipulation  |
\*---------------------------------------------------------------------------*/
FoamFile
{
    version     2.0;
    format      ascii;
    class       surfaceScalarField;
    location    "280";
    object      phi;
}
// * * * * * * * * * * * * * * * * * * * * * * * * * * * * * * * * * * * * * //

dimensions      [0 3 -1 0 0 0 0];

internalField   nonuniform List<scalar> 
39691
(
-4.17393e-06
1.00681e-05
-5.89421e-06
-1.48344e-05
-6.36967e-07
1.12974e-05
-3.10132e-05
-3.565e-05
5.18288e-05
-5.20164e-05
-8.86373e-05
0.00010964
-7.73393e-05
-0.000153873
0.000179196
-0.000106577
-0.000227058
0.000256296
-0.000139348
-0.000305872
0.000338643
-0.000175261
-0.000390112
0.000426025
-0.000213924
-0.000481342
0.000520006
-0.000254988
-0.000582212
0.000623276
-0.00029819
-0.000695734
0.000738936
-0.000343375
-0.000824779
0.000869964
-0.000390469
-0.000971858
0.00101895
-0.000439352
-0.00113912
0.001188
-0.00132885
0.0013793
-0.000489806
-4.46101e-06
1.45291e-05
-1.58752e-05
1.07772e-05
-3.32121e-05
-1.8313e-05
-5.57131e-05
-6.61363e-05
-8.28142e-05
-0.000126772
-0.000114067
-0.000195806
-0.000149072
-0.000270866
-0.000187455
-0.000351729
-0.00022888
-0.000439917
-0.000273094
-0.000537999
-0.000319968
-0.000648859
-0.000369528
-0.00077522
-0.00042192
-0.000919467
-0.000477285
-0.00108376
-0.00127038
-0.00053575
-4.69091e-06
1.92201e-05
-1.67223e-05
2.28086e-05
-3.50166e-05
-1.86795e-08
-5.87579e-05
-4.23951e-05
-8.73248e-05
-9.8205e-05
-0.000120223
-0.000162907
-0.000157031
-0.000234058
-0.000197381
-0.000311379
-0.000240977
-0.000396322
-0.000287638
-0.000491338
-0.000337343
-0.000599154
-0.000390259
-0.000722304
-0.000446719
-0.000863006
-0.000507104
-0.00102337
-0.00120562
-0.000571861
-4.85565e-06
2.40757e-05
-1.73497e-05
3.53027e-05
-3.63769e-05
1.90085e-05
-6.10739e-05
-1.76981e-05
-9.0766e-05
-6.85129e-05
-0.000124912
-0.000128761
-0.000163061
-0.000195909
-0.000204841
-0.000269599
-0.000249978
-0.000351185
-0.000298337
-0.000442979
-0.000349965
-0.000547526
-0.000405128
-0.00066714
-0.000464308
-0.000803827
-0.00052809
-0.000959589
-0.0011365
-0.000597211
-4.94869e-06
2.90244e-05
-1.77362e-05
4.80902e-05
-3.72519e-05
3.85241e-05
-6.25982e-05
7.64829e-06
-9.30522e-05
-3.8059e-05
-0.000128025
-9.37883e-05
-0.000167031
-0.000156903
-0.00020968
-0.00022695
-0.000255699
-0.000305166
-0.000304966
-0.000393712
-0.000357559
-0.000494933
-0.000413794
-0.000610906
-0.000474248
-0.000743373
-0.000539672
-0.000894165
-0.00106512
-0.000611054
-4.96526e-06
3.39897e-05
-1.78659e-05
6.09909e-05
-3.76109e-05
5.82691e-05
-6.32833e-05
3.33207e-05
-9.41184e-05
-7.22386e-06
-0.00012948
-5.84265e-05
-0.000168841
-0.000117543
-0.00021178
-0.000184011
-0.000258001
-0.000258944
-0.000307366
-0.000344347
-0.000359932
-0.000442366
-0.000416016
-0.000554822
-0.000476232
-0.000683157
-0.000541449
-0.000828948
-0.00099372
-0.00061285
-4.90245e-06
3.88921e-05
-1.77288e-05
7.38172e-05
-3.74337e-05
7.7974e-05
-6.30974e-05
5.89844e-05
-9.39216e-05
2.36003e-05
-0.000129223
-2.3125e-05
-0.000168426
-7.83401e-05
-0.000211065
-0.000141372
-0.000256799
-0.00021321
-0.000305437
-0.00029571
-0.000356974
-0.000390829
-0.000411662
-0.000500134
-0.000470092
-0.000624727
-0.000533194
-0.000765847
-0.000924631
-0.000602283
-4.75942e-06
4.36515e-05
-1.73209e-05
8.63786e-05
-3.67116e-05
9.73647e-05
-6.2026e-05
8.42988e-05
-9.24408e-05
5.40151e-05
-0.000127227
1.16613e-05
-0.000165755
-3.98123e-05
-0.000207501
-9.96261e-05
-0.000252057
-0.000168654
-0.000299146
-0.000248621
-0.000348654
-0.00034132
-0.000400709
-0.000448079
-0.000455803
-0.000569632
-0.000514865
-0.000706784
-0.000860226
-0.000579271
-4.53743e-06
4.8189e-05
-1.66448e-05
9.8486e-05
-3.54476e-05
0.000116167
-6.00716e-05
0.000108923
-8.96779e-05
8.36214e-05
-0.000123494
4.54771e-05
-0.00016083
-2.47629e-06
-0.000201092
-5.93636e-05
-0.000243786
-0.00012596
-0.000288518
-0.000203889
-0.000335022
-0.000294817
-0.000383236
-0.000399865
-0.000433479
-0.00051939
-0.000486609
-0.000653654
-0.000802864
-0.000543971
-4.23984e-06
5.24288e-05
-1.57094e-05
0.000109956
-3.36563e-05
0.000134114
-5.72542e-05
0.000132521
-8.5658e-05
0.000112025
-0.000118053
7.78724e-05
-0.000153687
3.31576e-05
-0.000191885
-2.11659e-05
-0.000232047
-8.57977e-05
-0.000273639
-0.000162297
-0.0003162
-0.000252255
-0.000359424
-0.000356642
-0.000403368
-0.000475445
-0.00044875
-0.000608272
-0.000754838
-0.000496775
-3.87209e-06
5.63009e-05
-1.45303e-05
0.000120614
-3.13644e-05
0.000150949
-5.36114e-05
0.000154768
-8.04288e-05
0.000138843
-0.000110963
0.000108407
-0.000144396
6.65898e-05
-0.000179961
1.43994e-05
-0.000216942
-4.88166e-05
-0.000254642
-0.000124597
-0.000292376
-0.00021452
-0.000329536
-0.000319482
-0.000365838
-0.000439143
-0.00040178
-0.000572331
-0.000718329
-0.000438289
-3.44161e-06
5.97425e-05
-1.31287e-05
0.000130301
-2.86098e-05
0.00016643
-4.91977e-05
0.000175355
-7.4061e-05
0.000163706
-0.00010231
0.000136656
-0.000133057
9.73366e-05
-0.000165441
4.67832e-05
-0.000198616
-1.56419e-05
-0.00023171
-9.15034e-05
-0.000263792
-0.000182438
-0.00029391
-0.000289364
-0.000321357
-0.000411696
-0.000346331
-0.000547357
-0.000695351
-0.000369309
-2.95761e-06
6.27001e-05
-1.15322e-05
0.000138875
-2.54415e-05
0.000180339
-4.40841e-05
0.000193998
-6.66469e-05
0.000186269
-9.22071e-05
0.000162216
-0.000119806
0.000124935
-0.00014848
7.54582e-05
-0.000177251
1.31291e-05
-0.000205064
-6.36905e-05
-0.000230732
-0.00015677
-0.000252934
-0.000267163
-0.000270466
-0.000394164
-0.000283141
-0.000534682
-0.000687698
-0.000290794
-2.43087e-06
6.5131e-05
-9.77304e-06
0.000146218
-2.19182e-05
0.000192484
-3.83571e-05
0.000210437
-5.83001e-05
0.000206212
-8.07933e-05
0.00018471
-0.000104806
0.000148947
-0.00012927
9.99227e-05
-0.000153069
3.6928e-05
-0.000174965
-4.17948e-05
-0.000193515
-0.000138219
-0.000207027
-0.000253651
-0.000213752
-0.000387439
-0.000213011
-0.000535423
-0.000696865
-0.000203845
-1.87348e-06
6.70045e-05
-7.88815e-06
0.000152232
-1.81077e-05
0.000202704
-3.21172e-05
0.000224447
-4.91536e-05
0.000223248
-6.82333e-05
0.000203789
-8.82519e-05
0.000168966
-0.000108035
0.000119705
-0.000126324
5.5217e-05
-0.000141702
-2.64167e-05
-0.000152484
-0.000127437
-0.000156621
-0.000249513
-0.000151797
-0.000392263
-0.000136787
-0.000550433
-0.000723896
-0.000109756
-1.29847e-06
6.83029e-05
-5.91783e-06
0.000156852
-1.40848e-05
0.000210871
-2.54768e-05
0.000235839
-3.93576e-05
0.000237129
-5.47143e-05
0.000219146
-7.03674e-05
0.000184619
-8.50309e-05
0.000134369
-9.7305e-05
6.74912e-05
-0.000105599
-1.81228e-05
-0.000108003
-0.000125033
-0.00010215
-0.000255366
-8.51004e-05
-0.000409313
-5.4901e-05
-0.000580632
-0.000766776
-1.20213e-05
-7.19387e-07
6.90223e-05
-3.90467e-06
0.000160037
-9.92992e-06
0.000216896
-1.85576e-05
0.000244466
-2.90764e-05
0.000247648
-4.04428e-05
0.000230512
-5.13997e-05
0.000195576
-6.05457e-05
0.000143515
-6.63363e-05
7.32818e-05
-6.70115e-05
-1.74476e-05
-6.04587e-05
-0.000131586
-4.40681e-05
-0.000271757
-1.44905e-05
-0.000438891
3.28454e-05
-0.000627968
-0.000828918
9.49877e-05
-1.50243e-07
6.91726e-05
-1.89224e-06
0.000161779
-5.72603e-06
0.00022073
-1.14873e-05
0.000250228
-1.84841e-05
0.000254645
-2.56396e-05
0.000237668
-3.16157e-05
0.000201552
-3.48904e-05
0.000146789
-3.37691e-05
7.21605e-05
-2.63239e-05
-2.48928e-05
-1.026e-05
-0.00014765
1.72845e-05
-0.000299302
5.99531e-05
-0.000481559
0.000121634
-0.000689648
-0.000912653
0.000205368
3.97466e-07
6.87751e-05
7.73087e-08
0.000162099
-1.55643e-06
0.000222363
-4.39542e-06
0.000253067
-7.75946e-06
0.000258009
-1.05337e-05
0.000240442
-1.12945e-05
0.000202313
-8.39313e-06
0.000143888
2.00386e-08
6.37474e-05
1.60473e-05
-4.09201e-05
4.21672e-05
-0.000173769
8.13749e-05
-0.000338509
0.00013768
-0.000537865
0.000215174
-0.000767142
-0.00101649
0.000319013
9.08617e-07
6.78665e-05
1.96074e-06
0.000161047
2.49841e-06
0.000221826
2.59152e-06
0.000252973
2.92066e-06
0.000257679
4.64579e-06
0.000238717
9.2829e-06
0.000197676
1.86158e-05
0.000134555
3.46644e-05
4.76988e-05
5.9712e-05
-6.59678e-05
9.63907e-05
-0.000210448
0.000147841
-0.00038996
0.000218167
-0.000608191
0.00031201
-0.000860985
-0.00114014
0.000435659
1.374e-06
6.64925e-05
3.72345e-06
0.000158698
6.36462e-06
0.000219185
9.35549e-06
0.000249983
1.33913e-05
0.000253644
1.96853e-05
0.000232423
2.98515e-05
0.000187509
4.58177e-05
0.000118589
6.9784e-05
2.37326e-05
0.00010423
-0.000100413
0.000151964
-0.000258183
0.000216226
-0.000454221
0.000301057
-0.000693022
0.000411577
-0.000971506
-0.00128319
0.000554626
1.78421e-06
6.47083e-05
5.33307e-06
0.000155149
9.97813e-06
0.000214539
1.57923e-05
0.000244168
2.35026e-05
0.000245933
3.43871e-05
0.000221538
5.01675e-05
0.000171729
7.29254e-05
9.58309e-05
0.000105053
-8.39512e-06
0.000149241
-0.000144601
0.000208485
-0.000317427
0.000286112
-0.000531847
0.000385926
-0.000792836
0.000513421
-0.001099
-0.00144496
0.000675193
2.13245e-06
6.25758e-05
6.76531e-06
0.000150516
1.3288e-05
0.000208017
2.1818e-05
0.000235638
3.31345e-05
0.000234617
4.8594e-05
0.000206079
7.00373e-05
0.000150286
9.97105e-05
6.61577e-05
0.000140211
-4.88959e-05
0.000194453
-0.000198843
0.000265625
-0.000388599
0.000357137
-0.000623359
0.000472377
-0.000908076
0.00061709
-0.00124371
-0.0016244
0.000796534
2.41466e-06
6.01611e-05
8.00445e-06
0.000144926
1.62596e-05
0.000199762
2.73742e-05
0.000224524
4.2202e-05
0.000219789
6.21954e-05
0.000186086
8.93279e-05
0.000123153
0.000126023
2.94625e-05
0.000175095
-9.79675e-05
0.000239686
-0.000263435
0.000323171
-0.000472084
0.000429027
-0.000729216
0.000560055
-0.0010391
0.000722092
-0.00140575
-0.00181994
0.000917629
2.6298e-06
5.75313e-05
9.0445e-06
0.000138511
1.88777e-05
0.000189928
3.24327e-05
0.000210969
5.06639e-05
0.000201558
7.51396e-05
0.00016161
0.000107983
9.03096e-05
0.00015181
-1.43641e-05
0.000209658
-0.000155816
0.000284897
-0.000338673
0.000381056
-0.000568242
0.000501621
-0.000849781
0.000648661
-0.00118614
0.000827841
-0.00158493
-0.0020293
0.0010372
2.77999e-06
5.47514e-05
9.88995e-06
0.000131401
2.11476e-05
0.000178671
3.69991e-05
0.000195117
5.85277e-05
0.000180029
8.74415e-05
0.000132696
0.000126034
5.17172e-05
0.000177126
-6.54565e-05
0.000243986
-0.000222675
0.000330188
-0.000424875
0.000439355
-0.00067741
0.000574856
-0.000985282
0.000737928
-0.00134922
0.00093359
-0.00178059
-0.00224939
0.00115368
2.8706e-06
5.18808e-05
1.05561e-05
0.000123716
2.30966e-05
0.00016613
4.11148e-05
0.000177099
6.58529e-05
0.000155291
9.91861e-05
9.93628e-05
0.0001436
7.30299e-06
0.000202137
-0.000123993
0.000278287
-0.000298825
0.000375789
-0.000522377
0.000498258
-0.00079988
0.000648722
-0.00113574
0.000827559
-0.00152805
0.00103833
-0.00199137
-0.00247636
0.0012653
2.9101e-06
4.89707e-05
1.10687e-05
0.000115557
2.47731e-05
0.000152426
4.48559e-05
0.000157016
7.27501e-05
0.000127397
0.000110527
6.15858e-05
0.000160889
-4.3059e-05
0.000227106
-0.00019021
0.000312872
-0.00038459
0.000422018
-0.000631523
0.000558002
-0.000935864
0.000723196
-0.00130094
0.000917141
-0.001722
0.00114066
-0.00221488
-0.00270601
0.00137031
2.90979e-06
4.60609e-05
1.14631e-05
0.000107004
2.62455e-05
0.000137644
4.83311e-05
0.000134931
7.93766e-05
9.63516e-05
0.000121679
1.9283e-05
0.000178178
-9.95574e-05
0.000252371
-0.000264403
0.000348112
-0.000480332
0.000469215
-0.000752627
0.000618785
-0.00108543
0.00079818
-0.00148033
0.00100611
-0.00192993
0.00123876
-0.00244753
-0.00293462
0.00146737
2.88333e-06
4.31775e-05
1.17828e-05
9.81045e-05
2.75984e-05
0.000121828
5.16763e-05
0.000110853
8.5928e-05
6.20999e-05
0.000132905
-2.76938e-05
0.000195795
-0.000162448
0.000278308
-0.000346916
0.000384385
-0.000586409
0.000517666
-0.000885908
0.000680654
-0.00124842
0.000873397
-0.00167308
0.00109372
-0.00215025
0.00133094
-0.00268475
-0.0031601
0.00155641
2.84606e-06
4.03315e-05
1.2077e-05
8.88735e-05
2.89288e-05
0.000104976
5.50465e-05
8.47351e-05
9.26255e-05
2.45209e-05
0.000144493
-7.95614e-05
0.000214089
-0.000232043
0.000305291
-0.000438118
0.000422016
-0.000703134
0.000567517
-0.00103141
0.0007434
-0.0014243
0.000948179
-0.00187786
0.00117857
-0.00238064
0.00141724
-0.00292342
-0.00338278
0.00163992
2.81409e-06
3.75174e-05
1.23982e-05
7.92894e-05
3.03401e-05
8.70342e-05
5.86069e-05
5.64683e-05
9.97017e-05
-1.6574e-05
0.00015674
-0.0001366
0.000233397
-0.0003087
0.000333645
-0.000538367
0.000461218
-0.000830706
0.000618721
-0.00118891
0.000806528
-0.00161211
0.00102137
-0.0020927
0.00125786
-0.00261713
0.00149831
-0.00316388
-0.00366836
0.00178389
2.80413e-06
3.47133e-05
1.28e-05
6.92936e-05
3.19371e-05
6.78971e-05
6.25224e-05
2.5883e-05
0.000107383
-6.14343e-05
0.000169921
-0.000199139
0.000254006
-0.000392785
0.000363597
-0.000647958
0.000502038
-0.000969147
0.000670997
-0.00135787
0.000869275
-0.00181039
0.00109166
-0.00231509
0.00133026
-0.00285573
0.00156981
-0.00340342
-0.00392259
0.00182404
2.83144e-06
3.18818e-05
1.33324e-05
5.87927e-05
3.38181e-05
4.74113e-05
6.69461e-05
-7.24494e-06
0.000115872
-0.00011036
0.000184268
-0.000267535
0.000276126
-0.000484643
0.000395245
-0.000767076
0.000544339
-0.00111824
0.000723829
-0.00153736
0.00093067
-0.00201723
0.00115766
-0.00254207
0.00139456
-0.00309263
0.00162781
-0.00363667
-0.00415247
0.00185769
2.90982e-06
2.8972e-05
1.40404e-05
4.76621e-05
3.60702e-05
2.53815e-05
7.20095e-05
-4.31843e-05
0.000125335
-0.000163686
0.000199947
-0.000342147
0.000299862
-0.000584557
0.000428531
-0.000895746
0.000587775
-0.00127749
0.000776481
-0.00172607
0.000989593
-0.00223034
0.00121801
-0.00277048
0.0014499
-0.00332452
0.00167277
-0.00385955
-0.00436217
0.00188247
3.05067e-06
2.59213e-05
1.49612e-05
3.57516e-05
3.87639e-05
1.57873e-06
7.78145e-05
-8.22349e-05
0.000135887
-0.000221758
0.000217045
-0.000423305
0.000325196
-0.000692709
0.000463233
-0.00103378
0.000631806
-0.00144606
0.000828042
-0.0019223
0.00104485
-0.00244715
0.00127152
-0.00299715
0.00149543
-0.00354844
0.00170535
-0.00406947
-0.00455297
0.00189614
3.26248e-06
2.26588e-05
1.61223e-05
2.28918e-05
4.19497e-05
-2.42486e-05
8.44272e-05
-0.000124712
0.000147584
-0.000284914
0.000235559
-0.00051128
0.000351989
-0.000809139
0.00049897
-0.00118076
0.000675731
-0.00162282
0.000877495
-0.00212406
0.00109527
-0.00266493
0.0013172
-0.00321908
0.00153066
-0.00376189
0.00172597
-0.00426478
-0.00472572
0.00189873
3.55064e-06
1.91082e-05
1.75411e-05
8.90132e-06
4.56562e-05
-5.23637e-05
9.18751e-05
-0.000170931
0.000160422
-0.000353462
0.000255395
-0.000606253
0.000379976
-0.000933719
0.000535223
-0.00133601
0.000718732
-0.00180633
0.000923793
-0.00232913
0.00113981
-0.00288094
0.00135432
-0.00343359
0.00155541
-0.00396298
0.00173526
-0.00444464
-0.00488133
0.00189087
3.91744e-06
1.51908e-05
1.92242e-05
-6.40548e-06
4.989e-05
-8.30295e-05
0.000100147
-0.000221189
0.000174337
-0.000427651
0.000276377
-0.000708293
0.00040879
-0.00106613
0.000571368
-0.00149859
0.000759934
-0.00199489
0.000965943
-0.00253513
0.0011776
-0.0030926
0.00138245
-0.00363844
0.00156984
-0.00415037
0.001734
-0.0046088
-0.00502087
0.00187353
4.36233e-06
1.08284e-05
2.11688e-05
-2.32119e-05
5.46369e-05
-0.000116498
0.000109197
-0.000275749
0.000189208
-0.000507663
0.000298252
-0.000817336
0.000437979
-0.00120586
0.000606719
-0.00166733
0.000798466
-0.00218664
0.00100307
-0.00273974
0.00120803
-0.00329756
0.00140147
-0.00383188
0.00157441
-0.00432331
0.00172314
-0.00475753
-0.00514556
0.00184783
4.88242e-06
5.94602e-06
2.33632e-05
-4.16926e-05
5.98644e-05
-0.000152999
0.000118946
-0.000334831
0.00020487
-0.000593586
0.000320707
-0.000933174
0.000467033
-0.00135218
0.000640564
-0.00184086
0.000833515
-0.00237959
0.00103446
-0.00294068
0.00123075
-0.00349385
0.00141154
-0.00401267
0.00156976
-0.00448153
0.0017037
-0.00489147
-0.00525676
0.00181491
5.47298e-06
4.73039e-07
2.57891e-05
-6.20088e-05
6.55251e-05
-0.000192735
0.000129289
-0.000398595
0.000221117
-0.000685414
0.000343388
-0.00105544
0.000495413
-0.00150421
0.000672211
-0.00201766
0.000864374
-0.00257176
0.00105962
-0.00313593
0.00124564
-0.00367987
0.00141304
-0.00418006
0.00155672
-0.00462522
0.00167677
-0.00501152
-0.00535585
0.00177586
6.12803e-06
-5.65499e-06
2.84231e-05
-8.43039e-05
7.15596e-05
-0.000235871
0.000140102
-0.000467138
0.000237718
-0.00078303
0.000365913
-0.00118364
0.000522575
-0.00166087
0.000701022
-0.00219611
0.000890471
-0.0027612
0.00107824
-0.0033237
0.00125283
-0.00385447
0.00140652
-0.00433374
0.00153617
-0.00475487
0.0016434
-0.00511875
-0.00544417
0.00173171
6.84082e-06
-1.24958e-05
3.12379e-05
-0.000108701
7.78999e-05
-0.000282533
0.000151246
-0.000540484
0.000254421
-0.000886206
0.000387886
-0.0013171
0.000547995
-0.00182098
0.000726439
-0.00237455
0.000911389
-0.00294615
0.00109022
-0.00350254
0.00125263
-0.00401687
0.00139266
-0.00447378
0.00150902
-0.00487122
0.00160456
-0.00521429
-0.00552298
0.00168337
7.60424e-06
-2.01e-05
3.42038e-05
-0.000135301
8.44717e-05
-0.000332801
0.000162569
-0.000618581
0.000270967
-0.000994603
0.00040892
-0.00145506
0.000571192
-0.00198325
0.00074801
-0.00255137
0.000926872
-0.00312502
0.00109565
-0.00367132
0.00124547
-0.00416669
0.00137221
-0.00460052
0.00147617
-0.00497518
0.00156116
-0.00529928
-0.00559342
0.00163161
8.41099e-06
-2.8511e-05
3.72898e-05
-0.000164179
9.11967e-05
-0.000386708
0.000173916
-0.0007013
0.00028709
-0.00110778
0.000428639
-0.00159661
0.000591743
-0.00214636
0.000765394
-0.00272502
0.000936818
-0.00329644
0.00109475
-0.00382924
0.00123192
-0.00430386
0.00134594
-0.00471455
0.00143848
-0.00506772
0.00151402
-0.00537481
-0.00565651
0.0015771
9.25379e-06
-3.77648e-05
4.04634e-05
-0.000195389
9.79936e-05
-0.000444238
0.000185127
-0.000788433
0.000302532
-0.00122518
0.0004467
-0.00174077
0.000609298
-0.00230895
0.000778371
-0.00289409
0.000941263
-0.00345933
0.00108786
-0.00397584
0.00121257
-0.00442857
0.00131461
-0.00481659
0.00139672
-0.00514984
0.00146383
-0.00544192
-0.00571309
0.00152041
1.01253e-05
-4.78901e-05
4.36917e-05
-0.000228955
0.00010478
-0.000505326
0.000196044
-0.000879697
0.000317046
-0.00134618
0.000462796
-0.00188652
0.000623585
-0.00246974
0.000786834
-0.00305734
0.000940363
-0.00361286
0.00107541
-0.00411089
0.00118807
-0.00454122
0.00127893
-0.00490745
0.0013516
-0.00522251
0.00141119
-0.00550151
-0.0057639
0.00146199
1.1018e-05
-5.89082e-05
4.69411e-05
-0.000264878
0.000111471
-0.000569857
0.00020651
-0.000974736
0.000330399
-0.00147007
0.000476666
-0.00203279
0.000634416
-0.00262749
0.000790782
-0.00321371
0.000934369
-0.00375645
0.0010579
-0.00423442
0.00115904
-0.00464236
0.00123958
-0.00498799
0.00130373
-0.00528665
0.0013566
-0.00555438
-0.00580951
0.00140221
1.19244e-05
-7.08325e-05
5.0177e-05
-0.000303131
0.000117985
-0.000637664
0.000216374
-0.00107313
0.000342381
-0.00159608
0.0004881
-0.00217851
0.000641684
-0.00278108
0.000790307
-0.00336233
0.000923603
-0.00388975
0.00103583
-0.00434665
0.0011261
-0.00473263
0.00119717
-0.00505907
0.00125363
-0.00534311
0.00130048
-0.00560122
-0.00585042
0.00134138
1.28363e-05
-8.36688e-05
5.33647e-05
-0.000343659
0.000124237
-0.000708536
0.000225494
-0.00117438
0.000352811
-0.0017234
0.000496945
-0.00232265
0.000645359
-0.00292949
0.000785577
-0.00350255
0.00090844
-0.00401261
0.00100972
-0.00444793
0.00108981
-0.00481272
0.00115224
-0.00512149
0.00120177
-0.00539265
0.00124317
-0.00564262
-0.00588698
0.00127973
1.37456e-05
-9.74145e-05
5.64687e-05
-0.000386382
0.000130147
-0.000782214
0.000233738
-0.00127797
0.000361536
-0.00185119
0.000503099
-0.00246421
0.000645483
-0.00307188
0.000776823
-0.00363389
0.000889281
-0.00412507
0.000980078
-0.00453872
0.00105072
-0.00488336
0.00110526
-0.00517604
0.00114852
-0.00543591
0.00118496
-0.00567905
-0.00591948
0.00121746
1.46437e-05
-0.000112058
5.94538e-05
-0.000431193
0.000135637
-0.000858398
0.000240988
-0.00138333
0.000368435
-0.00197864
0.000506517
-0.00260229
0.000642156
-0.00320751
0.000764318
-0.00375605
0.000866541
-0.00422729
0.000947388
-0.00461957
0.00100928
-0.00494525
0.00105664
-0.0052234
0.00109421
-0.00547348
0.00112606
-0.0057109
-0.00594813
0.00115471
1.55216e-05
-0.00012758
6.2285e-05
-0.000477956
0.000140636
-0.000936748
0.000247143
-0.00148983
0.000373425
-0.00210492
0.000507203
-0.00273607
0.000635528
-0.00333584
0.000748368
-0.00386889
0.000840634
-0.00431955
0.000912103
-0.00469104
0.000965927
-0.00499908
0.00100674
-0.00526422
0.00103909
-0.00550583
0.00106666
-0.00573848
-0.0059731
0.00109162
1.63703e-05
-0.00014395
6.49283e-05
-0.000526514
0.000145075
-0.0010169
0.000252118
-0.00159688
0.000376454
-0.00222926
0.000505205
-0.00286482
0.000625789
-0.00345642
0.000729292
-0.00397239
0.000811961
-0.00440222
0.000874638
-0.00475372
0.000921032
-0.00504547
0.000955848
-0.00529903
0.000983377
-0.00553335
0.00100692
-0.00576202
-0.00599447
0.00102829
1.71807e-05
-0.000161131
6.73512e-05
-0.000576685
0.000148896
-0.00109844
0.00025585
-0.00170383
0.000377505
-0.00235091
0.000500611
-0.00298793
0.000613156
-0.00356897
0.000707418
-0.00406666
0.000780905
-0.00447571
0.000835369
-0.00480818
0.000874919
-0.00508502
0.000904216
-0.00532833
0.000927254
-0.00555639
0.000946946
-0.00578171
-0.00601232
0.000964802
1.79437e-05
-0.000179075
6.95235e-05
-0.000628264
0.000152048
-0.00118096
0.000258294
-0.00181008
0.000376591
-0.00246921
0.00049354
-0.00310488
0.000597866
-0.00367329
0.000683069
-0.00415186
0.000747822
-0.00454046
0.000794631
-0.00485499
0.000827865
-0.00511825
0.000852054
-0.00535252
0.000870865
-0.0055752
0.000886843
-0.00579769
-0.00602671
0.000901225
1.86505e-05
-0.000197725
7.14174e-05
-0.000681031
0.000154489
-0.00126403
0.000259425
-0.00191501
0.000373754
-0.00258354
0.000484136
-0.00321526
0.000580167
-0.00376932
0.00065656
-0.00422825
0.00071304
-0.00459694
0.000752721
-0.00489467
0.000780109
-0.00514564
0.000799536
-0.00537194
0.00081433
-0.00559
0.000826694
-0.00581005
-0.00603764
0.000837624
1.9293e-05
-0.000217018
7.30088e-05
-0.000734747
0.000156188
-0.00134721
0.000259238
-0.00201806
0.000369059
-0.00269336
0.000472561
-0.00331876
0.000560307
-0.00385707
0.000628187
-0.00429613
0.000676857
-0.00464561
0.000709901
-0.00492772
0.000731855
-0.0051676
0.000746808
-0.0053869
0.000757748
-0.00560094
0.000766567
-0.00581887
-0.00604512
0.000774053
1.98633e-05
-0.000236881
7.4277e-05
-0.000789161
0.000157124
-0.00143006
0.000257745
-0.00211869
0.000362591
-0.0027982
0.000458991
-0.00341516
0.000538535
-0.00393661
0.000598232
-0.00435583
0.000639543
-0.00468692
0.000666396
-0.00495457
0.000683275
-0.00518447
0.00069399
-0.00539761
0.000701203
-0.00560815
0.000706523
-0.00582419
-0.00604916
0.000710565
2.03545e-05
-0.000257236
7.52054e-05
-0.000844012
0.000157285
-0.00151214
0.000254976
-0.00221638
0.000354452
-0.00289768
0.000443608
-0.00350432
0.000515091
-0.0040081
0.000566952
-0.00440769
0.000601336
-0.00472131
0.000622402
-0.00497564
0.000634512
-0.00519659
0.000641182
-0.00540428
0.000644764
-0.00561173
0.000646614
-0.00582604
-0.00604975
0.000647204
2.07604e-05
-0.000277996
7.57813e-05
-0.000899033
0.000156672
-0.00159303
0.000250972
-0.00231068
0.000344755
-0.00299146
0.000426597
-0.00358616
0.000490203
-0.0040717
0.000534584
-0.00445207
0.000562449
-0.00474917
0.000578088
-0.00499127
0.000585691
-0.00520419
0.000588471
-0.00540706
0.000588491
-0.00561175
0.000586888
-0.00582444
-0.00604688
0.000584016
2.10779e-05
-0.000299074
7.60009e-05
-0.000953956
0.000155298
-0.00167233
0.000245797
-0.00240118
0.000333632
-0.0030793
0.000408149
-0.00366068
0.000464099
-0.00412765
0.000501354
-0.00448932
0.000523077
-0.0047709
0.000533608
-0.0050018
0.000536923
-0.0052075
0.000535936
-0.00540607
0.000532444
-0.00560826
0.000527395
-0.00581939
-0.00604054
0.000521051
2.12989e-05
-0.000320373
7.58521e-05
-0.00100851
0.000153168
-0.00174964
0.000239501
-0.00248751
0.000321191
-0.00316099
0.000388424
-0.00372791
0.000436958
-0.00417619
0.000467434
-0.0045198
0.000483364
-0.00478683
0.000489065
-0.00500751
0.000488277
-0.00520672
0.00048362
-0.00540142
0.000476651
-0.00560129
0.000468156
-0.0058109
-0.00603071
0.000458328
2.14221e-05
-0.000341795
7.53388e-05
-0.00106243
0.000150312
-0.00182462
0.000232163
-0.00256936
0.000307569
-0.00323639
0.000367602
-0.00378794
0.000408977
-0.00421756
0.000433007
-0.00454383
0.000443461
-0.00479728
0.000444576
-0.00500862
0.000439837
-0.00520198
0.000431584
-0.00539316
0.000421161
-0.00559087
0.000409216
-0.00579895
-0.00601739
0.000395893
2.14453e-05
-0.00036324
7.44647e-05
-0.00111544
0.00014676
-0.00189691
0.000223861
-0.00264646
0.000292896
-0.00330543
0.000345845
-0.00384089
0.000380326
-0.00425204
0.000398225
-0.00456173
0.00040349
-0.00480255
0.00040023
-0.00500536
0.000391666
-0.00519341
0.000379876
-0.00538137
0.000366012
-0.005577
0.00035061
-0.00578355
-0.00600056
0.000333783
2.13674e-05
-0.000384608
7.32373e-05
-0.00116731
0.000142548
-0.00196622
0.000214675
-0.00271859
0.000277296
-0.00336805
0.000323306
-0.0038869
0.000351158
-0.0042799
0.000363225
-0.0045738
0.000363558
-0.00480288
0.000356104
-0.00499791
0.000343819
-0.00518113
0.000328535
-0.00536609
0.000311237
-0.00555971
0.00029237
-0.00576468
-0.00598022
0.000272026
2.11882e-05
-0.000405796
7.16671e-05
-0.00121779
0.000137717
-0.00203227
0.000204689
-0.00278556
0.000260892
-0.00342425
0.000300127
-0.00392614
0.000321612
-0.00430138
0.000328125
-0.00458031
0.000323756
-0.00479851
0.000312265
-0.00498642
0.000296343
-0.0051652
0.000277597
-0.00534734
0.000256864
-0.00553897
0.000234526
-0.00574234
-0.00595635
0.000210654
2.09084e-05
-0.000426704
6.97672e-05
-0.00126665
0.00013231
-0.00209482
0.000193986
-0.00284724
0.000243799
-0.00347406
0.000276438
-0.00395878
0.000291814
-0.00431676
0.000293029
-0.00458152
0.000284164
-0.00478965
0.000268769
-0.00497102
0.000249281
-0.00514572
0.000227095
-0.00532516
0.000202919
-0.0055148
0.000177096
-0.00571652
-0.00592894
0.000149693
2.05298e-05
-0.000447234
6.75533e-05
-0.00131368
0.000126371
-0.00215363
0.000182649
-0.00290351
0.000226129
-0.00351754
0.000252359
-0.00398501
0.000261873
-0.00432627
0.000258029
-0.00457768
0.00024485
-0.00477647
0.000225667
-0.00495184
0.000202672
-0.00512272
0.000177069
-0.00529956
0.000149446
-0.00548717
0.000120092
-0.00568717
-0.00589792
8.90708e-05
2.00548e-05
-0.000467289
6.50429e-05
-0.00135866
0.000119949
-0.00220854
0.000170756
-0.00295432
0.000207983
-0.00355477
0.000227999
-0.00400502
0.000231889
-0.00433016
0.000223203
-0.00456899
0.000205871
-0.00475913
0.000183001
-0.00492897
0.00015655
-0.00509627
0.000127556
-0.00527056
9.65247e-05
-0.00545614
6.35885e-05
-0.00565423
-0.0058627
2.83626e-05
1.94865e-05
-0.000486775
6.2255e-05
-0.00140143
0.00011309
-0.00225938
0.000158386
-0.00299962
0.000189458
-0.00358584
0.000203456
-0.00401902
0.000201949
-0.00432865
0.00018862
-0.00455566
0.00016728
-0.0047378
0.000140807
-0.0049025
0.000110941
-0.0050664
7.85734e-05
-0.00523819
4.4186e-05
-0.00542176
8.08773e-06
-0.00561813
-0.00582358
-3.10297e-05
1.88288e-05
-0.000505604
5.92099e-05
-0.00144181
0.000105842
-0.00230601
0.000145612
-0.00303939
0.000170644
-0.00361088
0.000178819
-0.0040272
0.000172129
-0.00432196
0.000154339
-0.00453787
0.000129118
-0.00471257
9.91189e-05
-0.0048725
6.58772e-05
-0.00503316
3.01411e-05
-0.00520246
-7.74509e-06
-0.00538387
-4.75826e-05
-0.00557829
-0.00578181
-8.93522e-05
1.80859e-05
-0.00052369
5.59284e-05
-0.00147966
9.82504e-05
-0.00234833
0.000132503
-0.00307364
0.00015162
-0.00362999
0.000154168
-0.00402974
0.000142496
-0.00431029
0.000120411
-0.00451579
9.14243e-05
-0.00468359
5.79656e-05
-0.00483904
2.13804e-05
-0.00499658
-1.76963e-05
-0.00516338
-5.89238e-05
-0.00534264
-0.000102307
-0.00553491
-0.00573663
-0.00014749
1.72627e-05
-0.000540953
5.2432e-05
-0.00151483
9.03612e-05
-0.00238626
0.000119127
-0.00310241
0.000132463
-0.00364333
0.000129573
-0.00402685
0.000113109
-0.00429383
8.68819e-05
-0.00448956
5.42303e-05
-0.00465094
1.73689e-05
-0.00480218
-2.25202e-05
-0.00495669
-6.49139e-05
-0.00512099
-0.000109564
-0.00529799
-0.000156368
-0.00548811
-0.00568789
-0.000205101
1.63642e-05
-0.000557317
4.87421e-05
-0.0015472
8.2218e-05
-0.00241973
0.000105542
-0.00312573
0.000113239
-0.00365102
0.000105097
-0.00401871
8.40193e-05
-0.00427275
5.37886e-05
-0.00445933
1.75631e-05
-0.00461471
-2.2639e-05
-0.00476197
-6.58031e-05
-0.00491352
-0.00011151
-0.00507528
-0.000159556
-0.00524995
-0.000209797
-0.00543786
-0.00563561
-0.000262076
1.53959e-05
-0.000572713
4.48804e-05
-0.00157669
7.38625e-05
-0.00244872
9.18079e-05
-0.00314368
9.40089e-05
-0.00365323
8.0796e-05
-0.0040055
5.52717e-05
-0.00424722
2.11645e-05
-0.00442522
-1.8548e-05
-0.004575
-6.20406e-05
-0.00471848
-0.000108453
-0.00486711
-0.000157453
-0.00502628
-0.000208877
-0.00519852
-0.000262569
-0.00538417
-0.00557981
-0.000318372
1.43638e-05
-0.000587077
4.08679e-05
-0.00160319
6.53344e-05
-0.00247318
7.79751e-05
-0.00315632
7.48298e-05
-0.00365008
5.67189e-05
-0.00398739
2.69043e-05
-0.00421741
-1.09625e-05
-0.00438736
-5.40814e-05
-0.00453188
-0.000100822
-0.00467174
-0.000150449
-0.00481748
-0.000202718
-0.00497401
-0.000257505
-0.00514373
-0.000314648
-0.00532703
-0.0055205
-0.000373954
1.32738e-05
-0.00060035
3.67258e-05
-0.00162664
5.66714e-05
-0.00249313
6.40922e-05
-0.00316374
5.57519e-05
-0.00364174
3.29077e-05
-0.00396454
-1.04716e-06
-0.00418346
-4.25627e-05
-0.00434584
-8.90232e-05
-0.00448542
-0.000138963
-0.0046218
-0.000191772
-0.00476467
-0.000247282
-0.0049185
-0.000305414
-0.0050856
-0.000366002
-0.00526644
-0.00545772
-0.000428791
1.21326e-05
-0.000612483
3.24746e-05
-0.00164699
4.79102e-05
-0.00250856
5.02056e-05
-0.00316603
3.68151e-05
-0.00362835
9.40773e-06
-0.00393714
-2.85553e-05
-0.00414549
-7.36211e-05
-0.00430078
-0.000123355
-0.00443569
-0.000176448
-0.00456871
-0.000232402
-0.00470872
-0.000291123
-0.00485978
-0.000352576
-0.00502415
-0.0004166
-0.00520242
-0.00539146
-0.000482855
1.09471e-05
-0.00062343
2.81334e-05