/*--------------------------------*- C++ -*----------------------------------*\
  =========                 |
  \\      /  F ield         | OpenFOAM: The Open Source CFD Toolbox
   \\    /   O peration     | Website:  https://openfoam.org
    \\  /    A nd           | Version:  7
     \\/     M anipulation  |
\*---------------------------------------------------------------------------*/
FoamFile
{
    version     2.0;
    format      ascii;
    class       volVectorField;
    location    "280";
    object      U;
}
// * * * * * * * * * * * * * * * * * * * * * * * * * * * * * * * * * * * * * //

dimensions      [0 1 -1 0 0 0 0];

internalField   nonuniform List<vector> 
20050
(
(-0.00105367 0.00341958 4.78898e-21)
(-0.0059429 -0.00262054 -8.94128e-22)
(-0.0153275 -0.0175059 -1.10015e-20)
(-0.0270932 -0.0375767 -1.65468e-20)
(-0.040613 -0.05997 -1.50759e-21)
(-0.0553544 -0.0827657 1.01917e-20)
(-0.0708383 -0.104999 -1.13525e-20)
(-0.0866495 -0.126523 2.87754e-21)
(-0.102416 -0.147732 -8.04218e-21)
(-0.117827 -0.169251 1.48298e-20)
(-0.132655 -0.191682 1.25783e-20)
(-0.146763 -0.215464 -1.52856e-20)
(-0.160087 -0.240836 -7.82945e-21)
(-0.17259 -0.267866 8.27475e-21)
(-0.184251 -0.296599 -8.66569e-21)
(-0.00127765 0.00526706 8.01618e-21)
(-0.0064607 0.00178223 -5.46183e-21)
(-0.0162264 -0.0113301 -2.52535e-21)
(-0.0284017 -0.0301727 1.65976e-20)
(-0.042374 -0.0517417 2.07447e-20)
(-0.0576099 -0.0740256 -5.09747e-20)
(-0.0736218 -0.0960035 3.09901e-20)
(-0.0899878 -0.117488 3.28454e-20)
(-0.106337 -0.138834 4.27009e-20)
(-0.122374 -0.160621 -4.02894e-20)
(-0.137897 -0.183403 2.76094e-20)
(-0.152812 -0.20757 2.54723e-20)
(-0.167105 -0.233335 1.46683e-20)
(-0.180826 -0.260774 -4.70409e-20)
(-0.194034 -0.289942 3.88521e-20)
(-0.00158817 0.00721806 -3.30449e-20)
(-0.00714277 0.00644402 -4.20967e-20)
(-0.0172736 -0.00478502 3.16832e-20)
(-0.029787 -0.0223285 4.03742e-20)
(-0.0440973 -0.0430355 -2.55222e-20)
(-0.0596788 -0.0647936 -4.89178e-20)
(-0.0760399 -0.0865139 3.06067e-20)
(-0.0927542 -0.107957 -8.76553e-20)
(-0.109452 -0.129429 -4.20085e-20)
(-0.125847 -0.151455 -3.52998e-20)
(-0.141764 -0.174534 -4.83978e-20)
(-0.157139 -0.199008 8.86327e-21)
(-0.172008 -0.225057 3.64673e-20)
(-0.186496 -0.252763 1.63327e-19)
(-0.200717 -0.282188 -6.2768e-20)
(-0.00198897 0.00924287 4.21361e-21)
(-0.0079934 0.0113009 8.45231e-20)
(-0.0184654 0.00204805 3.37053e-20)
(-0.0312341 -0.0141337 -5.86077e-20)
(-0.0457552 -0.0339439 1.42342e-20)
(-0.0615199 -0.0551621 5.44524e-20)
(-0.0780384 -0.0766213 5.19634e-20)
(-0.0948816 -0.0980198 3.36105e-20)
(-0.11168 -0.119605 -6.49555e-20)
(-0.128153 -0.141844 1.80613e-19)
(-0.144141 -0.165174 -7.85032e-20)
(-0.159608 -0.189883 1.09707e-19)
(-0.174629 -0.216115 -3.52929e-20)
(-0.189394 -0.243953 -1.38516e-19)
(-0.204044 -0.273454 5.25959e-20)
(-0.00248106 0.011309 1.21874e-19)
(-0.0090121 0.0162836 -4.67918e-20)
(-0.0197943 0.00908143 -3.03331e-21)
(-0.0327258 -0.00568389 3.44264e-20)
(-0.0473196 -0.0245644 2.19648e-20)
(-0.0630941 -0.0452268 2.85902e-20)
(-0.0795673 -0.0664186 -1.12766e-19)
(-0.0963097 -0.087767 -1.05164e-20)
(-0.112949 -0.109454 5.85692e-21)
(-0.129208 -0.131881 -1.79706e-19)
(-0.144933 -0.155421 1.62056e-19)
(-0.160102 -0.180305 -1.12215e-19)
(-0.174827 -0.206631 -5.2001e-20)
(-0.189346 -0.234476 -2.91959e-20)
(-0.203796 -0.263873 -7.15397e-20)
(-0.00306253 0.0133815 -7.2261e-20)
(-0.0101933 0.0213175 -3.05067e-20)
(-0.0212481 0.0162216 -9.62518e-20)
(-0.034242 0.00291998 -1.61218e-20)
(-0.048762 -0.0149984 -6.69909e-20)
(-0.0643645 -0.0350867 -5.51983e-20)
(-0.0805817 -0.0560009 -6.94748e-20)
(-0.0969854 -0.0772907 4.01e-20)
(-0.1132 -0.0990666 4.88065e-20)
(-0.128942 -0.121661 1.72985e-20)
(-0.144057 -0.145381 3.60033e-20)
(-0.158526 -0.170392 5.5878e-20)
(-0.172488 -0.196738 -9.77429e-20)
(-0.18621 -0.224476 -6.51407e-20)
(-0.199797 -0.253598 2.0972e-19)
(-0.00372842 0.015424 -4.57932e-20)
(-0.0115262 0.0263254 -4.78699e-20)
(-0.0228103 0.0233715 2.11524e-19)
(-0.0357607 0.0115736 1.13163e-19)
(-0.0500544 -0.00535033 3.44742e-21)
(-0.0652969 -0.0248424 3.78614e-20)
(-0.0810414 -0.0454644 1.01971e-19)
(-0.0968626 -0.0666835 -6.96957e-20)
(-0.112379 -0.0885353 4.98731e-20)
(-0.127297 -0.111282 6.39119e-20)
(-0.141449 -0.135159 -2.03152e-19)
(-0.154805 -0.160264 -3.93593e-20)
(-0.167525 -0.186576 -1.78001e-19)
(-0.179885 -0.214108 1.08015e-19)
(-0.191915 -0.242795 -1.32648e-19)
(-0.00447074 0.0174002 6.09291e-20)
(-0.0129948 0.0312286 -4.77737e-20)
(-0.02446 0.0304324 -1.66399e-19)
(-0.0372572 0.0201709 -1.84092e-19)
(-0.0511687 0.00427384 -2.24051e-19)
(-0.0658599 -0.014596 5.80749e-20)
(-0.080911 -0.0349058 7.5962e-20)
(-0.0959024 -0.0560383 1.51026e-19)
(-0.110444 -0.0779518 -7.43986e-20)
(-0.124227 -0.100837 -6.47361e-20)
(-0.137059 -0.12486 1.24865e-19)
(-0.148889 -0.150043 -1.30926e-19)
(-0.15988 -0.176286 1.20285e-19)
(-0.170305 -0.203538 -1.97683e-19)
(-0.180066 -0.231644 1.29189e-19)
(-0.00527861 0.019274 -9.78053e-21)
(-0.0145781 0.0359495 5.02271e-20)
(-0.0261724 0.0373057 2.49753e-19)
(-0.0387051 0.0286051 2.40588e-19)
(-0.0520775 0.0137676 9.65964e-20)
(-0.0660246 -0.00444965 -3.02927e-20)
(-0.0801605 -0.0244223 -1.23302e-19)
(-0.094073 -0.0454477 5.61396e-20)
(-0.107363 -0.067407 2.74325e-20)
(-0.119698 -0.0904206 -8.46651e-20)
(-0.130854 -0.114586 -2.70471e-19)
(-0.140744 -0.139847 -8.64314e-20)
(-0.149523 -0.166014 2.25828e-19)
(-0.157447 -0.192936 3.13721e-20)
(-0.16421 -0.220334 -2.70235e-19)
(-0.00613852 0.0210114 -9.67234e-20)
(-0.0162506 0.0404128 -2.65052e-19)
(-0.0279192 0.0438948 -2.93163e-19)
(-0.0400766 0.0367711 -1.78351e-19)
(-0.0527542 0.0230249 1.26994e-19)
(-0.0657657 0.00549422 2.18928e-20)
(-0.0787649 -0.0141107 5.12304e-20)
(-0.0913497 -0.0350036 -4.92753e-20)
(-0.10311 -0.0569901 4.46529e-19)
(-0.113686 -0.0801235 1.50372e-19)
(-0.122816 -0.104436 2.46417e-19)
(-0.130359 -0.129792 3.45361e-19)
(-0.13645 -0.155898 -2.52308e-19)
(-0.141323 -0.18247 3.95581e-19)
(-0.144357 -0.209061 5.18213e-20)
(-0.00703472 0.0225812 9.72777e-20)
(-0.0179829 0.0445477 1.51259e-19)
(-0.029669 0.0501069 1.30954e-19)
(-0.0413427 0.0445662 -1.55281e-19)
(-0.0531734 0.0319415 1.27405e-19)
(-0.065061 0.0151343 2.17611e-20)
(-0.0767046 -0.00406746 -3.64071e-19)
(-0.0877144 -0.0247974 3.27161e-19)
(-0.097669 -0.0467887 -2.65565e-19)
(-0.10618 -0.0700323 -7.64506e-20)
(-0.112938 -0.0945006 -1.65198e-21)
(-0.117738 -0.119982 2.13888e-19)
(-0.120679 -0.14607 2.73732e-19)
(-0.121985 -0.172309 -2.36255e-19)
(-0.120554 -0.19802 4.88114e-20)
(-0.00794971 0.0239555 -1.80078e-19)
(-0.0197427 0.0482895 5.29188e-20)
(-0.0313883 0.0558553 -1.21894e-19)
(-0.0424739 0.0518924 -1.17634e-20)
(-0.0533114 0.0404158 1.54402e-19)
(-0.0638921 0.0243704 -1.89858e-19)
(-0.0739651 0.00561148 2.54478e-19)
(-0.0831559 -0.01492 -3.13352e-19)
(-0.0910325 -0.0368888 -4.08194e-19)
(-0.0971753 -0.0602298 1.20453e-19)
(-0.101223 -0.0848638 2.52499e-19)
(-0.102899 -0.110511 -3.00471e-19)
(-0.102247 -0.136646 2.65974e-19)
(-0.0995106 -0.162607 -4.56374e-19)
(-0.0928848 -0.187403 3.17581e-19)
(-0.0088648 0.0251114 4.80856e-19)
(-0.0214951 0.0515815 -3.14029e-19)
(-0.0330422 0.0610603 1.44398e-19)
(-0.043441 0.0586569 2.13183e-19)
(-0.0531465 0.0483497 -2.49296e-19)
(-0.0622444 0.0331043 3.72376e-19)
(-0.0705378 0.0148308 -5.35178e-20)
(-0.0776698 -0.0054619 -4.76015e-19)
(-0.0831992 -0.0273754 1.33843e-19)
(-0.0866747 -0.0507953 7.07799e-20)
(-0.0876836 -0.0756014 -3.53335e-19)
(-0.0858699 -0.101457 3.00168e-19)
(-0.0812011 -0.127724 -9.67265e-19)
(-0.0740057 -0.153503 7.94585e-19)
(-0.0614575 -0.177394 -2.84121e-19)
(-0.0097608 0.0260308 -3.44821e-19)
(-0.0232047 0.0543758 5.11383e-20)
(-0.0345953 0.0656518 -2.81632e-19)
(-0.0442155 0.0647748 -2.44961e-19)
(-0.0526593 0.0556503 -2.62659e-19)
(-0.0601075 0.0412406 -4.19294e-19)
(-0.0664192 0.0234962 5.29234e-19)
(-0.0712581 0.0034861 6.4631e-19)
(-0.0741755 -0.0183335 4.32865e-20)
(-0.0746893 -0.0418059 -3.25624e-19)
(-0.0723374 -0.0667819 2.1345e-20)
(-0.0666825 -0.0928857 2.88574e-19)
(-0.057593 -0.119372 -1.28342e-19)
(-0.0455934 -0.145111 -2.96915e-20)
(-0.0263933 -0.168161 4.30749e-19)
(-0.0106187 0.0267015 2.18178e-19)
(-0.0248356 0.0566353 2.77711e-19)
(-0.0360129 0.0695699 8.50649e-20)
(-0.0447705 0.0701695 3.32357e-19)
(-0.0518332 0.0622304 1.39198e-19)
(-0.0574748 0.0486868 2.82403e-19)
(-0.0616117 0.0315141 -3.00903e-20)
(-0.0639296 0.0118328 -2.8786e-19)
(-0.0639744 -0.00984893 1.38844e-19)
(-0.0612358 -0.0333381 5.06788e-19)
(-0.0552065 -0.0584685 1.80842e-19)
(-0.0453709 -0.0848446 -2.24239e-19)
(-0.0314703 -0.111634 4.32548e-19)
(-0.0144034 -0.137512 -2.90286e-19)
(0.0121421 -0.15976 3.58232e-20)
(-0.0114205 0.0271174 -3.70077e-20)
(-0.0263536 0.0583339 -1.0873e-19)
(-0.0372617 0.0727669 2.69906e-19)
(-0.045081 0.0747746 1.6638e-19)
(-0.0506544 0.0680105 3.33903e-19)
(-0.054344 0.0553552 -1.8158e-19)
(-0.0561225 0.038793 -4.12798e-19)
(-0.0556989 0.0194865 -1.90359e-19)
(-0.0526158 -0.00200923 -2.72633e-19)
(-0.0463371 -0.02547 -6.17551e-19)
(-0.0363161 -0.0507231 -3.46374e-19)
(-0.021968 -0.0773732 -9.5176e-20)
(-0.00286819 -0.104533 -4.23809e-19)
(0.0195137 -0.130805 -7.14398e-21)
(0.0538152 -0.151956 2.2874e-19)
(-0.0121496 0.0272785 -1.6083e-19)
(-0.0277264 0.0594577 -9.98501e-20)
(-0.0383108 0.0752078 1.67262e-20)
(-0.0451244 0.0785354 -7.09387e-19)
(-0.0491121 0.0729196 -6.73169e-19)
(-0.050716 0.0611637 -2.6509e-19)
(-0.0499632 0.0452439 5.10146e-19)
(-0.0465859 0.0263554 -2.50056e-19)
(-0.0401248 0.00509551 2.37672e-19)
(-0.0300209 -0.0182834 3.29545e-19)
(-0.0156942 -0.0436092 1.20012e-19)
(0.00349069 -0.0705056 -2.25786e-19)
(0.0281506 -0.0980677 2.50575e-19)
(0.0563078 -0.125048 2.10328e-19)
(0.0983998 -0.144885 -2.96056e-19)
(-0.0127918 0.027191 -4.29159e-20)
(-0.0289257 0.0600046 1.31075e-19)
(-0.0391325 0.0768714 -3.84453e-19)
(-0.0448809 0.0814096 8.91686e-19)
(-0.0471974 0.0768972 6.3739e-19)
(-0.0465942 0.0660373 1.04318e-19)
(-0.0431482 0.050782 -3.25663e-19)
(-0.0366138 0.032349 1.31642e-19)
(-0.0265304 0.0113737 1.69713e-19)
(-0.0123186 -0.0118641 -4.25929e-19)
(0.00663103 -0.0371953 5.15185e-19)
(0.0309828 -0.064278 2.01434e-19)
(0.0614937 -0.092234 -3.36671e-19)
(0.0958543 -0.12005 2.37192e-19)
(0.146248 -0.138871 8.88679e-20)
(-0.0133358 0.0268667 6.6439e-20)
(-0.029927 0.0599851 3.41324e-19)
(-0.0397027 0.0777512 -1.59182e-20)
(-0.044333 0.0833691 -5.20126e-19)
(-0.0449032 0.0798946 -3.76612e-19)
(-0.0419828 0.0699107 3.96451e-19)
(-0.0356923 0.0553292 5.53778e-19)
(-0.025806 0.0373806 -8.388e-20)
(-0.0118618 0.0167343 -2.49239e-19)
(0.00673863 -0.00630167 6.30792e-19)
(0.0306302 -0.0315591 -5.14602e-19)
(0.0604895 -0.0587359 2.73756e-19)
(0.0972043 -0.0870013 3.58437e-19)
(0.137948 -0.115592 -1.11113e-18)
(0.197384 -0.13379 1.41606e-19)
(-0.0137731 0.026323 1.90435e-19)
(-0.030711 0.0594209 -1.52631e-19)
(-0.0400015 0.0778545 3.53756e-22)
(-0.0434654 0.0844004 1.15445e-19)
(-0.0422224 0.0818771 1.48109e-19)
(-0.0368843 0.0727301 -4.38104e-19)
(-0.0276072 0.0588166 -2.10544e-19)
(-0.0141816 0.0413697 -4.37403e-19)
(0.00385708 0.0210892 -4.33489e-19)
(0.0271253 -0.0016867 3.75316e-19)
(0.056281 -0.0267821 -4.23684e-19)
(0.0919935 -0.0539344 -4.87606e-20)
(0.135309 -0.0823587 1.27138e-19)
(0.182613 -0.111725 -5.63817e-20)
(0.251696 -0.129359 4.5116e-19)
(-0.0140993 0.025582 -6.04951e-20)
(-0.031264 0.0583446 -4.10532e-19)
(-0.0400128 0.0772027 -3.45873e-19)
(-0.0422641 0.0845054 -7.26354e-20)
(-0.0391461 0.0828247 6.5254e-20)
(-0.0312966 0.0744558 -1.31418e-20)
(-0.0188974 0.0611879 -8.10154e-20)
(-0.00175005 0.0442473 -6.44231e-20)
(0.0206149 0.0243596 2.22862e-19)
(0.0488317 0.00189681 -1.72271e-19)
(0.0835773 -0.0229457 4.99873e-19)
(0.125493 -0.0499388 -5.44973e-19)
(0.175807 -0.0783026 -4.04785e-19)
(0.229889 -0.108442 2.83256e-19)
(0.309074 -0.125342 -3.43562e-19)
(-0.0143133 0.0246692 -1.58273e-19)
(-0.0315774 0.0567976 4.93869e-20)
(-0.039724 0.0758309 2.95283e-19)
(-0.0407151 0.0837017 -1.54112e-19)
(-0.0356611 0.0827342 2.46002e-19)
(-0.0252087 0.0750646 -8.14081e-20)
(-0.00955409 0.0624035 -4.23013e-19)
(0.0114968 0.0459609 5.57129e-19)
(0.0384217 0.0264836 2.48833e-19)
(0.0718725 0.00438088 -7.1222e-19)
(0.11254 -0.02012 6.95516e-20)
(0.161016 -0.0468092 -1.56434e-20)
(0.218701 -0.0748384 8.2493e-19)
(0.279813 -0.105675 1.68958e-19)
(0.369388 -0.121526 4.71774e-19)
(-0.0144175 0.0236129 6.26623e-21)
(-0.031648 0.0548294 3.54491e-19)
(-0.0391254 0.073786 -1.7003e-19)
(-0.0388027 0.0820224 2.34054e-19)
(-0.0317475 0.0816203 4.44481e-19)
(-0.018597 0.074553 5.69299e-19)
(0.00045087 0.0624441 1.73301e-19)
(0.0255935 0.0464794 -3.53823e-20)
(0.0573207 0.0274229 7.10613e-19)
(0.0963013 0.00572299 8.00941e-19)
(0.143233 -0.0183491 7.36027e-20)
(0.198631 -0.044584 7.84453e-19)
(0.264017 -0.071971 -6.40117e-23)
(0.332437 -0.103337 -6.83282e-19)
(0.432416 -0.117689 -4.64591e-19)
(-0.0144174 0.0224428 1.93014e-19)
(-0.031477 0.0524951 3.90523e-19)
(-0.0382086 0.0711257 6.4557e-20)
(-0.0365075 0.0795154 4.52361e-19)
(-0.0273752 0.0795159 -5.41394e-19)
(-0.0114201 0.0729385 -6.98906e-20)
(0.0111713 0.0613145 -1.16917e-19)
(0.040609 0.0457993 8.44523e-19)
(0.0773985 0.0271701 -1.16097e-18)
(0.122223 0.00591649 -7.97411e-19)
(0.17577 -0.0176362 3.04932e-19)
(0.238458 -0.0432596 -3.87961e-19)
(0.311797 -0.0696857 -1.05261e-19)
(0.387831 -0.101308 3.21693e-19)
(0.497802 -0.113599 1.14065e-18)
(-0.0143213 0.0211888 1.83775e-19)
(-0.0310688 0.0498531 -7.13006e-19)
(-0.0369651 0.0679161 1.55021e-19)
(-0.0338045 0.0762425 -6.97799e-19)
(-0.0225004 0.0764727 3.50945e-19)
(-0.00361476 0.0702614 -2.33667e-19)
(0.0226928 0.0590467 -2.55462e-19)
(0.056654 0.0439488 -6.22376e-19)
(0.0987934 0.0257557 2.25359e-19)
(0.149801 0.00499995 3.25142e-19)
(0.210327 -0.0179318 -1.85245e-20)
(0.280669 -0.0427705 3.19444e-19)
(0.362102 -0.0679322 -1.68196e-19)
(0.446065 -0.0994154 -6.01114e-20)
(0.564997 -0.109034 -7.81892e-20)
(-0.0141393 0.0198799 -8.08604e-19)
(-0.03043 0.0469631 3.27234e-20)
(-0.0353845 0.0642295 -6.56645e-20)
(-0.0306601 0.0722776 1.15287e-19)
(-0.0170632 0.0725599 -5.26387e-19)
(0.00490859 0.0665857 6.40994e-19)
(0.0351375 0.0557014 -1.89272e-20)
(0.0738867 0.0409912 -7.98553e-19)
(0.1217 0.0232525 -7.43108e-19)
(0.17926 0.00306318 -6.41129e-19)
(0.247136 -0.0191256 -2.9337e-19)
(0.325473 -0.042977 -1.87015e-19)
(0.414987 -0.0666143 -6.30055e-19)
(0.507162 -0.0974104 -4.28683e-19)
(0.633216 -0.103804 5.1135e-19)
(-0.0138822 0.0185431 4.62477e-19)
(-0.0295668 0.0438838 3.6634e-19)
(-0.0334522 0.0601421 4.30595e-19)
(-0.0270302 0.0677044 -1.28271e-19)
(-0.0109847 0.0678638 2.32034e-19)
(0.014268 0.0619986 -3.2266e-19)
(0.0486666 0.0513698 1.63553e-19)
(0.0925136 0.0370272 1.03263e-18)
(0.146368 0.0197782 3.96656e-19)
(0.210878 0.00024929 8.51284e-19)
(0.28647 -0.0210454 3.2373e-19)
(0.373081 -0.0436632 -5.9177e-20)
(0.470473 -0.0655858 5.63977e-19)
(0.571029 -0.0949618 -5.94231e-19)
(0.701405 -0.0977823 -6.83887e-19)
(-0.013561 0.0172021 -4.06835e-19)
(-0.0284842 0.0406706 -6.52767e-19)
(-0.0311475 0.0557311 1.36542e-19)
(-0.0228583 0.0626144 -2.58418e-19)
(-0.00416549 0.0624854 3.07012e-19)
(0.024611 0.0566096 -6.44352e-19)
(0.0634795 0.0461728 1.87274e-19)
(0.112786 0.0321943 -2.90924e-19)
(0.17309 0.0154948 -2.78408e-19)
(0.244968 -0.00324777 -3.8139e-19)
(0.328609 -0.0234619 -6.58011e-19)
(0.423661 -0.0445487 6.73312e-20)
(0.528506 -0.0646536 5.78201e-19)
(0.637339 -0.0916364 4.65354e-19)
(0.768192 -0.0908752 3.27767e-19)
(-0.0131854 0.0158766 2.98324e-19)
(-0.0271829 0.0373736 -4.70353e-20)
(-0.0284415 0.0510724 2.17331e-19)
(-0.018074 0.0571039 6.94779e-19)
(0.0035149 0.0565378 -7.53044e-19)
(0.0361139 0.0505484 6.74992e-19)
(0.0798101 0.0402584 -6.36551e-19)
(0.13499 0.0266645 1.04424e-19)
(0.20219 0.0106045 2.78563e-19)
(0.281848 -0.00719028 2.44838e-20)
(0.373805 -0.0261008 4.35407e-19)
(0.477279 -0.0453219 4.59172e-19)
(0.588939 -0.063582 -3.17929e-19)
(0.705452 -0.086868 -7.54657e-19)
(0.831913 -0.0830321 1.08588e-18)
(-0.0127625 0.0145816 -1.8416e-19)
(-0.0256584 0.0340362 4.70127e-19)
(-0.0252959 0.0462384 -2.87732e-19)
(-0.0125922 0.0512713 -1.9522e-19)
(0.0121968 0.0501433 3.98531e-19)
(0.0489773 0.0439608 -8.13419e-20)
(0.0979182 0.0337988 2.47582e-19)
(0.159434 0.0206399 1.47991e-18)
(0.233991 0.00534347 1.94216e-19)
(0.321803 -0.0113077 1.00857e-19)
(0.422224 -0.0286621 -1.87685e-19)
(0.533852 -0.0456873 -2.74122e-19)
(0.651541 -0.0620889 -2.23154e-19)
(0.774457 -0.0800549 3.10109e-19)
(0.891128 -0.074892 -1.64343e-18)
(-0.0122963 0.0133273 5.79114e-19)
(-0.0238986 0.030694 4.9569e-19)
(-0.0216615 0.0412955 1.62755e-19)
(-0.006314 0.045214 -3.79128e-20)
(0.0220377 0.0434298 2.4353e-19)
(0.0634199 0.0370055 -1.87e-19)
(0.118078 0.0269847 -1.15983e-19)
(0.186424 0.0143461 -1.81246e-19)
(0.268789 -2.76087e-05 -8.28905e-19)
(0.365042 -0.01531 1.98368e-19)
(0.473894 -0.0308403 7.8142e-20)
(0.593091 -0.0454021 8.67856e-20)
(0.715912 -0.0598236 6.5595e-19)
(0.843241 -0.0710958 -4.25982e-20)
(0.946257 -0.0692249 3.01845e-19)
(-0.0117866 0.0121188 -9.15021e-19)
(-0.021883 0.0273743 -3.52835e-19)
(-0.0174779 0.0363033 -9.13609e-20)
(0.00087272 0.0390264 -7.77772e-21)
(0.0332082 0.0365273 -4.22759e-19)
(0.07967 0.0298488 1.92326e-19)
(0.140561 0.0200198 1.78727e-20)
(0.216245 0.00802395 5.69834e-19)
(0.306818 -0.0052345 -2.13914e-19)
(0.411659 -0.0189018 -1.99228e-19)
(0.528656 -0.0323421 -2.79295e-20)
(0.654477 -0.0442676 -1.77747e-20)
(0.781262 -0.056409 -6.02219e-19)
(0.910083 -0.0612733 1.49563e-19)
(1.0009 -0.069474 -3.80009e-19)
(-0.0112282 0.0109564 6.66534e-19)
(-0.019582 0.0240957 2.02098e-19)
(-0.0126742 0.0313129 -4.11115e-19)
(0.00909015 0.0327972 1.91372e-19)
(0.0458854 0.0295641 -7.49758e-19)
(0.0979542 0.0226595 1.47363e-19)
(0.165623 0.0131134 2.58817e-19)
(0.249131 0.00191994 -5.95511e-19)
(0.34822 -0.0100019 8.02556e-19)
(0.461598 -0.0217984 4.65678e-19)
(0.586157 -0.0329014 3.11332e-19)
(0.717302 -0.042097 8.96921e-20)
(0.846393 -0.0516513 -7.11844e-21)
(0.97246 -0.0529598 -1.56647e-19)
(1.06216 -0.067154 6.86525e-19)
(-0.0106109 0.00983626 -7.49649e-19)
(-0.0169565 0.0208693 -6.65749e-19)
(-0.00716947 0.0263674 6.15129e-20)
(0.0184675 0.0266082 1.93147e-19)
(0.0602471 0.0226644 6.99379e-19)
(0.118486 0.015605 -2.30443e-19)
(0.193479 0.00647355 -9.03114e-19)
(0.285245 -0.00372306 -7.05338e-19)
(0.393016 -0.0140664 -4.43288e-19)
(0.514637 -0.0237413 -8.3328e-19)
(0.645845 -0.0322991 3.24313e-19)
(0.780716 -0.0387379 1.82464e-19)
(0.910041 -0.0455912 1.69504e-19)
(1.03107 -0.0448382 3.82595e-19)
(1.11742 -0.0588376 1.93117e-19)
(-0.00991943 0.00875128 4.99231e-19)
(-0.0139585 0.0176995 4.47902e-19)
(-0.00087531 0.0215016 1.83043e-19)
(0.0291368 0.0205337 -5.35026e-19)
(0.0764635 0.0159454 -3.4911e-19)
(0.141454 0.00884584 2.55344e-19)
(0.224295 0.00030077 3.47269e-19)
(0.324657 -0.00867538 6.86346e-19)
(0.441089 -0.0171892 2.08706e-19)
(0.570385 -0.0245135 1.21452e-19)
(0.707008 -0.0303783 -7.2116e-19)
(0.843771 -0.0340975 -5.31522e-19)
(0.971145 -0.0383162 8.52959e-20)
(1.08534 -0.0360896 -1.73437e-19)
(1.16547 -0.0485668 4.08315e-19)
(-0.00913368 0.00769204 1.47502e-19)
(-0.0105324 0.0145854 -3.26278e-19)
(0.00630239 0.0167436 -3.20336e-19)
(0.0412286 0.0146402 6.35978e-20)
(0.0946902 0.00951644 2.86609e-19)
(0.16701 0.00253373 5.1512e-19)
(0.258167 -0.00521744 -3.0464e-19)
(0.367331 -0.0127283 3.07833e-19)
(0.49218 -0.019166 1.28629e-19)
(0.628288 -0.0239507 -6.67544e-19)
(0.76881 -0.0270515 1.34814e-19)
(0.905491 -0.0281629 7.23106e-20)
(1.02882 -0.0299549 -2.04098e-19)
(1.13469 -0.0266441 -3.54533e-19)
(1.20734 -0.0372506 -7.5812e-19)
(-0.00822946 0.00664798 9.12205e-20)
(-0.00661611 0.0115232 -1.24427e-19)
(0.0144604 0.0121166 3.17636e-19)
(0.0548673 0.00898736 -2.82196e-19)
(0.115061 0.00347836 5.07503e-20)
(0.195261 -0.00319101 -1.34348e-19)
(0.295114 -0.00991038 -1.72431e-19)
(0.413118 -0.0156999 1.01253e-19)
(0.545889 -0.0198343 3.93569e-20)
(0.687664 -0.0219468 6.19935e-19)
(0.830354 -0.0223005 2.61031e-19)
(0.964948 -0.0209948 2.93842e-19)
(1.08236 -0.0206701 7.83457e-19)
(1.17882 -0.0165899 -2.29732e-19)
(1.24307 -0.0254352 4.15867e-19)
(-0.00717927 0.00560864 -2.76874e-19)
(-0.00214309 0.0085082 5.95046e-19)
(0.0236955 0.00764054 1.68986e-19)
(0.0701672 0.00363014 7.51079e-19)
(0.137683 -0.00207553 1.76071e-19)
(0.226261 -0.00819985 -6.39038e-19)
(0.335072 -0.0136266 2.78231e-19)
(0.461753 -0.0174394 6.22867e-19)
(0.601692 -0.0190778 -5.69827e-19)
(0.747741 -0.0184551 -1.43991e-19)
(0.890735 -0.0161689 -1.44818e-20)
(1.02132 -0.0127098 -3.25551e-19)
(1.13124 -0.0106406 -4.43689e-19)
(1.21761 -0.00608158 4.2371e-19)
(1.27308 -0.0134652 1.51929e-19)
(-0.00595329 0.00456472 -9.37572e-20)
(0.00295564 0.00553699 -3.31713e-19)
(0.0341014 0.00333527 4.69559e-19)
(0.0872281 -0.00137928 -3.31462e-19)
(0.16263 -0.00705795 8.19157e-20)
(0.260009 -0.0123757 -6.97296e-21)
(0.377891 -0.0162347 3.89564e-19)
(0.512869 -0.0178288 -4.96684e-19)
(0.658971 -0.0168271 1.33154e-18)
(0.807702 -0.0134841 2.79217e-19)
(0.949105 -0.00875052 -2.61587e-19)
(1.07394 -0.00346014 2.37513e-20)
(1.17517 -4.70322e-05 -7.02397e-20)
(1.25114 0.00471572 8.98076e-20)
(1.29781 -0.00155735 -5.78963e-19)
(-0.00452042 0.00350912 5.9917e-20)
(0.00874944 0.00260955 -3.8749e-19)
(0.045766 -0.000777146 -3.64349e-19)
(0.106133 -0.0059888 -2.23336e-19)
(0.189941 -0.0113856 -3.90464e-19)
(0.296443 -0.0156119 -1.9495e-19)
(0.42334 -0.0176242 -5.65144e-19)
(0.566007 -0.0167839 1.97492e-19)
(0.717038 -0.0130583 -9.36073e-19)
(0.866735 -0.00709039 -1.84294e-19)
(1.00472 -0.00017494 -6.82962e-19)
(1.12233 0.00658547 4.91008e-19)
(1.21404 0.0109415 3.87205e-19)
(1.27963 0.0156535 1.26172e-21)
(1.31782 0.0101498 9.17338e-19)
(-0.00284923 0.00243774 4.74803e-20)
(0.015306 -0.000268806 3.89017e-19)
(0.0587691 -0.00466993 5.73271e-19)
(0.126943 -0.0101439 7.54981e-20)
(0.219618 -0.0149771 -2.82941e-19)
(0.335442 -0.0178112 2.5104e-19)
(0.471113 -0.0177046 2.63964e-20)
(0.620638 -0.0142534 -2.7069e-19)
(0.775179 -0.00778923 -2.26258e-19)
(0.924078 0.000631204 -2.2603e-19)
(1.05696 0.00940643 5.7203e-19)
(1.16617 0.0172572 3.71469e-19)
(1.24791 0.0221757 -4.45108e-19)
(1.30344 0.0266113 3.26976e-19)
(1.33366 0.0215772 3.10706e-20)
(-0.000908884 0.00135004 1.21727e-19)
(0.0226896 -0.00308601 -8.47658e-19)
(0.0731798 -0.0083095 -5.96284e-19)
(0.149699 -0.0137853 -3.42014e-20)
(0.251622 -0.0177512 1.31517e-19)
(0.37683 -0.0188847 3.33122e-19)
(0.520837 -0.0164057 -1.16794e-19)
(0.676181 -0.0102182 2.22534e-19)
(0.832684 -0.00107342 5.47504e-19)
(0.979056 0.0095585 1.95621e-19)
(1.10537 0.0198334 2.05046e-19)
(1.20534 0.0283957 -9.14546e-20)
(1.27699 0.0335314 -2.33835e-19)
(1.32297 0.0374994 -7.54387e-19)
(1.34591 0.0326879 -4.08316e-20)
(0.00133014 0.000249367 -4.51684e-19)
(0.0309592 -0.00582221 9.24934e-19)
(0.0890545 -0.011654 -1.72444e-19)
(0.174416 -0.0168477 -5.49034e-20)
(0.285875 -0.0196261 -1.89286e-19)
(0.420375 -0.0187522 -3.62689e-19)
(0.572086 -0.0136778 2.52518e-19)
(0.732032 -0.00468853 -4.60297e-19)
(0.88888 0.0070061 -1.84106e-19)
(1.0311 0.0195525 -1.32315e-19)
(1.14965 0.0309475 -4.19492e-19)
(1.23986 0.0398594 8.93117e-20)
(1.30157 0.0449108 2.8927e-19)
(1.33869 0.0482575 4.38044e-20)
(1.3551 0.0434757 -5.93157e-19)
(0.0038954 -0.000856913 1.18349e-19)
(0.0401671 -0.00844924 6.01286e-20)
(0.106435 -0.0146524 1.13603e-18)
(0.201082 -0.019259 5.02342e-19)
(0.322259 -0.0205192 2.19843e-19)
(0.465798 -0.0173426 3.7686e-20)
(0.624393 -0.00949157 -6.64316e-19)
(0.787588 0.00229818 7.50933e-19)
(0.94316 0.0163442 4.18058e-20)
(1.07978 0.0304668 1.70952e-19)
(1.18964 0.0426001 -1.55931e-19)
(1.26988 0.0515287 -4.76591e-19)
(1.32203 0.0562423 -7.01991e-19)
(1.35107 0.0588507 9.18208e-19)
(1.36174 0.0539547 1.26119e-19)
(0.00681201 -0.00195749 -7.69958e-21)
(0.0503573 -0.0109306 -4.41082e-19)
(0.125347 -0.0172445 -4.26024e-19)
(0.229661 -0.0209407 -3.56016e-19)
(0.360617 -0.0203481 2.42855e-19)
(0.512776 -0.0145956 -1.49935e-19)
(0.677267 -0.0038386 4.83019e-19)
(0.842264 0.0106812 -3.78329e-19)
(0.995 0.026821 1.34398e-19)
(1.12476 0.0421559 -2.81013e-19)
(1.22532 0.0546579 6.08282e-20)
(1.29561 0.0633071 -1.99085e-19)
(1.33876 0.0674771 1.90609e-19)
(1.36055 0.0692642 -5.25355e-19)
(1.36626 0.0641526 -1.87463e-19)
(0.0101023 -0.00303733 -6.27576e-19)
(0.0615649 -0.0132217 5.59634e-19)
(0.145799 -0.0193616 -6.98086e-20)
(0.260083 -0.0218088 2.5195e-19)
(0.400755 -0.0190329 -3.9942e-19)
(0.560951 -0.0104634 3.55593e-19)
(0.730207 0.00326912 -4.07966e-19)
(0.89552 0.0203803 -2.41514e-19)
(1.04397 0.0383086 7.41478e-20)
(1.16588 0.0544814 -2.1677e-19)
(1.25676 0.0670054 -3.14038e-19)
(1.31737 0.0751206 8.71984e-19)
(1.35218 0.0785866 -1.0632e-19)
(1.36755 0.0794988 5.59429e-19)
(1.36904 0.0741035 -1.27833e-19)
(0.0137852 -0.00407802 1.17963e-19)
(0.0738142 -0.0152709 -9.16213e-20)
(0.167778 -0.0209277 -5.55812e-19)
(0.292253 -0.0217763 -8.06036e-20)
(0.442443 -0.0164983 6.89769e-19)
(0.609938 -0.00491265 -4.83797e-19)
(0.782718 0.0118 7.14095e-19)
(0.946872 0.0313009 -3.63182e-19)
(1.08975 0.0506773 4.48428e-19)
(1.20303 0.0673161 3.41958e-19)
(1.28413 0.0795469 -2.2048e-19)
(1.33549 0.0869159 -3.36565e-19)
(1.36269 0.0895581 3.75749e-19)
(1.37247 0.089566 -4.10741e-19)
(1.37041 0.0838445 -2.15854e-19)
(0.0178766 -0.0050581 4.28545e-19)
(0.0871185 -0.0170203 -6.99187e-20)
(0.191251 -0.0218611 3.00593e-19)
(0.326046 -0.0207551 -3.66945e-19)
(0.485418 -0.0126769 -8.42749e-19)
(0.659336 0.00207375 1.24754e-19)
(0.834327 0.0217044 -1.95612e-19)
(0.995907 0.0433379 6.54133e-19)
(1.1321 0.0638003 -2.13381e-19)
(1.23625 0.0805469 7.09686e-21)
(1.30766 0.0922053 2.94615e-19)
(1.35032 0.0986571 2.39397e-19)
(1.37068 0.100391 -5.69881e-19)
(1.37563 0.0994839 3.35489e-19)
(1.37062 0.093412 3.89051e-19)
(0.0223882 -0.00595351 -1.85378e-19)
(0.101479 -0.0184071 -9.18543e-20)
(0.216167 -0.0220768 -2.83335e-19)
(0.361305 -0.0186596 1.89063e-19)
(0.529393 -0.00751161 3.86509e-19)
(0.708736 0.0104959 -3.88559e-20)
(0.884595 0.032917 3.59595e-19)
(1.04229 0.0563808 -3.71074e-19)
(1.1709 0.0775576 3.94293e-19)
(1.26561 0.0940763 -4.17835e-19)
(1.32761 0.104921 4.59323e-19)
(1.36221 0.110323 -4.32508e-19)
(1.37649 0.111093 -1.4593e-19)
(1.37731 0.109274 1.55735e-19)
(1.36989 0.10284 5.11413e-20)
(0.0273279 -0.00673804 1.39974e-19)
(0.116882 -0.0193648 -1.62901e-20)
(0.242449 -0.0214884 -3.67653e-19)
(0.39785 -0.0154088 2.80448e-19)
(0.574057 -0.000958397 1.13829e-19)
(0.757737 0.0203368 1.11632e-19)
(0.933126 0.04536 -1.16415e-19)
(1.08574 0.0703174 -8.13105e-20)
(1.20608 0.091839 -6.81778e-19)
(1.29128 0.107822 4.18013e-19)
(1.34427 0.117651 -2.68282e-19)
(1.3715 0.121905 -5.58041e-20)
(1.38044 0.121678 8.90325e-19)
(1.37778 0.11896 -6.89941e-19)
(1.36839 0.112157 -4.7687e-19)
(0.032699 -0.00738373 -2.48001e-20)
(0.133304 -0.0198248 2.10091e-19)
(0.269999 -0.020011 3.49579e-19)
(0.435475 -0.01093 -4.58669e-20)
(0.619086 0.00701194 -2.58464e-19)
(0.805947 0.0315629 2.66172e-19)
(0.979576 0.0589454 -2.71898e-19)
(1.1261 0.0850371 -1.52497e-19)
(1.23767 0.106545 4.49431e-19)
(1.31344 0.121717 3.12837e-19)
(1.35794 0.130364 5.42951e-20)
(1.3785 0.1334 2.25038e-19)
(1.38279 0.132161 -4.63532e-19)
(1.37722 0.128562 2.99415e-19)
(1.36625 0.12139 5.37703e-19)
(0.0385002 -0.00786138 -8.46305e-20)
(0.150704 -0.019718 -5.76234e-19)
(0.298701 -0.0175631 -3.65407e-19)
(0.47395 -0.00516048 -3.67213e-19)
(0.664148 0.0164126 -2.47147e-19)
(0.853 0.0441255 1.27927e-19)
(1.02366 0.0735791 4.73024e-19)
(1.16322 0.100434 -1.57397e-19)
(1.26574 0.121587 2.70834e-19)
(1.33231 0.135707 -4.66307e-20)
(1.3689 0.143041 7.1093e-20)
(1.38349 0.144815 -1.25173e-19)
(1.38378 0.142562 4.81579e-20)
(1.37579 0.1381 -7.06924e-20)
(1.36357 0.130557 -1.94363e-19)
(0.0447253 -0.00814098 1.35966e-19)
(0.16903 -0.0189756 6.07445e-19)
(0.328415 -0.0140688 -1.24955e-19)
(0.51303 0.00194992 2.95615e-19)
(0.708912 0.0272404 5.89715e-20)
(0.898562 0.0579628 4.36777e-20)
(1.06513 0.0891629 -2.27154e-19)
(1.19706 0.116407 2.63083e-19)
(1.29041 0.13689 -3.90203e-19)
(1.34814 0.14975 -2.07978e-19)
(1.37743 0.15567 -7.04961e-20)
(1.38673 0.156156 -5.03746e-20)
(1.38361 0.152894 -1.86822e-19)
(1.37363 0.14759 -2.61794e-20)
(1.36041 0.139675 9.25123e-20)
(0.0513628 -0.00819221 -4.28123e-20)
(0.188212 -0.0175315 2.64748e-20)
(0.358985 -0.00946008 3.45383e-19)
(0.552458 0.0104374 3.34439e-19)
(0.753055 0.0394758 1.39602e-19)
(0.942332 0.0730018 -2.435e-19)
(1.10383 0.105598 7.8913e-20)
(1.22761 0.132863 2.07319e-19)
(1.31182 0.152387 -3.0908e-20)
(1.36115 0.163813 3.90207e-20)
(1.38379 0.168244 8.08722e-20)
(1.38845 0.167433 2.2664e-20)
(1.38243 0.163174 -1.82571e-19)
(1.37084 0.157045 -6.89341e-21)
(1.35684 0.148754 2.06365e-19)
(0.0583959 -0.00798492 2.78525e-20)
(0.208171 -0.015323 -1.15516e-19)
(0.390237 -0.00367824 -1.96452e-19)
(0.591967 0.0203234 -3.94775e-19)
(0.796265 0.0530841 -4.2411e-20)
(0.984049 0.0891608 1.90668e-19)
(1.13963 0.122784 -9.85648e-20)
(1.25492 0.149717 -2.55345e-19)
(1.33014 0.168023 -2.35993e-19)
(1.37158 0.177872 1.10551e-19)
(1.38822 0.180763 -6.09865e-20)
(1.38882 0.178655 -2.90294e-19)
(1.38037 0.173412 2.8303e-19)
(1.36749 0.166475 2.86212e-19)
(1.35289 0.1578 -1.40885e-19)
(0.0658024 -0.00748968 1.21512e-20)
(0.228811 -0.0122923 -2.25439e-19)
(0.421986 0.00332436 9.84191e-20)
(0.631287 0.0316135 1.8737e-19)
(0.838252 0.0680163 3.74698e-20)
(1.02349 0.106352 -8.95324e-21)
(1.17245 0.140627 1.14476e-19)
(1.27905 0.166891 9.0935e-20)
(1.34556 0.183752 1.25494e-20)
(1.37966 0.191908 -7.87026e-20)
(1.39091 0.193226 1.10621e-20)
(1.38802 0.189831 1.10651e-19)
(1.37756 0.183617 -1.04304e-19)
(1.36363 0.175884 -7.89195e-20)
(1.34858 0.166815 -1.28692e-19)
(0.0735547 -0.00667827 1.53266e-19)
(0.250028 -0.00838787 2.11085e-20)
(0.454034 0.0115833 2.00741e-20)
(0.670151 0.0442982 -5.16334e-20)
(0.878747 0.084211 -2.09803e-19)
(1.06049 0.124481 3.88543e-20)
(1.20224 0.159032 -4.05477e-20)
(1.3001 0.184314 1.03561e-19)
(1.35826 0.199531 2.46938e-19)
(1.3856 0.205907 -2.24237e-22)
(1.39206 0.205634 9.37838e-20)
(1.38618 0.200967 -1.48139e-20)
(1.37405 0.193793 4.06143e-20)