/*--------------------------------*- C++ -*----------------------------------*\
  =========                 |
  \\      /  F ield         | OpenFOAM: The Open Source CFD Toolbox
   \\    /   O peration     | Website:  https://openfoam.org
    \\  /    A nd           | Version:  7
     \\/     M anipulation  |
\*---------------------------------------------------------------------------*/
FoamFile
{
    version     2.0;
    format      ascii;
    class       volVectorField;
    location    "160";
    object      U;
}
// * * * * * * * * * * * * * * * * * * * * * * * * * * * * * * * * * * * * * //

dimensions      [0 1 -1 0 0 0 0];

internalField   nonuniform List<vector> 
4575
(
(0.0303257 -0.00554766 1.96615e-20)
(0.109005 -0.0133222 1.9788e-20)
(0.206786 -0.0124132 7.28337e-20)
(0.0338552 -0.00557954 2.30086e-20)
(0.119366 -0.0127438 8.07557e-20)
(0.22372 -0.0104388 6.26985e-20)
(0.343828 -0.00112532 1.7266e-20)
(0.475663 0.0147261 1.58229e-19)
(0.0375602 -0.00550577 -1.04139e-19)
(0.130127 -0.0118479 -3.6238e-20)
(0.241141 -0.00795246 -1.16363e-19)
(0.367213 0.00340619 -6.27915e-20)
(0.503873 0.021521 -3.19493e-20)
(0.645238 0.0450478 -9.84299e-20)
(0.78453 0.0720598 -6.04517e-20)
(0.914926 0.100337 1.06433e-19)
(0.0414347 -0.00531619 3.42776e-20)
(0.141262 -0.0106117 -5.4841e-20)
(0.258999 -0.00492753 9.10394e-20)
(0.390944 0.00863031 4.18283e-20)
(0.532182 0.0290971 -5.87588e-20)
(0.676395 0.0548452 7.08618e-20)
(0.816512 0.0836806 1.74004e-20)
(0.945677 0.113188 -3.0794e-20)
(1.05826 0.141044 3.63614e-20)
(1.15068 0.165359 -2.7845e-20)
(1.2217 0.184913 -7.71285e-20)
(1.2723 0.199223 -7.4616e-21)
(0.0454713 -0.00500085 -1.70147e-20)
(0.152744 -0.00901335 8.88064e-21)
(0.277237 -0.00134003 -8.27456e-20)
(0.414934 0.0145647 5.21614e-20)
(0.560475 0.0374585 4.78431e-20)
(0.707136 0.0654191 -6.6954e-20)
(0.847616 0.0959891 3.02346e-20)
(0.975105 0.126579 -5.77895e-20)
(1.08432 0.154814 -8.07703e-20)
(1.17224 0.178874 2.86563e-20)
(1.2383 0.197696 5.18173e-21)
(1.28403 0.210991 4.30791e-20)
(1.31247 0.21911 6.59777e-20)
(1.3273 0.22282 -3.1558e-21)
(1.33224 0.223069 1.09479e-20)
(0.0496614 -0.0045501 -1.89779e-20)
(0.164539 -0.00703251 -2.28146e-20)
(0.295795 0.00283126 8.73669e-20)
(0.439091 0.0212229 -1.06986e-20)
(0.588636 0.0466043 4.96079e-22)
(0.737334 0.076751 -4.53e-20)
(0.877724 0.108951 -7.92496e-21)
(1.00312 0.140467 3.09978e-20)
(1.10867 0.168905 1.04018e-19)
(1.19196 0.192548 -3.28042e-20)
(1.25307 0.210511 5.49814e-21)
(1.29411 0.222711 1.7224e-20)
(1.31849 0.229675 -3.30286e-20)
(1.3301 0.232301 -2.09062e-20)
(1.33266 0.231609 5.51695e-21)
(1.32933 0.228567 2.7031e-20)
(1.32254 0.223977 -6.65017e-21)
(1.31394 0.218462 -4.03492e-22)
(1.30451 0.212434 2.31832e-20)
(0.0539945 -0.00395468 3.30437e-20)
(0.176611 -0.00465046 6.36481e-20)
(0.314606 0.00760438 4.2997e-20)
(0.463324 0.0286139 -2.3173e-20)
(0.616551 0.0565283 8.42415e-20)
(0.76687 0.0888177 4.89461e-20)
(0.906728 0.12253 -7.20536e-20)
(1.02966 0.154806 -2.46942e-20)
(1.13129 0.183272 3.4438e-22)
(1.20986 0.206344 -1.98576e-20)
(1.26609 0.223335 -5.63514e-20)
(1.30263 0.23437 9.22023e-21)
(1.32321 0.240152 9.42259e-23)
(1.33186 0.241694 -5.60541e-20)
(1.33229 0.240076 2.5265e-20)
(1.32754 0.236277 -1.33924e-20)
(1.31986 0.231081 -5.81577e-20)
(1.31075 0.225081 2.77347e-20)
(1.30106 0.218634 -5.78039e-20)
(1.2912 0.211796 2.49072e-20)
(0.0584591 -0.00320585 -1.15924e-20)
(0.188923 -0.0018504 -2.73567e-20)
(0.333605 0.012994 -4.47808e-20)
(0.487536 0.036742 -2.12069e-21)
(0.644106 0.0672193 -4.05643e-21)
(0.795627 0.101591 -4.61791e-20)
(0.934532 0.136684 1.04844e-20)
(1.05465 0.169553 9.64343e-21)
(1.15216 0.197875 -1.96337e-20)
(1.22596 0.22023 1.57574e-21)
(1.27742 0.236147 2.96824e-20)
(1.30966 0.245961 -3.84453e-21)
(1.3267 0.25054 2.18274e-20)
(1.33266 0.251002 9.6109e-21)
(1.3312 0.248475 -5.19832e-20)
(1.32522 0.243937 3.92948e-21)
(1.31679 0.238151 3.08467e-20)
(1.30727 0.231674 -7.23802e-21)
(1.29737 0.224813 1.36137e-21)
(1.28742 0.217702 -4.82433e-21)
(0.0630423 -0.00229553 -1.05996e-20)
(0.201432 0.0013823 -9.69362e-21)
(0.352719 0.0190111 -1.68734e-20)
(0.511632 0.0456069 -1.09034e-20)
(0.671192 0.0786611 -2.7999e-20)
(0.823498 0.115041 3.1869e-20)
(0.961052 0.151373 6.20015e-20)
(1.07805 0.184661 2.12465e-20)
(1.17128 0.212673 1.06918e-20)
(1.24031 0.234176 -2.50629e-20)
(1.28713 0.248928 -2.63221e-22)
(1.3153 0.257473 1.5724e-20)
(1.32906 0.260837 -1.98709e-20)
(1.33259 0.260229 7.46722e-21)
(1.32945 0.25681 2.47418e-20)
(1.3224 0.251551 -8.42705e-21)
(1.31336 0.245187 -1.47151e-20)
(1.3035 0.23824 -1.34346e-20)
(1.29345 0.230968 4.71589e-20)
(1.28343 0.223582 1.6381e-20)
(0.0677298 -0.00121636 -1.88575e-20)
(0.214095 0.00505992 2.13926e-20)
(0.371877 0.0256629 -4.78172e-21)
(0.535515 0.0552034 1.47896e-20)
(0.6977 0.0908327 -1.30351e-20)
(0.850383 0.12913 -7.82308e-21)
(0.986213 0.166552 -3.00901e-20)
(1.09983 0.200086 3.44764e-21)
(1.18866 0.227626 8.21379e-21)
(1.25297 0.248153 1.81496e-20)
(1.2953 0.261661 -6.9748e-21)
(1.31963 0.268901 -5.36679e-21)
(1.33037 0.271044 4.86149e-21)
(1.3317 0.269378 -8.41367e-21)
(1.32709 0.265084 1.88617e-20)
(1.31913 0.259121 1.23442e-20)
(1.30958 0.25219 -2.08232e-21)
(1.29947 0.244777 -1.34527e-21)
(1.28931 0.237096 -1.27206e-20)
(1.27925 0.22943 -1.57691e-20)
(0.0725061 3.8197e-05 4.06051e-21)
(0.226865 0.0091922 -6.6717e-21)
(0.391003 0.0329526 4.4776e-21)
(0.559091 0.0655216 -6.03826e-21)
(0.723529 0.103709 -2.27266e-20)
(0.876192 0.14382 1.03328e-20)
(1.00995 0.182176 4.96105e-21)
(1.11997 0.215784 -2.30835e-20)
(1.20432 0.242699 -1.42967e-20)
(1.26397 0.262135 -1.34108e-21)
(1.302 0.274331 -1.92432e-20)
(1.32272 0.280237 1.95579e-20)
(1.3307 0.281159 -3.78482e-23)
(1.33007 0.278448 -2.52382e-21)
(1.32417 0.273299 -4.78464e-21)
(1.31544 0.266646 2.30768e-21)
(1.30547 0.259159 1.58996e-21)
(1.29517 0.251283 -6.14747e-22)
(1.28494 0.243193 -4.65915e-21)
(1.27487 0.235243 5.63635e-21)
(0.077355 0.00147373 1.35391e-21)
(0.239695 0.0137861 4.39242e-21)
(0.410022 0.0408793 2.40274e-21)
(0.582264 0.0765469 -1.09634e-21)
(0.748582 0.117259 1.49936e-20)
(0.90084 0.15907 -3.28783e-21)
(1.03222 0.198197 5.12872e-21)
(1.13844 0.23171 1.11407e-20)
(1.21829 0.257854 -1.97313e-21)
(1.27337 0.276097 4.84647e-22)
(1.3073 0.286922 5.28244e-21)
(1.32466 0.291475 -2.76979e-21)
(1.33011 0.29118 3.54191e-21)
(1.32773 0.287441 6.31272e-22)
(1.32072 0.281453 -6.49632e-21)
(1.31135 0.274125 3.13864e-22)
(1.30105 0.266089 8.18216e-21)
(1.29061 0.257752 -1.68244e-21)
(1.28035 0.249254 2.46061e-21)
(1.27029 0.241014 -2.73666e-21)
(0.0822591 0.00309485 5.53911e-22)
(0.252535 0.0188459 6.46445e-21)
(0.42886 0.0494379 3.42631e-21)
(0.604945 0.0882601 -6.84711e-22)
(0.772765 0.13145 1.3806e-20)
(0.924255 0.174836 -3.82727e-21)
(1.05297 0.214569 7.03148e-21)
(1.15525 0.247822 9.27856e-21)
(1.23059 0.273059 -1.88295e-21)
(1.28124 0.290015 4.15412e-22)
(1.31127 0.299423 5.98017e-21)
(1.32551 0.302609 -2.37447e-21)
(1.32867 0.301106 2.30508e-21)
(1.32474 0.296356 -5.60203e-22)
(1.31677 0.289547 -5.28753e-21)
(1.30687 0.281555 -1.52563e-22)
(1.29632 0.272976 8.11437e-21)
(1.28579 0.264179 -1.56906e-21)
(1.27554 0.255272 2.90279e-21)
(1.26551 0.246738 -3.08479e-21)
(0.0872005 0.00490512 4.82563e-21)
(0.265335 0.0243729 -8.29999e-21)
(0.44744 0.0586196 4.14168e-21)
(0.627045 0.100638 -3.27468e-21)
(0.795996 0.146245 -2.1858e-20)
(0.946371 0.191072 8.70888e-21)
(1.07217 0.231244 3.90509e-21)
(1.1704 0.264076 -2.61754e-20)
(1.24126 0.288279 -1.07837e-20)
(1.28763 0.303869 -9.03997e-24)
(1.31397 0.31182 -1.61082e-20)
(1.32533 0.313633 1.32265e-20)
(1.32642 0.310933 -2.92634e-21)
(1.32114 0.30519 1.81229e-21)
(1.31236 0.297576 -6.94543e-21)
(1.30203 0.288932 5.19069e-21)
(1.2913 0.279815 3.26831e-21)
(1.28073 0.270558 -5.67906e-22)
(1.27051 0.261241 -6.24981e-21)
(1.26053 0.252408 5.65785e-21)
(0.0921598 0.00690693 -1.04223e-20)
(0.278044 0.0303653 -4.46251e-21)
(0.465689 0.0684109 -6.37783e-21)
(0.648479 0.113652 2.14411e-20)
(0.818194 0.161602 1.02848e-22)
(0.967131 0.207729 -1.09415e-20)
(1.0898 0.248174 -4.37081e-20)
(1.1839 0.280431 4.19467e-21)
(1.25035 0.303485 4.76769e-21)
(1.29259 0.317636 2.07535e-20)
(1.31548 0.324101 3.04947e-21)
(1.32419 0.32454 -1.69036e-20)
(1.32343 0.320657 1.56339e-20)
(1.31696 0.313939 -6.20338e-21)
(1.3075 0.305535 2.30512e-20)
(1.29683 0.296249 -2.06696e-21)
(1.28598 0.286598 1.16324e-21)
(1.27541 0.276881 9.80183e-22)
(1.26526 0.267153 -1.66419e-20)
(1.25534 0.258016 -9.93236e-21)
(0.0971175 0.00910146 -3.92177e-21)
(0.290611 0.0368183 -2.14184e-20)
(0.483532 0.0787947 1.65662e-20)
(0.669165 0.127271 -2.06094e-20)
(0.839288 0.177478 -3.62779e-20)
(0.986488 0.224757 3.10269e-20)
(1.10585 0.265311 5.00629e-20)
(1.19577 0.296847 1.75581e-20)
(1.25789 0.318644 1.1956e-20)
(1.29619 0.331297 -3.36287e-20)
(1.31584 0.336254 2.52774e-20)
(1.32214 0.335322 2.87838e-21)
(1.31972 0.330272 -3.08372e-20)
(1.31223 0.322598 1.18227e-20)
(1.30221 0.313419 4.13524e-20)
(1.29129 0.303499 -2.79117e-20)
(1.28037 0.293318 -7.84588e-21)
(1.26985 0.283139 -7.45789e-21)
(1.25979 0.273 3.38944e-20)
(1.24995 0.263555 1.92111e-20)
(0.102054 0.0114887 2.72151e-20)
(0.302983 0.043724 -4.33838e-20)
(0.5009 0.0897497 -6.18546e-20)
(0.689028 0.141459 2.73173e-21)
(0.859213 0.193827 -1.06613e-20)
(1.0044 0.242107 -4.25763e-20)
(1.12029 0.282607 -7.05626e-21)
(1.20604 0.313284 2.09548e-20)
(1.26394 0.333729 -3.30667e-20)
(1.29848 0.344832 2.65443e-20)
(1.31512 0.348265 3.02336e-20)
(1.31922 0.345971 -1.86834e-20)
(1.31535 0.339773 7.49977e-21)
(1.30698 0.331161 3.73145e-20)
(1.29651 0.32122 -4.89755e-20)
(1.28541 0.310674 8.43313e-21)
(1.27448 0.299966 2.25473e-20)
(1.26403 0.289325 -6.72646e-21)
(1.25409 0.278772 -7.01736e-21)
(1.24436 0.269016 -1.17264e-21)
(0.106949 0.0140673 4.00545e-20)
(0.315112 0.0510716 6.98434e-20)
(0.517723 0.101251 3.63365e-20)
(0.707997 0.156177 -4.22732e-20)
(0.877911 0.210599 1.08038e-19)
(1.02084 0.259727 1.62981e-20)
(1.13315 0.300015 -4.40473e-20)
(1.21472 0.329702 -3.11106e-20)
(1.26853 0.348709 -2.43948e-20)
(1.29952 0.358221 7.96429e-21)
(1.31337 0.360123 -2.64677e-20)
(1.31549 0.356479 8.55567e-22)
(1.31034 0.349152 -1.73003e-20)
(1.30124 0.339619 -2.32116e-20)
(1.29041 0.328931 -3.88862e-21)
(1.2792 0.317766 -2.37014e-21)
(1.26831 0.306532 -4.17065e-20)
(1.25797 0.295429 3.10069e-20)
(1.24816 0.284461 -4.63487e-20)
(1.23856 0.274391 -2.68241e-20)
(0.111782 0.0168348 -4.85637e-20)
(0.326946 0.0588472 -1.87434e-20)
(0.533936 0.11327 8.15396e-20)
(0.726006 0.171384 2.0309e-20)
(0.895332 0.227744 -6.79433e-20)
(1.03578 0.277564 -3.85478e-20)
(1.14441 0.317487 -1.25319e-20)
(1.22186 0.346065 7.96449e-20)
(1.27172 0.363559 5.58123e-20)
(1.29935 0.371446 -1.87702e-20)
(1.31064 0.371815 -1.0712e-20)
(1.31098 0.366835 2.6463e-20)
(1.30472 0.3584 -2.83462e-20)
(1.29502 0.347966 1.29072e-20)
(1.28393 0.336542 5.53264e-21)
(1.27267 0.324764 -6.81082e-21)
(1.26185 0.313007 5.07987e-20)
(1.25165 0.301441 -2.10679e-20)
(1.24201 0.290055 4.18193e-20)
(1.23256 0.279671 -1.46646e-20)
(0.116533 0.0197874 -2.72358e-20)
(0.338437 0.0670341 -4.71778e-20)
(0.549477 0.125776 -7.32382e-20)
(0.742995 0.187033 4.32606e-20)
(0.911433 0.24521 2.32276e-20)
(1.0492 0.295565 -3.23922e-20)
(1.15409 0.334978 5.28685e-20)
(1.22748 0.362335 -7.98864e-20)
(1.27355 0.37825 -8.32536e-20)
(1.29804 0.384487 4.92758e-20)
(1.30698 0.383327 1.80694e-20)
(1.30574 0.37703 -1.97357e-20)
(1.29853 0.367508 2.93533e-20)
(1.28833 0.356189 2.26748e-20)
(1.27706 0.344041 -1.63052e-20)
(1.26581 0.331657 -5.47236e-21)
(1.25511 0.31938 -3.87871e-20)
(1.24508 0.30735 7.82966e-21)
(1.23563 0.295546 -3.20522e-20)
(1.22635 0.284846 -5.22345e-21)
(0.121181 0.0229199 2.26515e-20)
(0.349538 0.0756128 -3.69399e-20)
(0.564286 0.138732 6.60629e-20)
(0.758909 0.203078 1.09337e-19)
(0.926177 0.262942 -1.53901e-19)
(1.0611 0.313679 1.32683e-19)
(1.16221 0.35244 3.48404e-20)
(1.23162 0.378476 -4.95232e-20)
(1.27407 0.392755 5.74407e-20)
(1.29563 0.397326 3.32689e-20)
(1.30244 0.394645 4.04612e-20)
(1.29979 0.387052 -6.88356e-20)
(1.29177 0.376464 -1.3962e-20)
(1.2812 0.36428 3.28236e-20)
(1.26982 0.351419 1.2293e-20)
(1.25864 0.338435 5.57779e-20)
(1.24809 0.325639 6.88662e-20)
(1.23826 0.313145 -1.6674e-20)
(1.22903 0.30092 2.85768e-20)
(1.21994 0.289906 3.18864e-20)
(0.125709 0.0262261 -6.50081e-21)
(0.360205 0.0845611 -8.56805e-20)
(0.57831 0.152101 -1.15343e-19)
(0.773699 0.219468 -1.47386e-19)
(0.939534 0.280886 -1.39633e-20)
(1.07147 0.331852 5.18118e-20)
(1.16879 0.369829 -9.75978e-21)
(1.23432 0.394452 1.67607e-20)
(1.27332 0.40705 -2.536e-20)
(1.29216 0.409944 4.16169e-20)
(1.29704 0.405755 -6.22889e-20)
(1.29317 0.396888 7.97298e-20)
(1.28449 0.385258 4.49512e-20)
(1.27363 0.372225 2.01345e-20)
(1.26222 0.358663 -2.9511e-20)
(1.25114 0.345085 -3.09324e-20)
(1.24078 0.331773 -2.89864e-20)
(1.23118 0.318816 2.08783e-21)
(1.22219 0.306165 3.72227e-20)
(1.21333 0.294841 -3.88132e-20)
(0.130095 0.0296985 -1.15558e-20)
(0.370393 0.0938543 6.69014e-20)
(0.591497 0.165843 8.22388e-20)
(0.787323 0.236153 -1.25431e-20)
(0.951481 0.298986 3.68786e-20)
(1.0803 0.350032 9.64429e-21)
(1.17385 0.3871 -5.1495e-20)
(1.23562 0.410228 4.00079e-20)
(1.27137 0.421108 3.66997e-20)
(1.28769 0.422323 -6.26471e-20)
(1.29083 0.416643 9.88577e-20)
(1.28591 0.406526 -8.08383e-20)
(1.27669 0.393877 4.57801e-20)
(1.26564 0.380013 -6.55338e-20)
(1.25426 0.365762 9.4775e-20)
(1.24334 0.351595 -5.88956e-20)
(1.2332 0.337771 -1.6949e-20)
(1.22385 0.32435 -2.24383e-20)
(1.21513 0.311266 -4.65987e-20)
(1.20651 0.299641 7.01905e-22)
(0.134321 0.0333283 8.36198e-20)
(0.380063 0.103465 8.34238e-20)
(0.603802 0.179915 -1.17811e-19)
(0.799744 0.253078 -7.01283e-20)
(0.962 0.317186 1.01928e-19)
(1.08761 0.368167 -3.98104e-20)
(1.17742 0.40421 5.69671e-20)
(1.23556 0.425771 2.40366e-20)
(1.26824 0.434903 -5.48212e-20)
(1.28226 0.434442 -1.3332e-19)
(1.28385 0.427292 -2.33437e-20)
(1.27803 0.415952 -4.79985e-20)
(1.26839 0.402307 -6.99819e-20)
(1.25724 0.38763 5.57468e-21)
(1.24595 0.372701 -6.96083e-21)
(1.23522 0.357953 -6.64123e-21)
(1.22533 0.343622 5.29822e-20)
(1.21625 0.329737 3.75881e-20)
(1.20783 0.316215 4.04141e-21)
(1.19943 0.3043 2.13619e-20)
(0.138369 0.037106 -2.01381e-20)
(0.389176 0.113365 1.47657e-19)
(0.615182 0.194271 5.63246e-20)
(0.81093 0.27019 1.11939e-19)
(0.971082 0.33543 3.55923e-20)
(1.09342 0.386204 1.32371e-20)
(1.17953 0.421115 -8.3014e-20)
(1.23418 0.441047 -2.62555e-20)
(1.26398 0.448411 1.27342e-20)
(1.2759 0.446282 9.90676e-20)
(1.27613 0.437687 -3.1831e-20)
(1.26956 0.425152 3.86455e-20)
(1.25961 0.410535 8.02884e-20)
(1.24843 0.395063 1.798e-20)
(1.23729 0.379467 -1.54108e-20)
(1.2268 0.364147 2.04179e-20)
(1.21719 0.349314 3.82239e-20)
(1.20842 0.334972 1.72204e-20)
(1.20029 0.321025 4.317e-20)
(1.19204 0.308808 3.25965e-20)
(0.142223 0.0410205 -5.24195e-20)
(0.397697 0.123522 -7.57846e-20)
(0.625601 0.208865 4.70651e-20)
(0.820857 0.287432 1.54411e-20)
(0.978721 0.353661 3.01332e-20)
(1.09772 0.404093 -1.20693e-19)
(1.18021 0.437774 4.29458e-20)
(1.23153 0.456024 -9.07274e-20)
(1.25865 0.461606 -4.93501e-20)
(1.26865 0.457824 5.6477e-20)
(1.2677 0.447811 -5.93142e-21)
(1.26052 0.434109 3.59015e-21)
(1.25036 0.418546 -9.76964e-20)
(1.23924 0.402296 -3.87417e-20)
(1.22829 0.386046 3.14921e-20)
(1.21807 0.370163 -5.4059e-20)
(1.20877 0.354835 -2.85356e-20)
(1.20033 0.340043 -2.82297e-20)
(1.19255 0.325726 -4.86027e-20)
(1.18443 0.313155 -1.1074e-19)
(0.145865 0.0450601 3.06109e-20)
(0.405594 0.133904 -3.56153e-20)
(0.635025 0.223648 -1.90322e-19)
(0.829505 0.304748 1.00517e-19)
(0.984916 0.371823 -1.22603e-19)
(1.10056 0.421785 -1.69973e-20)
(1.1795 0.454144 -1.61602e-19)
(1.22765 0.470668 1.68781e-19)
(1.25228 0.474464 9.44997e-20)
(1.26056 0.469049 -5.54981e-21)
(1.25859 0.457647 3.25299e-20)
(1.25093 0.442809 -4.03106e-20)
(1.24066 0.426324 -3.2041e-21)
(1.22966 0.409316 1.80778e-20)
(1.21895 0.392425 -1.84396e-20)
(1.20904 0.375986 3.41489e-20)
(1.20008 0.360167 -4.47652e-20)
(1.19201 0.344925 -3.92977e-20)
(1.18457 0.330274 2.19022e-20)
(1.17672 0.317367 2.94461e-20)
(0.149281 0.0492122 6.9695e-20)
(0.412837 0.144475 6.5703e-20)
(0.643428 0.23857 4.97459e-20)
(0.836859 0.322082 -1.37516e-21)
(0.989674 0.38986 -3.16632e-20)
(1.10194 0.439228 2.10771e-19)
(1.17743 0.470186 1.17295e-19)
(1.22257 0.484949 7.77577e-20)
(1.24491 0.486961 1.08477e-19)
(1.25166 0.479936 1.31247e-20)
(1.24882 0.467177 -8.71595e-20)
(1.24081 0.451235 -9.22014e-21)
(1.23053 0.433854 -1.83385e-20)
(1.21971 0.416106 -5.87273e-20)
(1.20929 0.398587 -2.16844e-20)
(1.19972 0.381603 -2.98994e-20)
(1.19112 0.365301 9.1917e-20)
(1.18344 0.349619 -1.23366e-21)
(1.17635 0.334626 2.51061e-20)
(1.16887 0.321406 1.99264e-20)
(0.152457 0.053463 -2.34057e-20)
(0.4194 0.1552 -3.80823e-20)
(0.650786 0.253582 -8.15295e-20)
(0.84291 0.339377 -1.3538e-20)
(0.993003 0.407717 -1.29922e-19)
(1.1019 0.456375 -9.16772e-20)
(1.17405 0.48586 2.97646e-20)
(1.21635 0.498837 -2.12714e-19)
(1.23658 0.499072 -1.13207e-19)
(1.24198 0.490465 2.69358e-20)
(1.23843 0.476385 -1.38017e-20)
(1.23018 0.459371 7.77271e-20)
(1.21997 0.44112 1.04177e-19)
(1.20939 0.422652 2.59061e-20)
(1.1993 0.404519 6.92294e-20)
(1.19011 0.387 -3.58051e-20)
(1.1819 0.370223 4.85475e-20)
(1.17463 0.354112 2.66718e-20)
(1.16793 0.338776 2.28406e-20)
(1.16083 0.325249 -4.32707e-20)
(0.155378 0.0577983 3.48898e-20)
(0.42526 0.166042 -3.79243e-21)
(0.657081 0.268631 -1.26057e-19)
(0.847656 0.356575 -1.87414e-22)
(0.994918 0.425338 2.92524e-19)
(1.10046 0.473179 5.73325e-20)
(1.16939 0.501128 4.25625e-20)
(1.20903 0.5123 1.232e-19)
(1.22734 0.510773 -9.77462e-20)
(1.23156 0.500616 -1.03169e-19)
(1.22744 0.485252 -1.11487e-21)
(1.21906 0.467199 -7.08318e-20)
(1.20899 0.448105 -3.87689e-20)
(1.19872 0.428937 1.02707e-19)
(1.189 0.410206 -2.65847e-20)
(1.18021 0.392162 1.76929e-21)
(1.17242 0.374919 -3.52239e-20)
(1.16558 0.358388 -5.2866e-20)
(1.1593 0.342715 3.25542e-21)
(1.1526 0.328889 4.93357e-20)
(0.158034 0.0622032 -1.68558e-19)
(0.430398 0.176963 9.8875e-20)
(0.6623 0.283666 2.16453e-19)
(0.851095 0.373621 6.66667e-20)
(0.995438 0.442671 -3.44183e-19)
(1.09767 0.489593 -1.39813e-19)
(1.1635 0.515953 -1.07468e-19)
(1.20065 0.525309 -3.84714e-20)
(1.21722 0.52204 1.28271e-19)
(1.22042 0.510369 1.35482e-20)
(1.21588 0.493759 -2.61814e-20)
(1.20747 0.474702 4.68953e-20)
(1.19762 0.454794 6.78294e-21)
(1.1877 0.434947 -1.22741e-19)
(1.17839 0.415632 3.64288e-20)
(1.17003 0.397076 4.77952e-20)
(1.16269 0.379377 2.26771e-20)
(1.1563 0.362436 3.03577e-20)
(1.15047 0.346432 -5.27908e-20)
(1.14418 0.332316 -2.56937e-20)
(0.160414 0.0666619 -1.15105e-20)
(0.434797 0.187924 4.98347e-20)
(0.666432 0.298634 2.44097e-20)
(0.853236 0.390458 7.1043e-20)
(0.994585 0.459663 1.92196e-19)
(1.09355 0.505572 -1.22936e-19)
(1.15641 0.530298 -7.33328e-21)
(1.19125 0.537835 1.1434e-19)
(1.20626 0.532851 -1.36657e-19)
(1.20861 0.519705 4.37916e-20)
(1.20376 0.501889 1.11197e-19)
(1.19543 0.481864 2.49878e-20)
(1.18587 0.461169 -5.3478e-20)
(1.17635 0.440664 8.85221e-20)
(1.16749 0.420783 -1.01735e-19)
(1.15958 0.401727 3.23489e-21)
(1.1527 0.383583 -2.31342e-20)
(1.14679 0.366242 4.02773e-20)
(1.14144 0.349918 3.5152e-20)
(0.162509 0.0711584 2.18315e-20)
(0.438445 0.198885 7.96227e-20)
(0.669474 0.313483 7.72756e-20)
(0.854087 0.407031 -4.83741e-20)
(0.992386 0.476261 4.21956e-21)
(1.08814 0.521073 1.14074e-19)
(1.14818 0.544127 1.98949e-19)
(1.18087 0.549852 -2.00137e-20)
(1.19451 0.543182 1.85265e-20)
(1.19616 0.528602 -5.46436e-20)
(1.19112 0.509623 -1.13921e-19)
(1.18295 0.488666 1.80813e-20)
(1.17375 0.467213 6.26493e-20)
(1.16467 0.446074 -1.25752e-20)
(1.15629 0.425644 -1.00995e-20)
(1.14886 0.406103 -3.99608e-20)
(1.14247 0.387526 -6.84964e-21)
(1.13706 0.369796 -1.53701e-20)
(0.16431 0.0756763 -7.51988e-20)
(0.441331 0.209806 -1.82437e-19)
(0.671425 0.328162 -2.66319e-19)
(0.853663 0.423285 4.55741e-21)
(0.988869 0.492417 -1.62122e-21)
(1.08149 0.536053 -1.0374e-19)
(1.13885 0.557408 5.49698e-20)
(1.16957 0.56133 -5.84771e-20)
(1.18199 0.55301 1.08838e-19)
(1.18308 0.537041 1.07409e-19)
(1.17798 0.516943 4.72182e-20)
(1.17005 0.495092 -1.22286e-20)
(1.16126 0.472911 1.72865e-20)
(1.15268 0.451161 -4.34901e-20)
(1.14481 0.4302 7.31243e-20)
(1.13789 0.41019 -3.23166e-20)
(0.165811 0.0801985 8.15786e-20)
(0.443448 0.220648 2.46242e-19)
(0.672288 0.342619 9.55409e-20)
(0.851983 0.439167 -1.85905e-20)
(0.984067 0.508081 -1.00312e-19)
(1.07363 0.550471 -2.13896e-20)
(1.12845 0.570106 -2.66626e-20)
(1.15737 0.572244 -8.3601e-21)
(1.16875 0.562314 -3.22367e-20)
(1.16942 0.545003 -1.04948e-19)
(1.16436 0.523831 -8.50125e-20)
(1.15675 0.501123 6.02313e-20)
(1.14844 0.478246 -8.3426e-20)
(1.14039 0.45591 -4.04703e-21)
(1.13305 0.434439 2.16921e-20)
(0.167008 0.0847081 7.89818e-21)
(0.444795 0.231371 1.57442e-20)
(0.672071 0.356804 2.18739e-19)
(0.849068 0.454625 -1.21321e-19)
(0.978015 0.523207 2.80899e-19)
(1.06461 0.564287 1.24652e-19)
(1.11704 0.58219 -1.66212e-19)
(1.14433 0.582567 -1.50452e-20)
(1.15482 0.571071 -1.28967e-19)
(1.15521 0.552469 -3.07711e-20)
(1.15028 0.530267 3.35369e-20)
(1.14307 0.506743 4.51509e-20)
(1.13529 0.483201 8.60525e-20)
(1.12781 0.460305 1.01883e-20)
(0.167895 0.0891878 6.50287e-20)
(0.44537 0.241935 -2.94449e-19)
(0.670785 0.370667 -6.50315e-20)
(0.844946 0.469609 -4.78953e-20)
(0.970751 0.537748 -1.76038e-19)
(1.05448 0.577465 -1.69578e-19)
(1.10467 0.59363 -5.16315e-20)
(1.13049 0.592276 -6.46619e-20)
(1.14023 0.579261 1.80611e-19)
(1.14046 0.559418 6.60808e-21)
(1.13577 0.536236 -1.1057e-19)
(1.12903 0.511934 -1.50599e-19)
(1.12182 0.487761 6.85068e-20)
(0.16847 0.0936204 5.15536e-21)
(0.445177 0.252302 4.3897e-20)
(0.668446 0.384159 -1.31777e-19)
(0.839643 0.48407 7.60121e-20)
(0.962316 0.551661 8.34341e-21)
(1.04327 0.589969 2.11752e-19)
(1.09138 0.604398 8.16614e-20)
(1.11588 0.601345 1.26609e-19)
(1.12503 0.586863 -8.1278e-20)
(1.12522 0.565832 1.43088e-19)
(1.12085 0.541719 9.29336e-20)
(1.11464 0.516682 1.91398e-20)
(0.168732 0.0979888 -1.31192e-19)
(0.44422 0.262431 2.98063e-19)
(0.665072 0.397232 1.54067e-19)
(0.833193 0.497959 5.59108e-20)
(0.952751 0.564903 -2.92636e-20)
(1.03105 0.601761 -1.75213e-19)
(1.07721 0.614466 2.55332e-20)
(1.10056 0.609753 -2.35489e-20)
(1.10925 0.593855 -8.42009e-20)
(1.10951 0.571694 -9.91223e-20)
(1.10555 0.546698 5.27581e-20)
(0.168683 0.102276 -2.75307e-20)
(0.442509 0.272287 -7.87158e-20)
(0.660684 0.409841 -1.77358e-19)
(0.82563 0.511233 -8.97373e-20)
(0.942106 0.577434 -1.03291e-19)
(1.01785 0.61281 8.94176e-20)
(1.0622 0.623805 -3.53263e-20)
(1.08456 0.617479 2.15921e-20)
(1.09293 0.600221 -1.31141e-20)
(1.09335 0.576986 -4.56018e-20)
(0.168322 0.106467 2.65033e-19)
(0.440054 0.281831 8.97075e-21)
(0.655308 0.421941 -7.7897e-20)
(0.816997 0.523846 7.30951e-20)
(0.930433 0.589225 -1.18109e-20)
(1.00371 0.623079 -3.27933e-20)
(1.04642 0.632389 -7.54928e-20)
(1.06792 0.624499 1.03727e-20)
(1.07609 0.605942 8.76329e-20)
(0.167653 0.110546 -5.91803e-20)
(0.436868 0.291029 6.4729e-20)
(0.648973 0.433486 1.76119e-20)
(0.807336 0.535754 1.54115e-19)
(0.91776 0.600234 -2.0481e-20)
(0.988692 0.632554 -9.52765e-20)
(1.02991 0.640193 1.68052e-19)
(1.0507 0.630793 5.4215e-21)
(0.166679 0.114497 -2.44631e-19)
(0.432966 0.299845 -7.2523e-21)
(0.641711 0.444436 1.46599e-19)
(0.796682 0.546922 -1.71726e-20)
(0.904128 0.610416 2.20473e-19)
(0.972859 0.6412 4.92517e-22)
(1.01272 0.647199 -1.77878e-19)
(0.165404 0.118306 1.46252e-19)
(0.428369 0.308247 -1.14822e-19)
(0.633557 0.454752 -1.71893e-19)
(0.78507 0.55731 -2.74433e-20)
(0.889606 0.619752 -1.45363e-19)
(0.956255 0.648986 6.41708e-20)
(0.163834 0.121959 -5.7042e-20)
(0.423097 0.3162 7.39187e-20)
(0.62454 0.464397 -2.14507e-20)
(0.772549 0.566882 -2.74466e-20)
(0.874253 0.628208 5.50869e-21)
(0.161973 0.125439 -9.01204e-20)
(0.417172 0.323675 -8.66929e-20)
(0.614694 0.47333 1.86086e-19)
(0.759179 0.575608 5.29918e-20)
(0.858115 0.635757 1.32159e-20)
(0.159821 0.128724 1.10891e-19)
(0.410629 0.330648 1.67007e-19)
(0.604065 0.481521 -4.29216e-20)
(0.745007 0.583455 -4.08057e-20)
(0.157388 0.131781 -7.48015e-20)
(0.403505 0.337085 -1.30575e-19)
(0.592696 0.488944 -6.08004e-20)
(0.154708 0.134602 7.45894e-20)
(0.395819 0.342943 1.32573e-19)
(0.580624 0.495572 5.5403e-20)
(0.151798 0.137195 -3.87235e-20)
(0.387588 0.348199 2.56812e-22)
(0.148656 0.139548 3.51967e-20)
(0.14529 0.141647 6.78344e-21)
(0.152911 -0.149177 -7.02605e-20)
(0.156343 -0.146858 1.19748e-20)
(0.159542 -0.144283 -7.9717e-20)
(0.408041 -0.3672 -1.56022e-19)
(0.162506 -0.141466 1.3898e-19)
(0.41649 -0.361428 9.62078e-20)
(0.611221 -0.52313 -2.20073e-20)
(0.165234 -0.138417 -9.26403e-20)
(0.424375 -0.355043 -2.42272e-19)
(0.623688 -0.515827 -9.32337e-20)
(0.167697 -0.135118 1.37491e-19)
(0.431683 -0.348073 2.00698e-19)
(0.635427 -0.507721 -1.74037e-20)
(0.783572 -0.615706 -4.28434e-20)
(0.169863 -0.131594 -1.59745e-19)
(0.43839 -0.34057 -5.93898e-20)
(0.646401 -0.498836 1.03721e-19)
(0.798274 -0.607095 8.0871e-20)
(0.901691 -0.670718 4.96216e-20)
(0.171729 -0.127877 4.08624e-20)
(0.44445 -0.332555 -3.43009e-20)
(0.656561 -0.489196 8.87819e-20)
(0.812154 -0.597597 -1.18406e-19)
(0.918478 -0.662379 -9.07457e-21)
(0.985409 -0.691533 6.57988e-20)
(0.173294 -0.123988 2.93816e-19)
(0.449833 -0.324055 -1.62702e-19)
(0.665864 -0.47884 -2.167e-19)
(0.825157 -0.587243 -8.86232e-20)
(0.934458 -0.653117 -1.20884e-19)
(1.00346 -0.683841 -6.2515e-21)
(0.174552 -0.119942 -1.55339e-19)
(0.454514 -0.315102 -5.50038e-21)
(0.674274 -0.467805 1.12828e-19)
(0.837206 -0.57605 1.52963e-20)
(0.949593 -0.642973 2.40525e-19)
(1.02078 -0.675264 -2.14628e-20)
(1.06133 -0.681364 1.86731e-20)
(0.175498 -0.115753 -6.14674e-20)
(0.458474 -0.305729 2.74117e-20)
(0.681765 -0.456121 4.66392e-20)
(0.848264 -0.564073 1.07632e-19)
(0.963811 -0.631984 -6.72748e-20)
(1.03731 -0.665814 2.1789e-20)
(1.07927 -0.673567 1.6121e-19)
(1.09968 -0.663476 -1.60751e-20)
(0.176126 -0.111436 3.13414e-19)
(0.461693 -0.295972 -7.6476e-20)
(0.688298 -0.443838 -9.87615e-20)
(0.858313 -0.551358 5.24527e-20)
(0.977036 -0.620156 2.76556e-20)
(1.053 -0.655526 -5.41721e-20)
(1.09652 -0.664965 -1.15734e-20)
(1.11766 -0.656399 -2.79242e-20)
(1.12487 -0.636769 2.77284e-20)
(0.176433 -0.107007 -1.39818e-19)
(0.464151 -0.285867 1.62891e-20)
(0.693836 -0.430996 -1.49488e-19)
(0.867303 -0.537931 -1.89803e-19)
(0.989236 -0.607535 -7.288e-20)
(1.06778 -0.64443 -5.14893e-21)
(1.11302 -0.65558 8.43548e-20)
(1.13504 -0.648592 -5.90716e-20)
(1.14244 -0.630271 1.626e-20)
(1.14164 -0.605842 1.08262e-19)
(0.176416 -0.102482 -1.45198e-19)
(0.465836 -0.275448 2.98949e-19)
(0.698349 -0.417639 1.74156e-19)
(0.875184 -0.523835 7.35599e-20)
(1.00038 -0.594162 -2.61974e-20)
(1.08161 -0.632554 -1.50167e-19)
(1.12873 -0.645438 -8.52088e-20)
(1.15177 -0.640075 -3.76103e-20)
(1.15949 -0.623124 -4.60054e-20)
(1.15851 -0.599774 -1.55026e-19)
(1.15326 -0.573597 8.0514e-20)
(0.176073 -0.0978775 2.63147e-20)
(0.466736 -0.264753 -4.15796e-20)
(0.70181 -0.403814 3.08931e-20)
(0.881916 -0.509115 -7.26311e-20)
(1.01041 -0.580073 1.44172e-19)
(1.09444 -0.619932 2.32798e-19)
(1.14359 -0.63456 6.6689e-20)
(1.16782 -0.630873 1.6112e-19)
(1.17599 -0.615348 -7.92785e-20)
(1.17492 -0.593134 1.71202e-19)
(1.16924 -0.567844 3.47648e-20)
(1.16176 -0.541688 1.38872e-19)
(0.175404 -0.0932095 -9.25971e-20)
(0.466842 -0.25382 -1.98649e-19)
(0.704197 -0.389567 -1.47705e-19)
(0.887461 -0.493818 4.29571e-20)
(1.01928 -0.565309 -2.14579e-19)
(1.10623 -0.606595 -2.40184e-19)
(1.15755 -0.622981 -2.63201e-20)
(1.18314 -0.621011 -5.8706e-20)
(1.1919 -0.606961 1.86188e-19)
(1.19085 -0.585938 -4.06638e-20)
(1.18483 -0.561584 -1.08748e-19)
(1.17679 -0.53617 -1.65041e-19)
(1.16835 -0.510943 -9.58218e-20)
(0.174409 -0.0884961 -7.35268e-20)
(0.466146 -0.24269 -5.46943e-20)
(0.705489 -0.374946 2.26437e-19)
(0.891787 -0.477993 -1.32549e-19)
(1.02694 -0.549912 3.1812e-19)
(1.11692 -0.592579 1.22243e-19)
(1.17058 -0.610729 -7.22485e-20)
(1.19767 -0.610508 -1.10924e-19)
(1.20718 -0.597984 -1.53253e-19)
(1.20628 -0.578207 6.06108e-20)
(1.2 -0.554838 9.7614e-21)
(1.19147 -0.530205 5.30276e-20)
(1.18244 -0.505617 1.03881e-19)
(1.17376 -0.481719 2.09641e-20)
(0.173091 -0.0837548 1.45479e-19)
(0.464644 -0.231402 2.1984e-19)
(0.70567 -0.360002 9.9981e-21)
(0.894861 -0.461691 1.22011e-19)
(1.03336 -0.533928 -2.77261e-19)
(1.12647 -0.577923 6.31912e-20)
(1.18262 -0.597832 -3.93637e-20)
(1.21139 -0.59939 -8.01279e-21)
(1.2218 -0.588441 -5.78146e-20)
(1.22117 -0.56996 -1.08127e-19)
(1.21472 -0.547622 -2.51416e-20)
(1.20578 -0.523811 5.27136e-20)
(1.1962 -0.499894 -1.48387e-19)
(1.18694 -0.476564 3.52379e-20)
(1.17844 -0.454126 -6.5148e-20)
(0.171453 -0.0790034 -2.60414e-20)
(0.462337 -0.219997 -3.36585e-19)
(0.704725 -0.344784 -2.49115e-19)
(0.896656 -0.444962 -1.47607e-20)
(1.03849 -0.517402 5.04946e-20)
(1.13483 -0.562665 -8.8775e-20)
(1.19363 -0.584322 -1.94558e-21)
(1.22426 -0.587683 2.26988e-20)
(1.23572 -0.578355 3.04094e-20)
(1.23549 -0.561219 1.62624e-19)
(1.22898 -0.539957 6.01392e-20)
(1.21969 -0.517005 -1.26085e-20)
(1.20963 -0.49379 1.3925e-20)
(1.19982 -0.471054 -1.68561e-20)
(1.19077 -0.449133 7.06773e-20)