/*--------------------------------*- C++ -*----------------------------------*\
  =========                 |
  \\      /  F ield         | OpenFOAM: The Open Source CFD Toolbox
   \\    /   O peration     | Website:  https://openfoam.org
    \\  /    A nd           | Version:  7
     \\/     M anipulation  |
\*---------------------------------------------------------------------------*/
FoamFile
{
    version     2.0;
    format      ascii;
    class       surfaceScalarField;
    location    "180";
    object      phi;
}
// * * * * * * * * * * * * * * * * * * * * * * * * * * * * * * * * * * * * * //

dimensions      [0 3 -1 0 0 0 0];

internalField   nonuniform List<scalar> 
14036
(
0.00117013
0.0046617
-0.00468974
0.00119201
0.00684838
-0.00687026
0.00119801
0.00839888
-0.00840487
0.00118662
0.00942076
-0.00940937
0.00116365
0.00972417
-0.00970121
0.0011376
0.00912776
-0.0091017
0.00111667
0.00738148
-0.00736055
0.00110712
0.00465158
-0.00464203
0.00111127
0.00128889
-0.00129304
0.0011241
-0.00219381
0.00218098
0.00113595
-0.00522022
0.00520837
0.00113892
-0.00776039
0.00775742
0.00113277
-0.00923118
0.00923733
0.00112098
-0.00989428
0.00990607
0.00110797
-0.00890871
0.00892172
0.00109723
-0.00692309
0.00693383
0.00109182
-0.00363911
0.00364452
0.00109098
0.000245203
-0.000244368
0.00109165
0.0038326
-0.00383327
0.00108983
0.00759732
-0.0075955
0.00108647
0.00901322
-0.00900986
0.00107967
0.0104423
-0.0104355
0.0010699
0.00839726
-0.0083875
0.00105827
0.00619493
-0.00618329
0.00104589
0.00231263
-0.00230025
0.00103454
-0.00300086
0.00301221
0.00102695
-0.00474998
0.00475757
0.00101958
-0.0101001
0.0101075
-0.0069222
0.00693039
0.00117192
0.00463239
0.00119466
0.00682564
0.00120127
0.00839227
0.00119028
0.00943175
0.00116738
0.00974707
0.0011409
0.00915423
0.00111906
0.00740333
0.00110832
0.00466232
0.00111131
0.0012859
0.00112328
-0.00220578
0.0011345
-0.00523144
0.00113698
-0.00776287
0.0011305
-0.00922471
0.00111873
-0.0098825
0.00110613
-0.00889611
0.00109607
-0.00691303
0.00109139
-0.00363442
0.00109114
0.000245449
0.00109239
0.00383135
0.00109104
0.00759867
0.00108801
0.00901625
0.00108121
0.0104491
0.00107114
0.00840734
0.00105918
0.00620688
0.00104628
0.00232553
0.00103466
-0.00298924
0.00102667
-0.00474198
0.00101921
-0.0100926
-0.00691442
0.00117365
0.00460184
0.00119726
0.00680202
0.0012045
0.00838503
0.00119393
0.00944233
0.00117111
0.00976989
0.00114422
0.00918112
0.00112146
0.00742609
0.00110952
0.00467427
0.00111135
0.00128406
0.00112245
-0.00221687
0.00113304
-0.00524203
0.00113505
-0.00776487
0.00112824
-0.00921791
0.00111649
-0.00987075
0.00110431
-0.00888393
0.00109491
-0.00690363
0.00109096
-0.00363048
0.00109131
0.000245097
0.00109316
0.00382951
0.00109228
0.00759955
0.00108959
0.00901894
0.0010828
0.0104559
0.00107241
0.00841773
0.00106014
0.00621915
0.00104673
0.00233895
0.00103486
-0.00297737
0.00102646
-0.00473358
0.00101891
-0.0100851
-0.00690703
0.00117531
0.00457004
0.0011998
0.00677752
0.0012077
0.00837713
0.00119758
0.00945246
0.00117485
0.00979261
0.00114755
0.00920842
0.00112387
0.00744977
0.00111072
0.00468742
0.00111138
0.0012834
0.0011216
-0.00222709
0.00113158
-0.00525201
0.00113312
-0.00776642
0.001126
-0.00921079
0.00111426
-0.009859
0.00110249
-0.00887216
0.00109376
-0.0068949
0.00109055
-0.00362727
0.00109151
0.000244136
0.00109396
0.00382706
0.00109356
0.00759995
0.00109121
0.00902129
0.00108442
0.0104627
0.00107373
0.00842842
0.00106115
0.00623173
0.00104724
0.00235287
0.00103512
-0.00296526
0.00102632
-0.00472478
0.00101868
-0.0100774
-0.00690005
0.0011769
0.004537
0.00120229
0.00675213
0.00121087
0.00836855
0.00120121
0.00946212
0.0011786
0.00981522
0.00115091
0.00923612
0.00112631
0.00747437
0.00111193
0.0047018
0.00111141
0.00128392
0.00112075
-0.00223644
0.00113012
-0.00526137
0.00113121
-0.00776751
0.00112378
-0.00920335
0.00111205
-0.00984727
0.00110068
-0.00886079
0.00109261
-0.00688684
0.00109014
-0.0036248
0.00109172
0.000242558
0.00109479
0.00382399
0.00109488
0.00759987
0.00109286
0.00902331
0.00108608
0.0104695
0.00107508
0.00843942
0.00106221
0.0062446
0.00104781
0.00236727
0.00103546
-0.00295291
0.00102627
-0.00471558
0.00101853
-0.0100697
-0.00689346
0.00117842
0.00450274
0.00120472
0.00672584
0.001214
0.00835926
0.00120483
0.00947129
0.00118236
0.00983769
0.00115427
0.00926421
0.00112875
0.00749989
0.00111315
0.0047174
0.00111143
0.00128564
0.00111989
-0.0022449
0.00112866
-0.00527014
0.00112931
-0.00776816
0.00112157
-0.0091956
0.00110984
-0.00983555
0.00109887
-0.00884981
0.00109147
-0.00687944
0.00108974
-0.00362307
0.00109195
0.000240352
0.00109565
0.00382029
0.00109623
0.00759929
0.00109455
0.00902499
0.00108777
0.0104762
0.00107648
0.00845072
0.00106332
0.00625775
0.00104844
0.00238215
0.00103588
-0.00294035
0.00102629
-0.00470599
0.00101845
-0.0100619
-0.00688728
0.00117987
0.00446726
0.00120708
0.00669862
0.0012171
0.00834925
0.00120844
0.00947994
0.00118612
0.00986001
0.00115766
0.00929267
0.00113122
0.00752633
0.00111438
0.00473424
0.00111145
0.00128857
0.00111903
-0.00225247
0.0011272
-0.00527832
0.00112743
-0.00776839
0.00111937
-0.00918754
0.00110765
-0.00982383
0.00109707
-0.00883923
0.00109033
-0.0068727
0.00108935
-0.00362209
0.0010922
0.000237508
0.00109653
0.00381595
0.00109761
0.00759821
0.00109627
0.00902634
0.00108951
0.010483
0.00107791
0.00846232
0.00106447
0.00627118
0.00104913
0.00239749
0.00103636
-0.00292757
0.00102639
-0.00469602
0.00101845
-0.0100539
-0.0068815
0.00118123
0.00443057
0.00120938
0.00667047
0.00122015
0.00833848
0.00121204
0.00948805
0.00118989
0.00988215
0.00116106
0.0093215
0.00113371
0.00755368
0.00111563
0.00475233
0.00111148
0.00129272
0.00111816
-0.00225915
0.00112575
-0.00528591
0.00112555
-0.00776819
0.00111719
-0.00917918
0.00110548
-0.00981212
0.00109528
-0.00882904
0.0010892
-0.00686661
0.00108897
-0.00362186
0.00109246
0.000234017
0.00109745
0.00381096
0.00109903
0.00759662
0.00109803
0.00902734
0.00109127
0.0104898
0.00107938
0.00847421
0.00106568
0.00628488
0.00104989
0.00241328
0.00103692
-0.0029146
0.00102657
-0.00468567
0.00101852
-0.0100459
-0.00687611
0.00118252
0.00439268
0.00121161
0.00664138
0.00122315
0.00832694
0.00121561
0.00949559
0.00119367
0.0099041
0.00116449
0.00935068
0.00113623
0.00758194
0.00111689
0.00477166
0.00111151
0.0012981
0.00111729
-0.00226493
0.00112429
-0.00529291
0.00112369
-0.00776759
0.00111503
-0.00917053
0.00110331
-0.00980039
0.0010935
-0.00881922
0.00108806
-0.00686118
0.00108858
-0.00362239
0.00109273
0.00022987
0.00109838
0.00380531
0.00110048
0.00759453
0.00109982
0.009028
0.00109307
0.0104965
0.00108089
0.00848639
0.00106693
0.00629884
0.00105071
0.0024295
0.00103755
-0.00290145
0.00102683
-0.00467495
0.00101867
-0.0100377
-0.00687111
0.00118371
0.00435359
0.00121376
0.00661133
0.00122611
0.00831459
0.00121917
0.00950253
0.00119744
0.00992582
0.00116793
0.00938019
0.00113876
0.0076111
0.00111817
0.00479226
0.00111154
0.00130473
0.00111641
-0.0022698
0.00112285
-0.00529935
0.00112185
-0.00776659
0.00111289
-0.00916157
0.00110116
-0.00978866
0.00109171
-0.00880978
0.00108693
-0.00685639
0.0010882
-0.00362366
0.00109302
0.000225056
0.00109934
0.00379899
0.00110196
0.00759191
0.00110164
0.00902831
0.00109491
0.0105032
0.00108244
0.00849886
0.00106823
0.00631305
0.00105159
0.00244614
0.00103826
-0.00288812
0.00102717
-0.00466386
0.00101889
-0.0100294
-0.00686651
0.00118482
0.0043133
0.00121584
0.00658031
0.00122902
0.00830142
0.0012227
0.00950886
0.00120121
0.0099473
0.00117138
0.00941002
0.00114132
0.00764116
0.00111947
0.00481411
0.00111159
0.00131261
0.00111554
-0.00227376
0.0011214
-0.00530521
0.00112001
-0.0077652
0.00111077
-0.00915233
0.00109902
-0.00977691
0.00108994
-0.00880069
0.00108579
-0.00685224
0.00108783
-0.0036257
0.00109332
0.000219567
0.00110032
0.00379198
0.00110346
0.00758877
0.00110349
0.00902828
0.00109677
0.01051
0.00108402
0.00851162
0.00106957
0.0063275
0.00105253
0.00246318
0.00103904
-0.00287463
0.00102759
-0.00465241
0.00101919
-0.010021
-0.0068623
0.00118583
0.00427182
0.00121784
0.00654829
0.00123187
0.00828739
0.0012262
0.00951453
0.00120499
0.00996851
0.00117486
0.00944015
0.00114391
0.00767211
0.00112079
0.00483722
0.00111164
0.00132177
0.00111467
-0.00227679
0.00111996
-0.0053105
0.0011182
-0.00776344
0.00110866
-0.00914279
0.00109689
-0.00976514
0.00108816
-0.00879196
0.00108466
-0.00684874
0.00108745
-0.00362849
0.00109362
0.000213394
0.00110132
0.00378428
0.001105
0.00758509
0.00110538
0.00902791
0.00109867
0.0105167
0.00108564
0.00852465
0.00107096
0.00634218
0.00105353
0.00248061
0.00103989
-0.00286099
0.00102809
-0.0046406
0.00101957
-0.0100125
-0.00685846
0.00118674
0.00422916
0.00121976
0.00651528
0.00123466
0.00827248
0.00122967
0.00951951
0.00120876
0.00998943
0.00117835
0.00947056
0.00114652
0.00770394
0.00112214
0.00486161
0.0011117
0.0013322
0.0011138
-0.00227888
0.00111853
-0.00531523
0.0011164
-0.00776131
0.00110658
-0.00913298
0.00109478
-0.00975334
0.00108639
-0.00878358
0.00108352
-0.00684586
0.00108707
-0.00363204
0.00109394
0.000206527
0.00110234
0.00377587
0.00110656
0.00758088
0.00110729
0.00902718
0.00110061
0.0105234
0.0010873
0.00853795
0.0010724
0.00635709
0.0010546
0.00249842
0.00104082
-0.00284722
0.00102868
-0.00462846
0.00102002
-0.0100038
-0.00685501
0.00118755
0.00418531
0.00122159
0.00648125
0.0012374
0.00825667
0.00123312
0.0095238
0.00121252
0.01001
0.00118186
0.00950123
0.00114916
0.00773664
0.00112351
0.00488726
0.00111178
0.00134394
0.00111293
-0.00228003
0.0011171
-0.0053194
0.00111461
-0.00775883
0.00110451
-0.00912288
0.00109268
-0.0097415
0.00108462
-0.00877552
0.00108237
-0.00684361
0.00108669
-0.00363636
0.00109426
0.000198957
0.00110338
0.00376676
0.00110814
0.00757612
0.00110923
0.00902609
0.00110257
0.01053
0.001089
0.00855152
0.00107389
0.0063722
0.00105572
0.00251658
0.00104183
-0.00283333
0.00102934
-0.00461597
0.00102055
-0.00999505
-0.00685193
0.00118826
0.00414029
0.00122332
0.00644618
0.00124007
0.00823993
0.00123652
0.00952734
0.00121628
0.0100303
0.00118538
0.00953213
0.00115183
0.00777018
0.00112491
0.00491417
0.00111187
0.00135697
0.00111207
-0.00228022
0.00111567
-0.00532301
0.00111285
-0.007756
0.00110247
-0.0091125
0.00109059
-0.00972962
0.00108286
-0.00876779
0.00108123
-0.00684198
0.00108631
-0.00364144
0.00109459
0.000190676
0.00110443
0.00375691
0.00110975
0.0075708
0.00111119
0.00902465
0.00110456
0.0105366
0.00109073
0.00856535
0.00107542
0.00638751
0.00105691
0.00253509
0.00104291
-0.00281933
0.00103009
-0.00460316
0.00102115
-0.00998611
-0.00684922
0.00118886
0.0040941
0.00122497
0.00641007
0.00124267
0.00822223
0.00123989
0.00953011
0.00122002
0.0100501
0.00118891
0.00956324
0.00115452
0.00780457
0.00112634
0.00494236
0.00111198
0.00137133
0.00111121
-0.00227944
0.00111426
-0.00532606
0.00111109
-0.00775284
0.00110044
-0.00910185
0.00108851
-0.00971769
0.00108109
-0.00876037
0.00108007
-0.00684097
0.00108592
-0.00364729
0.00109492
0.000181676
0.0011055
0.00374634
0.00111137
0.00756492
0.00111318
0.00902285
0.00110659
0.0105432
0.0010925
0.00857944
0.00107699
0.00640302
0.00105816
0.00255392
0.00104406
-0.00280523
0.00103093
-0.00459002
0.00102184
-0.00997703
-0.00684687
0.00118934
0.00404674
0.00122651
0.0063729
0.00124519
0.00820355
0.00124322
0.00953209
0.00122376
0.0100696
0.00119245
0.00959454
0.00115725
0.00783978
0.0011278
0.00497181
0.00111211
0.00138701
0.00111036
-0.00227769
0.00111285
-0.00532855
0.00110936
-0.00774935
0.00109844
-0.00909093
0.00108644
-0.00970569
0.00107932
-0.00875325
0.00107891
-0.00684055
0.00108553
-0.0036539
0.00109525
0.000171947
0.00110657
0.00373502
0.00111302
0.00755847
0.00111519
0.00902068
0.00110864
0.0105498
0.0010943
0.00859378
0.00107861
0.00641871
0.00105946
0.00257307
0.00104529
-0.00279106
0.00103184
-0.00457658
0.0010226
-0.00996778
-0.00684488
0.0011897
0.00399821
0.00122795
0.00633465
0.00124764
0.00818386
0.00124649
0.00953323
0.00122747
0.0100886
0.00119601
0.00962601
0.00115999
0.00787579
0.00112928
0.00500252
0.00111226
0.00140403
0.00110951
-0.00227494
0.00111145
-0.00533049
0.00110764
-0.00774554
0.00109645
-0.00907974
0.00108439
-0.00969363
0.00107756
-0.00874642
0.00107775
-0.00684074
0.00108512
-0.00366127
0.00109559
0.000161482
0.00110766
0.00372295
0.00111469
0.00755144
0.00111723
0.00901814
0.00111072
0.0105563
0.00109613
0.00860837
0.00108027
0.00643457
0.00106083
0.00259251
0.00104659
-0.00277681
0.00103284
-0.00456283
0.00102343
-0.00995837
-0.00684324
0.00118994
0.00394853
0.00122928
0.0062953
0.00125001
0.00816314
0.00124972
0.00953352
0.00123117
0.0101072
0.00119957
0.0096576
0.00116277
0.00791259
0.0011308
0.00503449
0.00111243
0.0014224
0.00110868
-0.00227118
0.00111005
-0.00533186
0.00110594
-0.00774143
0.00109449
-0.0090683
0.00108235
-0.00968148
0.00107579
-0.00873987
0.00107657
-0.00684152
0.00108471
-0.00366942
0.00109592
0.000150273
0.00110876
0.00371012
0.00111637
0.00754383
0.00111928
0.00901522
0.00111283
0.0105627
0.00109801
0.00862319
0.00108198
0.00645059
0.00106226
0.00261224
0.00104796
-0.00276252
0.00103392
-0.00454879
0.00102435
-0.0099488
-0.00684195
0.00119005
0.00389768
0.0012305
0.00625486
0.00125229
0.00814135
0.00125289
0.00953292
0.00123484
0.0101252
0.00120314
0.0096893
0.00116557
0.00795016
0.00113235
0.00506771
0.00111263
0.00144213
0.00110785
-0.00226641
0.00110866
-0.00533267
0.00110425
-0.00773702
0.00109255
-0.00905659
0.00108032
-0.00966925
0.00107403
-0.00873358
0.00107538
-0.00684288
0.00108429
-0.00367833
0.00109625
0.000138312
0.00110986
0.00369651
0.00111806
0.00753563
0.00112136
0.00901193
0.00111497
0.0105691
0.00109991
0.00863825
0.00108373
0.00646677
0.00106374
0.00263222
0.00104941
-0.00274819
0.00103509
-0.00453447
0.00102534
-0.00993904
-0.00684099
0.00119004
0.00384568
0.00123161
0.00621329
0.00125448
0.00811848
0.001256
0.00953139
0.00123848
0.0101428
0.00120671
0.00972107
0.0011684
0.00798847
0.00113394
0.00510217
0.00111285
0.00146322
0.00110704
-0.0022606
0.00110728
-0.00533292
0.00110258
-0.00773231
0.00109062
-0.00904463
0.0010783
-0.00965693
0.00107226
-0.00872753
0.00107419
-0.00684481
0.00108386
-0.003688
0.00109658
0.000125593
0.00111097
0.00368213
0.00111977
0.00752682
0.00112345
0.00900825
0.00111713
0.0105755
0.00110185
0.00865353
0.00108552
0.00648309
0.00106529
0.00265246
0.00105093
-0.00273383
0.00103634
-0.00451988
0.0010264
-0.00992911
-0.00684036
0.00118989
0.00379253
0.00123259
0.00617058
0.00125657
0.0080945
0.00125905
0.00952891
0.0012421
0.0101597
0.00121028
0.00975289
0.00117125
0.00802751
0.00113555
0.00513786
0.00111309
0.00148569
0.00110623
-0.00225374
0.00110591
-0.00533259
0.00110093
-0.00772733
0.00108872
-0.00903242
0.00107629
-0.0096445
0.00107048
-0.00872173
0.00107298
-0.0068473
0.00108342
-0.00369844
0.0010969
0.000112107
0.00111208
0.00366695
0.00112149
0.0075174
0.00112556
0.00900418
0.00111931
0.0105817
0.00110381
0.00866903
0.00108736
0.00649955
0.00106689
0.00267293
0.00105253
-0.00271947
0.00103767
-0.00450503
0.00102755
-0.00991898
-0.00684004
0.0011896
0.00373824
0.00123345
0.00612673
0.00125857
0.00806937
0.00126203
0.00952545
0.00124568
0.0101761
0.00121385
0.00978471
0.00117413
0.00806723
0.0011372
0.00517479
0.00111336
0.00150953
0.00110544
-0.00224582
0.00110454
-0.00533169
0.00109928
-0.00772208
0.00108684
-0.00901998
0.00107429
-0.00963196
0.00106871
-0.00871614
0.00107175
-0.00685035
0.00108296
-0.00370965
0.00109722
9.78487e-05
0.00111319
0.00365098
0.00112322
0.00750737
0.00112769
0.00899971
0.00112152
0.0105879
0.00110581
0.00868474
0.00108923
0.00651613
0.00106855
0.00269361
0.00105419
-0.00270511
0.00103909
-0.00448992
0.00102877
-0.00990866
-0.00684004
0.00118917
0.00368281
0.00123418
0.00608172
0.00126046
0.00804309
0.00126494
0.00952097
0.00124922
0.0101918
0.00121742
0.00981652
0.00117702
0.00810763
0.00113889
0.00521292
0.00111365
0.00153476
0.00110466
-0.00223682
0.00110318
-0.00533021
0.00109766
-0.00771656
0.00108497
-0.00900729
0.00107231
-0.00961929
0.00106693
-0.00871076
0.00107052
-0.00685394
0.00108248
-0.00372161
0.00109752
8.28111e-05
0.0011143
0.00363421
0.00112496
0.0074967
0.00112983
0.00899484
0.00112376
0.010594
0.00110785
0.00870065
0.00109115
0.00653282
0.00107027
0.00271449
0.00105593
-0.00269078
0.0010406
-0.00447459
0.00103007
-0.00989814
-0.00684034
0.00118859
0.00362625
0.00123477
0.00603554
0.00126225
0.00801562
0.00126777
0.00951544
0.00125272
0.0102068
0.00122098
0.00984826
0.00117994
0.00814867
0.0011406
0.00525225
0.00111398
0.00156139
0.00110389
-0.00222674
0.00110182
-0.00532814
0.00109605
-0.00771078
0.00108313
-0.00899438
0.00107033
-0.00960649
0.00106514
-0.00870558
0.00106927
-0.00685806
0.00108199
-0.00373434
0.00109782
6.69881e-05
0.0011154
0.00361662
0.00112671
0.0074854
0.00113199
0.00898955
0.00112601
0.0105999
0.00110991
0.00871676
0.00109311
0.00654962
0.00107204
0.00273556
0.00105774
-0.00267648
0.00104218
-0.00445903
0.00103145
-0.0098874
-0.00684094
0.00118786
0.00356856
0.00123523
0.00598816
0.00126391
0.00798693
0.00127052
0.00950883
0.00125617
0.0102212
0.00122452
0.00987991
0.00118287
0.00819033
0.00114235
0.00529277
0.00111433
0.0015894
0.00110314
-0.00221554
0.00110047
-0.00532548
0.00109445
-0.00770476
0.00108131
-0.00898123
0.00106837
-0.00959355
0.00106336
-0.00870057
0.001068
-0.00686271
0.00108148
-0.00374782
0.0010981
5.03742e-05
0.00111651
0.00359821
0.00112846
0.00747345
0.00113416
0.00898385
0.00112829
0.0106058
0.001112
0.00873305
0.0010951
0.00656652
0.00107387
0.00275679
0.00105962
-0.00266224
0.00104385
-0.00444325
0.0010329
-0.00987645
-0.00684181
0.00118698
0.00350976
0.00123554
0.0059396
0.00126546
0.00795702
0.00127318
0.00950111
0.00125957
0.0102348
0.00122805
0.00991144
0.00118582
0.00823256
0.00114413
0.00533446
0.00111471
0.00161882
0.0011024
-0.00220322
0.00109913
-0.00532221
0.00109286
-0.00769849
0.0010795
-0.00896788
0.00106641
-0.00958047
0.00106156
-0.00869571
0.00106672
-0.00686786
0.00108095
-0.00376205
0.00109836
3.29639e-05
0.00111761
0.00357897
0.00113021
0.00746085
0.00113634
0.00897772
0.00113059
0.0106115
0.00111412
0.00874953
0.00109713
0.00658351
0.00107575
0.00277817
0.00106158
-0.00264806
0.00104561
-0.00442729
0.00103443
-0.00986527
-0.00684296
0.00118594
0.00344984
0.00123571
0.00588982
0.00126689
0.00792584
0.00127575
0.00949225
0.00126292
0.0102476
0.00123156
0.00994279
0.00118878
0.00827535
0.00114594
0.0053773
0.00111512
0.00164963
0.00110167
-0.00218977
0.00109779
-0.00531833
0.00109128
-0.00769198
0.00107771
-0.00895431
0.00106447
-0.00956722
0.00105976
-0.00869101
0.00106542
-0.00687352
0.0010804
-0.00377704
0.00109861
1.47521e-05
0.00111869
0.00355889
0.00113197
0.00744757
0.00113853
0.00897116
0.00113291
0.0106172
0.00111627
0.00876617
0.0010992
0.00660057
0.00107769
0.00279969
0.0010636
-0.00263397
0.00104745
-0.00441114
0.00103604
-0.00985386
-0.00684437
0.00118473
0.00338882
0.00123573
0.00583883
0.00126818
0.00789338
0.00127822
0.00948221
0.0012662
0.0102596
0.00123505
0.00997394
0.00119175
0.00831865
0.00114778
0.00542127
0.00111556
0.00168185
0.00110096
-0.00217516
0.00109645
-0.00531383
0.00108972
-0.00768524
0.00107595
-0.00894054
0.00106254
-0.00955381
0.00105796
-0.00868643
0.0010641
-0.00687966
0.00107983
-0.00379277
0.00109885
-4.26551e-06
0.00111977
0.00353796
0.00113372
0.00743363
0.00114072
0.00896416
0.00113525
0.0106226
0.00111844
0.00878298
0.00110131
0.0066177
0.00107967
0.00282132
0.00106569
-0.00261998
0.00104937
-0.00439482
0.00103773
-0.00984222
-0.00684602
0.00118337
0.00332672
0.00123559
0.00578661
0.00126935
0.00785962
0.00128059
0.00947097
0.00126942
0.0102708
0.00123851
0.0100049
0.00119473
0.00836244
0.00114964
0.00546635
0.00111603
0.00171546
0.00110026
-0.00215939
0.00109513
-0.00530869
0.00108816
-0.00767828
0.00107419
-0.00892657
0.00106061
-0.00954023
0.00105614
-0.00868196
0.00106276
-0.00688627
0.00107923
-0.00380925
0.00109906
-2.40933e-05
0.00112084
0.00351619
0.00113547
0.00741899
0.00114293
0.0089567
0.0011376
0.010628
0.00112064
0.00879993
0.00110345
0.0066349
0.00108172
0.00284305
0.00106784
-0.00260611
0.00105137
-0.00437835
0.00103949
-0.00983033
-0.00684792
0.00118183
0.00326353
0.00123529
0.00573316
0.00127037
0.00782454
0.00128285
0.0094585
0.00127257
0.0102811
0.00124194
0.0100355
0.00119771
0.00840667
0.00115154
0.00551252
0.00111653
0.00175046
0.00109958
-0.00214244
0.0010938
-0.00530291
0.00108661
-0.00767109
0.00107246
-0.00891242
0.0010587
-0.00952647
0.00105432
-0.00867759
0.0010614
-0.00689335
0.00107861
-0.00382646
0.00109926
-4.47351e-05
0.00112189
0.00349355
0.00113722
0.00740366
0.00114514
0.00894879
0.00113997
0.0106331
0.00112287
0.00881703
0.00110563
0.00665215
0.00108381
0.00286487
0.00107007
-0.00259237
0.00105346
-0.00436174
0.00104133
-0.0098182
-0.00685005
0.00118013
0.00319928
0.00123482
0.00567846
0.00127125
0.00778811
0.00128499
0.00944476
0.00127563
0.0102904
0.00124534
0.0100658
0.00120069
0.00845132
0.00115346
0.00555976
0.00111706
0.00178686
0.00109892
-0.0021243
0.00109248
-0.00529647
0.00108507
-0.00766368
0.00107074
-0.00889809
0.00105679
-0.00951252
0.0010525
-0.00867329
0.00106002
-0.00690087
0.00107797
-0.00384441
0.00109943
-6.61943e-05
0.00112293
0.00347005
0.00113896
0.00738763
0.00114735
0.0089404
0.00114236
0.0106381
0.00112513
0.00883426
0.00110784
0.00666944
0.00108595
0.00288676
0.00107236
-0.00257878
0.00105563
-0.00434502
0.00104324
-0.00980581
-0.00685239
0.00117825
0.00313397
0.00123419
0.00562253
0.00127198
0.00775031
0.00128701
0.00942973
0.00127862
0.0102988
0.00124869
0.0100957
0.00120367
0.00849633
0.0011554
0.00560803
0.00111762
0.00182464
0.00109827
-0.00210495
0.00109116
-0.00528936
0.00108354
-0.00765606
0.00106904
-0.0088836
0.0010549
-0.00949838
0.00105066
-0.00866905
0.00105861
-0.00690882
0.00107729
-0.00386309
0.00109957
-8.84739e-05
0.00112395
0.00344568
0.0011407
0.00737087
0.00114956
0.00893154
0.00114476
0.0106429
0.00112741
0.00885162
0.00111008
0.00668677
0.00108814
0.0029087
0.00107472
-0.00256536
0.00105789
-0.00432819
0.00104524
-0.00979316
-0.00685493
0.00117619
0.00306763
0.00123338
0.00556534
0.00127256
0.00771113
0.00128892
0.00941337
0.00128152
0.0103062
0.001252
0.0101252
0.00120665
0.00854168
0.00115737
0.00565731
0.0011182
0.0018638
0.00109764
-0.00208438
0.00108984
-0.00528157
0.00108201
-0.00764823
0.00106735
-0.00886894
0.00105302
-0.00948404
0.00104882
-0.00866485
0.00105719
-0.00691719
0.00107659
-0.00388249
0.00109969
-0.000111577
0.00112494
0.00342043
0.00114243
0.00735339
0.00115178
0.00892218
0.00114718
0.0106475
0.00112971
0.00886908
0.00111236
0.00670413
0.00109038
0.00293067
0.00107714
-0.00255211
0.00106022
-0.00431127
0.00104731
-0.00978025
-0.00685767
0.00117396
0.00300027
0.0012324
0.0055069
0.00127298
0.00767056
0.00129069
0.00939566
0.00128433
0.0103126
0.00125526
0.0101543
0.00120961
0.00858733
0.00115935
0.00570758
0.00111882
0.00190433
0.00109702
-0.00206258
0.00108853
-0.00527308
0.00108048
-0.00764018
0.00106568
-0.00885413
0.00105114
-0.00946951
0.00104696
-0.00866067
0.00105574
-0.00692596
0.00107586
-0.00390262
0.00109979
-0.000135504
0.00112592
0.00339429
0.00114414
0.00733516
0.001154
0.00891233
0.00114961
0.0106519
0.00113204
0.00888665
0.00111467
0.0067215
0.00109267
0.00295267
0.00107962
-0.00253907
0.00106264
-0.00429429
0.00104946
-0.00976706
-0.00686058
0.00117154
0.00293191
0.00123124
0.0054472
0.00127323
0.00762856
0.00129232
0.00937657
0.00128704
0.0103179
0.00125846
0.0101829
0.00121256
0.00863322
0.00116135
0.00575879
0.00111946
0.00194622
0.00109642
-0.00203954
0.00108722
-0.00526388
0.00107896
-0.00763192
0.00106402
-0.00883919
0.00104927
-0.00945476
0.0010451
-0.0086565
0.00105426
-0.00693512
0.0010751
-0.00392345
0.00109985
-0.000160259
0.00112687
0.00336727
0.00114585
0.00731619
0.00115621
0.00890196
0.00115205
0.0106561
0.00113439
0.00890431
0.00111701
0.00673888
0.00109501
0.00297467
0.00108217
-0.00252623
0.00106514
-0.00427726
0.00105168
-0.0097536
-0.00686365
0.00116895
0.00286257
0.00122989
0.00538626
0.00127332
0.00758514
0.00129382
0.00935607
0.00128964
0.010322
0.0012616
0.0102109
0.0012155
0.00867932
0.00116337
0.00581092
0.00112013
0.00198946
0.00109584
-0.00201525
0.00108591
-0.00525395
0.00107744
-0.00762346
0.00106237
-0.00882412
0.00104742
-0.00943981
0.00104323
-0.00865231
0.00105276
-0.00694466
0.0010743
-0.00394499
0.00109989
-0.000185844
0.0011278
0.00333936
0.00114754
0.00729646
0.00115843
0.00889107
0.0011545
0.01066
0.00113677
0.00892204
0.00111938
0.00675627
0.00109739
0.00299666
0.00108478
-0.00251362
0.00106772
-0.00426019
0.00105398
-0.00973987
-0.00686688
0.00116617
0.00279228
0.00122837
0.00532406
0.00127323
0.00754027
0.00129516
0.00933414
0.00129214
0.0103251
0.00126468
0.0102384
0.00121841
0.00872559
0.00116539
0.00586394
0.00112082
0.00203403
0.00109527
-0.00198969
0.0010846
-0.00524328
0.00107592
-0.00761478
0.00106073
-0.00880892
0.00104557
-0.00942465
0.00104135
-0.00864809
0.00105124
-0.00695454
0.00107348
-0.00396724
0.00109989
-0.000212259
0.00112871
0.00331054
0.00114921
0.00727595
0.00116063
0.00887965
0.00115696
0.0106637
0.00113916
0.00893984
0.00112178
0.00677366
0.00109981
0.00301862
0.00108745
-0.00250126
0.00107037
-0.00424312
0.00105635
-0.00972585
-0.00687024
0.00116321
0.00272105
0.00122665
0.00526062
0.00127297
0.00749395
0.00129636
0.00931075
0.00129452
0.0103269
0.00126768
0.0102652
0.00122129
0.00877197
0.00116743
0.0059178
0.00112154
0.00207992
0.00109471
-0.00196286
0.00108329
-0.00523185
0.0010744
-0.00760589
0.0010591
-0.00879362
0.00104373
-0.00940928
0.00103946
-0.00864382
0.00104968
-0.00696476
0.00107262
-0.00399018
0.00109987
-0.000239507
0.00112958
0.00328083
0.00115087
0.00725466
0.00116284
0.00886769
0.00115943
0.0106671
0.00114158
0.0089577
0.00112421
0.00679103
0.00110228
0.00304055
0.00109018
-0.00248915
0.00107311
-0.00422605
0.00105881
-0.00971155
-0.00687372
0.00116007
0.00264891
0.00122474
0.00519595
0.00127253
0.00744616
0.0012974
0.00928588
0.00129678
0.0103275
0.00127061
0.0102914
0.00122415
0.00881844
0.00116947
0.00597247
0.00112229
0.0021271
0.00109418
-0.00193475
0.00108198
-0.00521965
0.00107288
-0.00759679
0.00105748
-0.00877823
0.0010419
-0.0093937
0.00103756
-0.00863949
0.0010481
-0.0069753
0.00107173
-0.00401381
0.00109981
-0.000267589
0.00113043
0.00325022
0.00115251
0.00723258
0.00116503
0.00885516
0.00116191
0.0106702
0.00114401
0.0089756
0.00112667
0.00680837
0.0011048
0.00306242
0.00109296
-0.00247732
0.00107592
-0.00420901
0.00106133
-0.00969696
-0.00687731
0.00115675
0.00257589
0.00122264
0.00513006
0.0012719
0.0073969
0.00129828
0.00925951
0.00129892
0.0103269
0.00127345
0.0103169
0.00122696
0.00886492
0.00117152
0.00602791
0.00112305
0.00217557
0.00109366
-0.00190535
0.00108066
-0.00520666
0.00107135
-0.00758748
0.00105587
-0.00876274
0.00104008
-0.00937791
0.00103565
-0.00863506
0.00104649
-0.00698614
0.0010708
-0.00403812
0.00109972
-0.000296507
0.00113124
0.00321869
0.00115413
0.0072097
0.00116722
0.00884207
0.0011644
0.010673
0.00114647
0.00899352
0.00112915
0.00682569
0.00110735
0.00308422
0.00109581
-0.00246577
0.00107882
-0.00419202
0.00106393
-0.00968207
-0.006881
0.00115325
0.00250201
0.00122035
0.00506295
0.00127109
0.00734616
0.00129899
0.0092316
0.00130092
0.0103249
0.00127621
0.0103416
0.00122974
0.00891139
0.00117357
0.00608408
0.00112384
0.00222531
0.00109315
-0.00187466
0.00107935
-0.00519286
0.00106982
-0.00757795
0.00105426
-0.00874719
0.00103826
-0.00936192
0.00103373
-0.00863053
0.00104485
-0.00699725
0.00106984
-0.00406311
0.00109959
-0.000326262
0.00113203
0.00318626
0.00115572
0.007186
0.0011694
0.0088284
0.00116689
0.0106755
0.00114895
0.00901147
0.00113166
0.00684298
0.00110995
0.00310593
0.00109871
-0.00245453
0.00108178