/*--------------------------------*- C++ -*----------------------------------*\
  =========                 |
  \\      /  F ield         | OpenFOAM: The Open Source CFD Toolbox
   \\    /   O peration     | Website:  https://openfoam.org
    \\  /    A nd           | Version:  7
     \\/     M anipulation  |
\*---------------------------------------------------------------------------*/
FoamFile
{
    version     2.0;
    format      ascii;
    class       volVectorField;
    location    "180";
    object      U;
}
// * * * * * * * * * * * * * * * * * * * * * * * * * * * * * * * * * * * * * //

dimensions      [0 1 -1 0 0 0 0];

internalField   nonuniform List<vector> 
7158
(
(0.779006 0.197341 -4.6341e-23)
(0.799003 0.285479 -3.89772e-23)
(0.810145 0.344818 -6.18378e-23)
(0.808957 0.381029 -3.11836e-23)
(0.796781 0.387606 3.8235e-23)
(0.780147 0.358679 -5.38033e-24)
(0.763983 0.286016 -6.66736e-23)
(0.754575 0.177785 -4.71964e-23)
(0.753991 0.0486743 -1.7359e-23)
(0.76334 -0.0814368 7.65587e-23)
(0.774456 -0.191373 -5.03842e-23)
(0.782381 -0.280786 2.38202e-23)
(0.781141 -0.329522 2.9487e-23)
(0.776457 -0.348367 6.89192e-23)
(0.767231 -0.309345 2.25319e-24)
(0.760783 -0.237069 6.24783e-23)
(0.754506 -0.12289 6.40018e-23)
(0.755482 0.00811713 1.47016e-23)
(0.755521 0.125715 -1.01454e-23)
(0.758715 0.245711 -3.62368e-23)
(0.755494 0.287435 -2.51237e-23)
(0.756689 0.328335 -1.41655e-23)
(0.748826 0.260286 2.68044e-23)
(0.746089 0.189274 -4.0846e-23)
(0.73554 0.0695321 2.5782e-23)
(0.731777 -0.089454 2.96473e-23)
(0.72267 -0.139456 2.53105e-23)
(0.723849 -0.292242 -9.87534e-25)
(0.715165 -0.197557 8.48061e-24)
(0.778525 0.196061 5.81774e-24)
(0.798631 0.284478 -1.91881e-22)
(0.809892 0.344487 6.73578e-23)
(0.808888 0.38141 1.22393e-22)
(0.796929 0.388451 2.78979e-23)
(0.780464 0.359644 -2.51311e-24)
(0.764339 0.28678 1.90168e-22)
(0.754865 0.178108 2.32676e-22)
(0.754184 0.0484763 1.78055e-22)
(0.763535 -0.081961 -1.00523e-22)
(0.774706 -0.191859 -1.26502e-22)
(0.782631 -0.280946 1.49026e-22)
(0.781254 -0.329357 -4.21218e-23)
(0.776392 -0.348012 1.94344e-23)
(0.767103 -0.30896 -1.19979e-22)
(0.760665 -0.236773 -8.55777e-23)
(0.754458 -0.12278 -6.71588e-23)
(0.75541 0.0080726 -5.6294e-23)
(0.755452 0.125619 1.57718e-22)
(0.758773 0.245697 -5.12391e-23)
(0.755737 0.287471 2.61379e-23)
(0.757161 0.328482 1.4346e-22)
(0.749302 0.260529 -8.47017e-23)
(0.746558 0.189571 1.54619e-22)
(0.735979 0.0698518 6.76725e-23)
(0.73194 -0.0891717 6.10564e-23)
(0.722915 -0.139285 3.34708e-23)
(0.723483 -0.292084 5.73169e-23)
(0.715181 -0.197386 6.81707e-24)
(0.77811 0.194726 9.79262e-23)
(0.798321 0.283439 2.10262e-22)
(0.809704 0.344127 5.1461e-23)
(0.808887 0.38177 -1.40389e-22)
(0.797149 0.389288 2.94834e-22)
(0.780857 0.360622 1.54498e-22)
(0.76477 0.287577 -8.58654e-23)
(0.755227 0.178476 -5.25244e-22)
(0.754441 0.0483216 -2.55058e-22)
(0.76379 -0.0824517 -1.17559e-22)
(0.775017 -0.192319 1.7813e-22)
(0.782943 -0.281085 -4.32693e-22)
(0.78143 -0.329177 1.77273e-22)
(0.776387 -0.347653 -1.28317e-22)
(0.767029 -0.308586 3.51406e-22)
(0.760595 -0.236496 -9.24508e-24)
(0.754457 -0.122693 1.49881e-22)
(0.755387 0.00800837 8.60153e-23)
(0.755439 0.125503 -1.41474e-22)
(0.758891 0.245664 -1.85967e-23)
(0.756039 0.287493 -9.43514e-23)
(0.757685 0.328625 -8.67894e-23)
(0.749827 0.260778 1.00752e-22)
(0.747075 0.189876 1.20513e-23)
(0.736471 0.0701865 -1.06632e-22)
(0.732163 -0.0888804 -9.28574e-23)
(0.723224 -0.139101 -3.94103e-23)
(0.723176 -0.291919 -7.57998e-23)
(0.715249 -0.197223 -1.9592e-23)
(0.777761 0.193337 1.12528e-22)
(0.798073 0.28236 -1.86192e-22)
(0.80958 0.343736 2.39546e-22)
(0.808955 0.382108 1.61903e-22)
(0.797443 0.390118 -4.39691e-22)
(0.781325 0.361612 -8.01022e-23)
(0.765276 0.288406 1.97364e-22)
(0.75566 0.178888 5.76157e-22)
(0.754764 0.0482106 -7.4889e-23)
(0.764106 -0.0829085 1.52802e-22)
(0.775387 -0.192753 1.5652e-22)
(0.783319 -0.281203 2.1297e-22)
(0.781671 -0.32898 7.28176e-23)
(0.776441 -0.34729 7.59962e-23)
(0.767008 -0.308221 -2.42121e-22)
(0.760574 -0.236239 -4.79151e-23)
(0.754503 -0.12263 1.11495e-22)
(0.755414 0.0079244 -8.15334e-23)
(0.755482 0.125366 7.08002e-23)
(0.759069 0.245613 -1.40754e-22)
(0.756399 0.2875 6.13122e-23)
(0.758262 0.328764 1.39641e-22)
(0.750402 0.261034 1.26185e-22)
(0.74764 0.190187 -4.67661e-22)
(0.737017 0.0705358 -2.10049e-22)
(0.732445 -0.0885802 -4.46319e-23)
(0.723595 -0.138902 -2.51479e-23)
(0.722928 -0.291747 -4.69026e-23)
(0.715369 -0.197069 -3.36167e-23)
(0.777477 0.191894 -3.47668e-22)
(0.797885 0.281241 1.07166e-22)
(0.80952 0.343314 -3.64285e-22)
(0.809092 0.382424 2.1704e-22)
(0.797811 0.390939 7.00396e-23)
(0.78187 0.362614 -9.41261e-23)
(0.765858 0.289267 -1.97094e-22)
(0.756166 0.179345 2.22644e-23)
(0.755154 0.0481439 1.79204e-22)
(0.764481 -0.0833313 -2.63882e-22)
(0.775818 -0.193162 -1.75331e-22)
(0.783758 -0.281301 -1.55378e-22)
(0.781975 -0.328768 1.10718e-23)
(0.776554 -0.346922 -5.55918e-23)
(0.76704 -0.307866 5.05498e-22)
(0.760601 -0.236001 -1.17175e-22)
(0.754596 -0.122589 7.99309e-24)
(0.75549 0.00782042 1.30329e-22)
(0.755582 0.125208 -2.77634e-22)
(0.759305 0.245544 -4.06332e-23)
(0.756816 0.287494 3.04099e-22)
(0.758892 0.328899 3.20509e-23)
(0.751026 0.261296 1.43726e-22)
(0.748253 0.190506 6.27277e-22)
(0.737616 0.0708994 2.18645e-22)
(0.732786 -0.0882714 1.36689e-22)
(0.724029 -0.13869 1.26445e-22)
(0.72274 -0.291568 1.03961e-22)
(0.715542 -0.196923 5.45512e-23)
(0.777255 0.190397 1.25629e-22)
(0.797758 0.280082 4.64389e-22)
(0.809523 0.34286 -3.77207e-23)
(0.809297 0.382716 -4.23341e-22)
(0.798251 0.39175 6.83011e-22)
(0.782491 0.363627 -7.7972e-22)
(0.766518 0.290161 2.37598e-22)
(0.756746 0.179847 -6.41839e-22)
(0.755612 0.0481222 -3.93926e-22)
(0.764919 -0.0837196 -1.12896e-22)
(0.77631 -0.193546 -2.38806e-22)
(0.784261 -0.281379 -4.62349e-22)
(0.782344 -0.328539 -6.13088e-22)
(0.776727 -0.34655 -2.79699e-22)
(0.767124 -0.30752 -3.97718e-22)
(0.760674 -0.235783 3.72741e-22)
(0.754734 -0.122571 -3.94723e-22)
(0.755613 0.0076963 -1.21512e-22)
(0.755736 0.125028 2.94167e-22)
(0.759599 0.245456 -4.07338e-23)
(0.75729 0.287474 -3.53322e-22)
(0.759573 0.32903 -2.04659e-23)
(0.751698 0.261565 -4.3291e-22)
(0.748914 0.190832 -3.35924e-22)
(0.73827 0.0712773 -2.54024e-22)
(0.733186 -0.0879541 -5.14223e-23)
(0.724527 -0.138464 -1.32097e-22)
(0.722612 -0.291381 6.92007e-25)
(0.715768 -0.196786 -1.8669e-23)
(0.777096 0.188848 -3.53912e-23)
(0.79769 0.278883 -5.16854e-22)
(0.809589 0.342373 -5.00357e-22)
(0.80957 0.382984 6.54832e-22)
(0.798765 0.392552 -1.15634e-21)
(0.783189 0.364652 1.18816e-21)
(0.767256 0.291087 -5.36927e-22)
(0.757402 0.180395 8.04548e-22)
(0.75614 0.0481459 -2.81353e-23)
(0.765418 -0.0840731 6.65991e-23)
(0.776863 -0.193905 -4.55119e-22)
(0.784827 -0.281436 -9.5742e-23)
(0.782776 -0.328295 -1.12944e-22)
(0.776958 -0.346173 1.55932e-22)
(0.76726 -0.307183 -4.37212e-22)
(0.760794 -0.235583 -4.92085e-22)
(0.754917 -0.122575 1.90414e-22)
(0.755785 0.00755185 3.15969e-23)
(0.755945 0.124827 -1.20049e-22)
(0.759951 0.24535 2.83758e-22)
(0.757821 0.28744 -1.88257e-22)
(0.760306 0.329158 -2.34338e-22)
(0.75242 0.26184 2.06749e-22)
(0.749623 0.191164 2.84848e-22)
(0.738978 0.0716689 7.09352e-22)
(0.733646 -0.0876287 -2.49187e-22)
(0.725088 -0.138224 3.59111e-22)
(0.722545 -0.291188 2.00518e-24)
(0.716045 -0.196656 1.8981e-23)
(0.776998 0.187246 -2.50749e-23)
(0.79768 0.277643 1.7403e-22)
(0.809717 0.341853 3.78747e-22)
(0.80991 0.383226 -6.90097e-22)
(0.799351 0.393343 8.29476e-22)
(0.783964 0.365687 -6.54093e-22)
(0.768072 0.292047 3.45832e-22)
(0.758135 0.180989 -7.34274e-22)
(0.756738 0.0482158 9.45201e-22)
(0.765981 -0.0843915 8.06013e-22)
(0.777476 -0.194239 1.31439e-21)
(0.785457 -0.281474 2.97096e-22)
(0.783273 -0.328035 7.13475e-22)
(0.777249 -0.345791 3.76617e-22)
(0.767448 -0.306856 5.99799e-22)
(0.76096 -0.235402 4.01474e-22)
(0.755146 -0.122603 -1.23517e-22)
(0.756004 0.00738691 1.15349e-22)
(0.756208 0.124604 -4.13398e-23)
(0.76036 0.245226 -5.72564e-22)
(0.758408 0.287392 3.46783e-22)
(0.761089 0.329282 -3.40967e-22)
(0.753191 0.262122 -5.23851e-22)
(0.750379 0.191503 -6.74993e-22)
(0.73974 0.0720741 -5.25805e-22)
(0.734166 -0.0872953 3.95881e-22)
(0.725713 -0.13797 -5.19846e-22)
(0.72254 -0.290986 5.06143e-23)
(0.716374 -0.196535 5.07171e-23)
(0.776959 0.185593 -4.32039e-22)
(0.797728 0.276363 -3.55734e-22)
(0.809906 0.341299 -7.28989e-23)
(0.810317 0.383443 2.90467e-22)
(0.800011 0.394123 -1.64681e-22)
(0.784816 0.366733 3.18421e-22)
(0.768967 0.293038 -8.19301e-22)
(0.758944 0.181629 9.79275e-22)
(0.757408 0.0483324 1.67969e-22)
(0.766607 -0.0846744 -5.04567e-22)
(0.778152 -0.194547 -8.54169e-22)
(0.786151 -0.281493 1.5571e-22)
(0.783834 -0.327759 -5.76664e-22)
(0.777598 -0.345404 -2.56193e-22)
(0.767687 -0.306536 -6.78637e-22)
(0.761171 -0.235239 1.12024e-22)
(0.755418 -0.122653 -5.85308e-23)
(0.75627 0.00720131 1.9389e-23)
(0.756525 0.124359 -2.12931e-22)
(0.760825 0.245083 4.86153e-22)
(0.759051 0.287331 2.09505e-22)
(0.761924 0.329402 4.37034e-23)
(0.754011 0.262411 5.72814e-22)
(0.751184 0.191849 2.68807e-22)
(0.740556 0.0724925 2.48996e-22)
(0.734746 -0.0869541 -3.5083e-22)
(0.726403 -0.137702 5.21426e-23)
(0.722596 -0.290777 -1.55317e-22)
(0.716754 -0.196421 -9.98979e-23)
(0.776978 0.183889 -3.82513e-22)
(0.797833 0.275041 -1.21855e-23)
(0.810155 0.34071 2.58745e-22)
(0.81079 0.383632 1.99845e-22)
(0.800743 0.394891 -3.30262e-22)
(0.785745 0.367789 1.96927e-22)
(0.769942 0.294063 9.62949e-22)
(0.759833 0.182316 -6.40231e-22)
(0.758151 0.0484963 -4.11915e-22)
(0.767298 -0.0849214 -3.02294e-22)
(0.778888 -0.194831 8.98706e-22)
(0.786908 -0.281492 -3.35527e-22)
(0.784459 -0.327467 4.07235e-22)
(0.778005 -0.34501 1.07945e-22)
(0.767976 -0.306225 -5.50108e-22)
(0.761427 -0.235094 6.88416e-22)
(0.755733 -0.122726 2.3246e-22)
(0.756583 0.00699489 -3.21698e-23)
(0.756895 0.124091 2.66184e-22)
(0.761347 0.244922 -2.49404e-22)
(0.759749 0.287257 -5.40489e-22)
(0.76281 0.329519 6.99498e-22)
(0.75488 0.262707 -2.77817e-22)
(0.752035 0.192201 5.65324e-22)
(0.741426 0.0729238 3.05443e-22)
(0.735385 -0.0866055 2.76325e-22)
(0.727157 -0.137421 1.0132e-22)
(0.722714 -0.290559 -2.59692e-23)
(0.717187 -0.196315 -4.82405e-24)
(0.777054 0.182133 -4.34862e-22)
(0.797992 0.273677 4.12582e-22)
(0.810463 0.340084 5.6427e-22)
(0.811329 0.383794 1.43045e-22)
(0.801546 0.395646 -7.27772e-22)
(0.786752 0.368854 -2.01748e-22)
(0.770998 0.29512 -1.44275e-22)
(0.7608 0.18305 2.75386e-22)
(0.758967 0.0487081 -8.10743e-22)
(0.768054 -0.085132 1.15905e-21)
(0.779687 -0.195091 2.67153e-22)
(0.787729 -0.281472 1.80603e-21)
(0.785148 -0.327159 6.4686e-22)
(0.778471 -0.344611 1.00961e-22)
(0.768316 -0.305921 4.16227e-22)
(0.761728 -0.234967 -3.95852e-22)
(0.756091 -0.122821 -6.30968e-22)
(0.756941 0.00676751 1.61943e-22)
(0.757317 0.123802 3.11681e-22)
(0.761923 0.244742 7.45139e-22)
(0.760501 0.287169 3.09606e-23)
(0.763745 0.329633 -5.50995e-22)
(0.755798 0.263009 4.14185e-22)
(0.752934 0.19256 -1.11815e-21)
(0.74235 0.0733678 -5.70862e-22)
(0.736084 -0.0862496 1.94202e-22)
(0.727975 -0.137127 -4.58068e-22)
(0.722894 -0.290333 7.32652e-23)
(0.71767 -0.196217 5.58905e-23)
(0.777186 0.180327 7.11823e-22)
(0.798206 0.272271 -6.85238e-22)
(0.81083 0.339422 -2.70267e-22)
(0.811932 0.383927 -9.55671e-22)
(0.802422 0.396387 1.15718e-21)
(0.787836 0.369928 -5.48656e-22)
(0.772134 0.296209 -6.65848e-22)
(0.761848 0.183831 3.67709e-22)
(0.759858 0.0489684 6.96634e-22)
(0.768875 -0.0853059 -1.74096e-22)
(0.780546 -0.195325 -4.48753e-22)
(0.788613 -0.281433 -1.77272e-21)
(0.785901 -0.326836 -1.67836e-21)
(0.778995 -0.344205 -5.39764e-22)
(0.768705 -0.305624 -4.23207e-22)
(0.762071 -0.234857 -1.35624e-22)
(0.75649 -0.122939 -3.97094e-22)
(0.757344 0.00651902 5.65309e-22)
(0.75779 0.12349 1.38842e-23)
(0.762554 0.244543 -1.66157e-22)
(0.761307 0.287069 3.03451e-22)
(0.764731 0.329743 2.28007e-22)
(0.756764 0.263318 6.67788e-23)
(0.75388 0.192924 8.6384e-22)
(0.743327 0.0738241 7.18158e-23)
(0.736843 -0.0858868 -7.67204e-24)
(0.728858 -0.136818 5.1502e-22)
(0.723138 -0.290099 -6.68628e-23)
(0.718205 -0.196125 -6.88284e-23)
(0.777371 0.178471 3.65724e-22)
(0.798472 0.270822 -2.25079e-22)
(0.811254 0.338722 9.83241e-22)
(0.812599 0.384029 2.70183e-22)
(0.803369 0.397114 -3.40278e-22)
(0.788997 0.37101 1.2799e-21)
(0.773351 0.29733 2.24093e-21)
(0.762976 0.184659 -4.21596e-22)
(0.760824 0.0492776 -1.3506e-21)
(0.769763 -0.0854424 -8.04901e-22)
(0.781468 -0.195534 -1.14531e-21)
(0.789561 -0.281376 1.49875e-21)
(0.786719 -0.326496 1.60937e-21)
(0.779577 -0.343793 -8.31068e-22)
(0.769144 -0.305334 1.03885e-21)
(0.762458 -0.234765 -1.58173e-22)
(0.756931 -0.123079 3.88312e-22)
(0.757792 0.00624928 -5.90358e-22)
(0.758314 0.123155 -3.87624e-22)
(0.763239 0.244326 -2.33958e-22)
(0.762167 0.286955 -4.61968e-22)
(0.765766 0.329851 -3.69384e-22)
(0.75778 0.263633 -2.16934e-22)
(0.754873 0.193295 -2.87851e-22)
(0.744359 0.0742923 5.51933e-22)
(0.737662 -0.0855172 -3.55965e-22)
(0.729807 -0.136497 2.31141e-22)
(0.723445 -0.289855 4.23194e-22)
(0.71879 -0.19604 6.1475e-23)
(0.777608 0.176566 -9.35855e-22)
(0.798791 0.269331 3.92815e-24)
(0.811734 0.337983 -1.10605e-21)
(0.813329 0.384101 -2.29926e-22)
(0.804386 0.397825 6.3962e-22)
(0.790234 0.3721 -2.21128e-21)
(0.774649 0.298482 -2.55706e-21)
(0.764186 0.185536 -2.24488e-22)
(0.761867 0.0496365 5.86206e-22)
(0.770718 -0.0855412 1.2515e-21)
(0.782451 -0.195719 7.93759e-22)
(0.790571 -0.281301 -8.42805e-22)
(0.7876 -0.326141 -4.02345e-23)
(0.780217 -0.343373 1.24436e-21)
(0.769632 -0.30505 -8.0426e-22)
(0.762888 -0.234689 -2.26061e-22)
(0.757413 -0.123241 1.56935e-22)
(0.758283 0.00595815 6.68873e-22)
(0.758888 0.122797 7.74198e-23)
(0.763978 0.24409 4.36441e-22)
(0.76308 0.286828 8.42549e-23)
(0.76685 0.329955 2.2496e-22)
(0.758844 0.263956 -3.78226e-22)
(0.755912 0.193671 -2.64326e-22)
(0.745444 0.0747722 -8.57024e-22)
(0.738541 -0.0851411 6.36862e-22)
(0.73082 -0.136162 -6.63067e-22)
(0.723816 -0.289602 -9.73744e-22)
(0.719427 -0.195962 -1.2647e-22)
(0.777897 0.174612 -4.90857e-22)
(0.79916 0.267796 -5.89545e-22)
(0.812269 0.337206 -1.16143e-21)
(0.814121 0.384141 -1.93907e-22)
(0.805473 0.39852 7.24216e-22)
(0.791548 0.373196 1.37926e-21)
(0.776029 0.299666 4.57947e-22)
(0.765478 0.18646 -1.11505e-22)
(0.762986 0.0500455 -4.48302e-23)
(0.77174 -0.0856016 -1.23594e-21)
(0.783497 -0.195879 -1.06748e-21)
(0.791645 -0.281207 1.17165e-21)
(0.788545 -0.32577 -9.38465e-22)
(0.780915 -0.342946 -2.9022e-22)
(0.770168 -0.304771 3.53645e-22)
(0.763359 -0.234629 9.16984e-22)
(0.757934 -0.123426 1.53354e-22)
(0.758818 0.00564552 -8.16033e-22)
(0.759512 0.122416 -1.01304e-22)
(0.764768 0.243835 -2.91797e-22)
(0.764046 0.286688 -2.42344e-22)
(0.767982 0.330056 3.29436e-23)
(0.759956 0.264285 -2.12877e-22)
(0.756998 0.194053 4.31408e-22)
(0.746582 0.0752634 1.03875e-21)
(0.739479 -0.0847588 9.1308e-22)
(0.731898 -0.135814 -8.88819e-23)
(0.724251 -0.28934 1.33933e-21)
(0.720113 -0.19589 2.63328e-23)
(0.778234 0.172608 1.59195e-21)
(0.799577 0.266218 8.96169e-22)
(0.812858 0.336388 1.50476e-21)
(0.814974 0.384148 9.15613e-22)
(0.806629 0.399197 5.63227e-23)
(0.792939 0.374299 9.45461e-22)
(0.77749 0.30088 -1.95648e-22)
(0.766853 0.187432 1.00479e-22)
(0.764184 0.0505053 1.94652e-21)
(0.772831 -0.0856232 2.05464e-21)
(0.784603 -0.196014 8.87352e-22)
(0.79278 -0.281096 -3.59393e-22)
(0.789553 -0.325384 6.4755e-22)
(0.78167 -0.342511 1.28127e-22)
(0.770752 -0.304498 5.6887e-22)
(0.763872 -0.234586 -3.84968e-22)
(0.758494 -0.123633 2.00333e-22)
(0.759395 0.00531126 1.21253e-22)
(0.760184 0.122012 -8.5503e-23)
(0.765611 0.243561 2.26881e-22)
(0.765063 0.286535 9.78442e-22)
(0.769163 0.330154 4.35849e-22)
(0.761117 0.264621 -5.6897e-22)
(0.75813 0.19444 -8.67854e-22)
(0.747773 0.0757656 -2.67706e-22)
(0.740476 -0.0843707 -2.86592e-21)
(0.733041 -0.135453 8.22738e-22)
(0.72475 -0.289068 -1.16025e-21)
(0.72085 -0.195824 1.29138e-22)
(0.77862 0.170557 2.32305e-22)
(0.800043 0.264596 -1.40409e-21)
(0.813499 0.335528 -1.55503e-22)
(0.815887 0.384121 -3.18116e-21)
(0.807853 0.399856 -1.26969e-21)
(0.794404 0.375406 -5.34488e-23)
(0.779033 0.302125 1.13047e-21)
(0.76831 0.188452 -2.09196e-21)
(0.76546 0.0510162 -1.77371e-21)
(0.77399 -0.0856053 -8.29379e-23)
(0.785772 -0.196123 -9.24605e-22)
(0.793978 -0.280967 -2.10593e-21)
(0.790625 -0.324981 -3.39434e-22)
(0.782482 -0.342068 5.4441e-22)
(0.771383 -0.30423 -3.97056e-22)
(0.764425 -0.234559 1.05969e-22)
(0.759092 -0.123861 -4.20686e-22)
(0.760015 0.00495528 6.24489e-22)
(0.760904 0.121585 -1.59546e-22)
(0.766504 0.243269 -7.39052e-22)
(0.766131 0.286369 -9.25704e-23)
(0.770392 0.330248 -4.29569e-22)
(0.762326 0.264963 4.00803e-22)
(0.759308 0.194833 -6.76405e-22)
(0.749018 0.0762784 -3.01387e-22)
(0.741533 -0.0839768 1.76046e-21)
(0.73425 -0.135079 -1.35343e-21)
(0.725314 -0.288786 5.56452e-22)
(0.721637 -0.195764 -6.69169e-23)
(0.779051 0.168458 -4.0978e-22)
(0.800554 0.262929 1.62017e-21)
(0.814192 0.334627 8.00312e-23)
(0.816859 0.38406 6.75475e-22)
(0.809144 0.400495 7.81483e-22)
(0.795945 0.376518 -1.81631e-21)
(0.780657 0.3034 1.79884e-22)
(0.769852 0.189519 8.50499e-22)
(0.766816 0.0515788 -1.31426e-21)
(0.775219 -0.0855474 -2.08893e-21)
(0.787002 -0.196208 2.50473e-21)
(0.795237 -0.280821 2.79244e-22)
(0.791759 -0.324563 -1.00881e-21)
(0.783351 -0.341616 7.69236e-23)
(0.772061 -0.303966 -6.16465e-22)
(0.765018 -0.234546 -3.02587e-22)
(0.759728 -0.124112 1.39433e-22)
(0.760675 0.00457748 6.03811e-23)
(0.76167 0.121135 -3.28361e-23)
(0.767448 0.242957 1.07325e-21)
(0.76725 0.286191 6.15332e-23)
(0.771668 0.33034 -2.76088e-22)
(0.763583 0.265312 3.8199e-22)
(0.760531 0.195231 1.95582e-21)
(0.750315 0.0768015 -1.79726e-22)
(0.742648 -0.0835777 -2.59545e-22)
(0.735524 -0.134693 3.60111e-22)
(0.725943 -0.288493 -3.52043e-22)
(0.722473 -0.195709 1.94654e-23)
(0.779527 0.166311 -4.47661e-22)
(0.80111 0.261217 -8.39466e-22)
(0.814934 0.333683 3.79787e-22)
(0.817889 0.383962 1.29949e-21)
(0.810502 0.401114 1.33775e-21)
(0.79756 0.377633 -1.06146e-22)
(0.782362 0.304704 2.24678e-21)
(0.771477 0.190635 -7.22741e-22)
(0.768251 0.0521936 2.2019e-21)
(0.776517 -0.085449 -1.10228e-21)
(0.788293 -0.196267 -4.12279e-22)
(0.796557 -0.280657 -5.28868e-22)
(0.792957 -0.324129 1.82324e-21)
(0.784277 -0.341155 1.06318e-22)
(0.772786 -0.303705 5.19396e-22)
(0.765651 -0.234549 5.79454e-22)
(0.7604 -0.124384 -3.65576e-22)
(0.761375 0.00417776 -2.75705e-22)
(0.762483 0.12066 -3.73604e-22)
(0.768441 0.242626 -2.26418e-22)
(0.768418 0.286 -1.37431e-21)
(0.772991 0.330429 1.1492e-21)
(0.764888 0.265667 -1.23043e-22)
(0.7618 0.195634 -1.74902e-21)
(0.751664 0.0773345 -1.03724e-21)
(0.743823 -0.0831735 -4.32956e-22)
(0.736862 -0.134293 4.27438e-22)
(0.726638 -0.28819 -3.40409e-22)
(0.723359 -0.195659 2.45209e-23)
(0.780045 0.164117 1.86913e-22)
(0.801709 0.259461 -3.18995e-22)
(0.815725 0.332696 1.86443e-22)
(0.818974 0.383827 -2.37017e-21)
(0.811925 0.401711 -1.33842e-21)
(0.799249 0.378751 1.11029e-21)
(0.784147 0.306036 -2.37107e-21)
(0.773185 0.191798 8.32384e-22)
(0.769767 0.0528611 -9.05508e-22)
(0.777886 -0.0853092 4.48258e-21)
(0.789646 -0.1963 -2.1408e-21)
(0.797938 -0.280477 2.18307e-21)
(0.794216 -0.323679 -1.68539e-21)
(0.785259 -0.340684 -3.15014e-22)
(0.773557 -0.303447 3.45248e-22)
(0.766323 -0.234566 -1.16931e-22)
(0.761108 -0.124677 4.86707e-22)
(0.762116 0.00375607 -7.46564e-22)
(0.76334 0.120163 5.43131e-22)
(0.769482 0.242276 -4.26223e-22)
(0.769636 0.285796 1.63e-21)
(0.774361 0.330514 -2.42955e-22)
(0.766241 0.266029 3.52498e-22)
(0.763114 0.196042 3.13216e-21)
(0.753065 0.0778771 1.60468e-21)
(0.745056 -0.0827645 9.671e-22)
(0.738266 -0.133882 -6.41301e-22)
(0.727399 -0.287876 6.48102e-22)
(0.724295 -0.195615 -3.70761e-23)
(0.780604 0.161877 1.24215e-21)
(0.80235 0.257659 3.54661e-22)
(0.816563 0.331664 -7.34586e-22)
(0.820115 0.383654 1.46353e-21)
(0.813412 0.402286 1.15173e-21)
(0.801011 0.379869 3.66012e-22)
(0.786013 0.307396 4.48263e-22)
(0.774978 0.193009 -6.32721e-22)
(0.771363 0.0535816 -1.9581e-21)
(0.779325 -0.0851276 -3.23689e-21)
(0.79106 -0.196308 3.0295e-22)
(0.799379 -0.28028 5.35381e-22)
(0.795538 -0.323214 -9.54431e-22)
(0.786297 -0.340204 -2.59223e-22)
(0.774373 -0.303192 -6.69891e-22)
(0.767034 -0.234596 -7.83498e-22)
(0.761852 -0.124992 -1.14464e-21)
(0.762894 0.00331232 7.59199e-22)
(0.764242 0.119641 -8.64454e-22)
(0.770571 0.241907 -2.8724e-22)
(0.770903 0.285579 8.02915e-23)
(0.775777 0.330596 -1.12119e-21)
(0.767641 0.266398 4.09984e-22)
(0.764473 0.196454 -2.80428e-21)
(0.754517 0.078429 -1.28548e-21)
(0.746348 -0.0823511 4.25358e-22)
(0.739734 -0.133458 1.69207e-21)
(0.728225 -0.287551 -8.74139e-22)
(0.725279 -0.195574 7.85743e-23)
(0.781203 0.15959 -5.40948e-22)
(0.803031 0.255811 -4.54047e-22)
(0.817446 0.330587 3.31149e-22)
(0.821309 0.383442 -1.03727e-21)
(0.814961 0.402836 -1.47272e-21)
(0.802844 0.380989 -3.59956e-22)
(0.787959 0.308783 1.00311e-21)
(0.776855 0.194267 -7.26662e-22)
(0.773041 0.0543556 2.36288e-21)
(0.780836 -0.0849036 3.7285e-21)
(0.792535 -0.196289 1.23041e-21)
(0.800879 -0.280066 -6.85275e-22)
(0.796921 -0.322733 1.07519e-21)
(0.787391 -0.339712 1.07299e-22)
(0.775234 -0.302939 -2.24666e-22)
(0.767782 -0.234641 5.53741e-22)
(0.76263 -0.125328 3.26901e-22)
(0.763711 0.00284648 7.35422e-22)
(0.765187 0.119096 7.04785e-22)
(0.771707 0.241519 3.15265e-22)
(0.772218 0.28535 -8.56033e-22)
(0.777238 0.330675 1.39593e-21)
(0.769088 0.266772 2.91026e-23)
(0.765876 0.196871 1.95431e-21)
(0.756021 0.0789897 2.88629e-22)
(0.747697 -0.0819336 -2.72968e-21)
(0.741267 -0.133022 -9.57842e-22)
(0.729118 -0.287214 1.61563e-21)
(0.726312 -0.195537 -3.96302e-23)
(0.78184 0.157258 9.51444e-22)
(0.803749 0.253917 4.69239e-22)
(0.818373 0.329464 -1.22964e-21)
(0.822555 0.383189 1.07766e-21)
(0.816572 0.403362 2.41504e-22)
(0.804748 0.382107 -1.94777e-21)
(0.789984 0.310196 2.71141e-21)
(0.778815 0.195573 -1.52176e-21)
(0.7748 0.0551835 -5.29159e-22)
(0.782418 -0.0846363 -2.54719e-21)
(0.794071 -0.196244 -3.33232e-21)
(0.802438 -0.279836 2.93921e-22)
(0.798364 -0.322236 5.23116e-23)
(0.788541 -0.339211 8.27048e-22)
(0.776139 -0.302687 1.81574e-22)
(0.768567 -0.234698 -9.79268e-22)
(0.763442 -0.125684 1.02588e-21)
(0.764565 0.00235849 -2.36024e-22)
(0.766174 0.118526 4.46367e-22)
(0.772888 0.241111 -3.21407e-22)
(0.77358 0.285107 6.33772e-22)
(0.778745 0.330751 -1.33449e-21)
(0.770583 0.267154 -7.56756e-22)
(0.767324 0.197293 -1.78436e-21)
(0.757575 0.0795589 4.87652e-22)
(0.749105 -0.0815123 2.51593e-21)
(0.742864 -0.132575 3.71901e-22)
(0.730078 -0.286865 1.33575e-22)
(0.727393 -0.195504 1.9176e-23)
(0.782512 0.154881 -1.09695e-21)
(0.804505 0.251977 -1.07193e-21)
(0.819341 0.328294 8.94421e-22)
(0.823852 0.382896 9.81465e-22)
(0.818243 0.403862 3.8072e-22)
(0.806722 0.383223 7.80709e-22)
(0.792087 0.311635 -1.22104e-21)
(0.780858 0.196925 1.55021e-21)
(0.77664 0.0560655 -3.8014e-23)
(0.784072 -0.0843252 1.06468e-21)
(0.795667 -0.196172 1.37177e-21)
(0.804055 -0.27959 -1.27763e-21)
(0.799868 -0.321724 8.0868e-22)
(0.789747 -0.338697 -1.27565e-21)
(0.777088 -0.302435 -2.82374e-22)
(0.769389 -0.234768 1.9255e-21)
(0.764287 -0.126061 -7.13009e-22)
(0.765455 0.00184834 -5.87115e-22)
(0.767203 0.117933 -6.84057e-22)
(0.774115 0.240683 7.56539e-22)
(0.774989 0.284852 -9.49504e-22)
(0.780296 0.330823 5.42436e-22)
(0.772124 0.267541 -7.2691e-22)
(0.768815 0.197719 1.52641e-21)
(0.75918 0.0801364 -1.00988e-21)
(0.750569 -0.0810875 2.72928e-22)
(0.744526 -0.132116 -6.22013e-22)
(0.731104 -0.286504 -1.25428e-21)
(0.728523 -0.195475 -1.17091e-22)
(0.783219 0.152459 1.82116e-21)
(0.805295 0.24999 1.00203e-21)
(0.820351 0.327076 3.35383e-22)
(0.825197 0.38256 1.18698e-21)
(0.819972 0.404334 -1.34068e-21)
(0.808764 0.384336 -2.1335e-21)
(0.794267 0.313098 -1.44469e-22)
(0.782985 0.198323 2.45875e-21)
(0.778562 0.057002 2.18494e-21)
(0.785798 -0.0839697 -1.07158e-21)
(0.797325 -0.196073 8.44372e-22)
(0.80573 -0.279327 1.69071e-22)
(0.801432 -0.321197 -1.26617e-21)
(0.791007 -0.338172 3.35687e-22)
(0.778081 -0.302183 1.01321e-21)
(0.770247 -0.23485 -1.41123e-21)
(0.765163 -0.126459 5.615e-22)
(0.766381 0.00131601 -2.59302e-22)
(0.768272 0.117316 -2.85499e-22)
(0.775386 0.240237 -3.15619e-22)
(0.776444 0.284585 7.08275e-22)
(0.781891 0.330891 4.98902e-22)
(0.773712 0.267935 1.49873e-21)
(0.77035 0.198149 1.46037e-22)
(0.760834 0.0807216 2.17356e-21)
(0.752091 -0.0806595 -5.47822e-22)
(0.746251 -0.131645 1.2497e-21)
(0.732198 -0.286131 -5.22477e-22)
(0.7297 -0.195448 2.63945e-23)
(0.783958 0.149993 -4.11489e-22)
(0.806118 0.247956 -4.22137e-22)
(0.821399 0.325811 -4.23374e-22)
(0.82659 0.382181 3.58706e-22)
(0.821759 0.404778 7.67717e-22)
(0.810874 0.385445 -7.80241e-22)
(0.796525 0.314584 -2.95007e-21)
(0.785194 0.199767 -2.47313e-21)
(0.780566 0.0579933 -3.32795e-21)
(0.787597 -0.083569 -7.19798e-22)
(0.799042 -0.195946 -1.24751e-21)
(0.807461 -0.279049 3.1211e-22)
(0.803055 -0.320654 2.4357e-21)
(0.792323 -0.337635 7.43757e-22)
(0.779116 -0.301931 -1.00456e-21)
(0.771141 -0.234943 1.92175e-23)
(0.766072 -0.126876 -4.90822e-22)
(0.767341 0.000761506 9.29286e-22)
(0.76938 0.116674 4.57901e-22)
(0.7767 0.23977 4.37319e-22)
(0.777944 0.284305 4.39357e-22)
(0.78353 0.330956 -1.00092e-21)
(0.775346 0.268334 -8.88787e-23)
(0.771928 0.198583 -2.14976e-21)
(0.762538 0.0813143 -2.69449e-21)
(0.753669 -0.0802286 -1.52273e-22)
(0.74804 -0.131164 -2.92852e-22)
(0.733359 -0.285745 1.18045e-21)
(0.730926 -0.195423 8.0477e-24)
(0.784727 0.147483 4.89847e-23)
(0.806972 0.245876 8.54424e-22)
(0.822483 0.324496 8.69515e-22)
(0.828028 0.381757 -8.40438e-23)
(0.823601 0.405192 1.90635e-21)
(0.81305 0.386548 1.73758e-22)
(0.798858 0.316093 4.48773e-21)
(0.787486 0.201257 6.37631e-22)
(0.782652 0.0590394 2.37966e-22)
(0.789469 -0.0831225 3.73854e-21)
(0.80082 -0.195792 2.8456e-21)
(0.809249 -0.278754 -6.7526e-22)
(0.804736 -0.320096 -2.96586e-21)
(0.793693 -0.337086 -1.55735e-21)
(0.780193 -0.301677 -6.71225e-22)
(0.772069 -0.235048 -7.04583e-22)
(0.767011 -0.127314 4.52653e-23)
(0.768335 0.000184836 1.76053e-22)
(0.770527 0.116009 -1.03511e-23)
(0.778055 0.239284 -4.83967e-23)
(0.779489 0.284011 -5.82468e-22)
(0.785213 0.331018 8.5391e-22)
(0.777027 0.26874 1.38336e-21)
(0.773549 0.199021 1.27743e-22)
(0.76429 0.0819142 2.17642e-21)
(0.755304 -0.0797953 -3.55753e-22)
(0.749892 -0.130671 4.09859e-22)
(0.734588 -0.285346 1.92927e-22)
(0.732198 -0.195401 9.44509e-23)
(0.785526 0.144931 -2.60124e-22)
(0.807856 0.243748 -1.65407e-22)
(0.823603 0.323131 1.59905e-22)
(0.829509 0.381288 3.95301e-22)
(0.825496 0.405575 8.62551e-22)
(0.81529 0.387645 5.23455e-23)
(0.801265 0.317623 -4.85193e-22)
(0.789858 0.202792 1.5809e-21)
(0.784819 0.0601407 -7.77387e-22)
(0.791413 -0.0826296 -4.02891e-21)
(0.802657 -0.195609 -2.83785e-21)
(0.811091 -0.278444 8.44806e-22)
(0.806475 -0.319524 9.77004e-22)
(0.795117 -0.336523 3.39432e-21)
(0.781313 -0.301421 1.13794e-21)
(0.773031 -0.235162 -1.53291e-22)
(0.76798 -0.127771 -2.64997e-22)
(0.769362 -0.000413968 -8.84505e-22)
(0.771711 0.115319 -1.57012e-22)
(0.779453 0.238778 -8.58679e-22)
(0.781078 0.283706 3.34171e-22)
(0.786937 0.331075 5.25481e-22)
(0.778753 0.269152 -1.44479e-21)
(0.775213 0.199463 1.99612e-21)
(0.766091 0.0825208 9.99561e-22)
(0.756994 -0.0793597 2.24715e-21)
(0.751806 -0.130168 -8.42649e-22)
(0.735885 -0.284933 -6.22164e-22)
(0.733518 -0.19538 5.75938e-23)
(0.786353 0.142337 1.20103e-21)
(0.808768 0.241573 -7.08787e-22)
(0.824756 0.321717 -3.09997e-22)
(0.831032 0.380773 6.8233e-23)
(0.827443 0.405926 -1.77604e-21)
(0.817593 0.388733 3.28798e-22)
(0.803745 0.319173 -2.86801e-21)
(0.792311 0.204371 -6.55923e-22)
(0.787068 0.0612972 -3.31573e-21)
(0.79343 -0.0820895 2.36756e-21)
(0.804555 -0.195397 9.11157e-22)
(0.812989 -0.278118 -1.76496e-21)
(0.80827 -0.318936 -1.11904e-21)
(0.796596 -0.335947 -7.32516e-22)
(0.782474 -0.301163 -3.81073e-22)
(0.774026 -0.235287 -2.3724e-22)
(0.768978 -0.128247 3.70498e-23)
(0.770421 -0.00103486 4.93697e-23)
(0.772931 0.114605 1.74064e-22)
(0.78089 0.238252 9.93096e-22)
(0.78271 0.283387 1.42631e-22)
(0.788704 0.331129 -1.40916e-21)
(0.780525 0.269569 1.10834e-22)
(0.77692 0.199909 -2.40213e-21)
(0.76794 0.0831338 -6.9335e-22)
(0.75874 -0.0789223 -2.80715e-21)
(0.753783 -0.129655 -1.35982e-21)
(0.737249 -0.284507 -8.02441e-22)
(0.734885 -0.19536 -8.19709e-23)
(0.787205 0.139701 -9.4897e-22)
(0.809705 0.23935 1.71351e-21)
(0.825941 0.320251 -4.07284e-22)
(0.832595 0.380211 1.1962e-21)
(0.829441 0.406244 -2.735e-22)
(0.819957 0.389811 1.39621e-21)
(0.806298 0.320742 1.43673e-21)
(0.794844 0.205993 2.32561e-21)
(0.789397 0.062509 1.34624e-21)
(0.795521 -0.0815017 1.64597e-21)
(0.806511 -0.195156 1.90673e-22)
(0.81494 -0.277777 2.23211e-21)
(0.810121 -0.318334 1.10828e-21)
(0.798127 -0.335358 -1.27018e-21)
(0.783676 -0.300901 -4.61856e-22)
(0.775055 -0.235421 3.93091e-22)
(0.770004 -0.128743 1.5985e-22)
(0.771511 -0.00167774 4.90977e-22)
(0.774187 0.113866 -3.67686e-22)
(0.782366 0.237706 -2.74698e-22)
(0.784385 0.283055 -7.60238e-23)
(0.790512 0.331178 8.55958e-22)
(0.782342 0.269992 -3.61723e-22)
(0.778668 0.200359 3.38434e-22)
(0.769836 0.083753 -3.72921e-21)