/*--------------------------------*- C++ -*----------------------------------*\
  =========                 |
  \\      /  F ield         | OpenFOAM: The Open Source CFD Toolbox
   \\    /   O peration     | Website:  https://openfoam.org
    \\  /    A nd           | Version:  7
     \\/     M anipulation  |
\*---------------------------------------------------------------------------*/
FoamFile
{
    version     2.0;
    format      ascii;
    class       volScalarField;
    location    "120";
    object      p;
}
// * * * * * * * * * * * * * * * * * * * * * * * * * * * * * * * * * * * * * //

dimensions      [0 2 -2 0 0 0 0];

internalField   nonuniform List<scalar> 
7156
(
-0.273258
-0.242305
-0.224234
-0.219392
-0.227761
-0.246179
-0.267451
-0.282032
-0.282243
-0.265721
-0.23618
-0.200913
-0.167012
-0.138957
-0.118397
-0.105227
-0.0987015
-0.0979488
-0.102377
-0.112207
-0.128259
-0.149851
-0.172582
-0.189177
-0.193198
-0.183141
-0.163176
-0.139764
-0.11805
-0.100647
-0.271179
-0.241803
-0.225216
-0.22189
-0.23178
-0.251503
-0.273582
-0.288335
-0.288151
-0.270825
-0.240282
-0.204018
-0.169241
-0.140456
-0.119289
-0.105592
-0.0985777
-0.0973509
-0.101296
-0.110588
-0.126017
-0.146957
-0.169153
-0.185498
-0.189649
-0.180055
-0.160728
-0.137965
-0.11681
-0.099862
-0.268814
-0.241031
-0.225949
-0.224154
-0.235566
-0.256573
-0.27943
-0.294347
-0.293788
-0.275697
-0.244198
-0.206978
-0.171357
-0.141866
-0.120106
-0.105891
-0.0983947
-0.0966971
-0.10016
-0.108914
-0.123716
-0.143999
-0.165656
-0.181753
-0.186041
-0.176919
-0.158237
-0.136128
-0.115532
-0.099041
-0.266153
-0.239976
-0.226419
-0.226172
-0.239103
-0.261371
-0.284977
-0.300054
-0.299145
-0.280331
-0.247923
-0.209791
-0.173362
-0.143188
-0.120851
-0.106128
-0.098156
-0.0959912
-0.098974
-0.107189
-0.121361
-0.140984
-0.1621
-0.177948
-0.182379
-0.173737
-0.155706
-0.134252
-0.114217
-0.0981835
-0.263187
-0.23863
-0.226617
-0.227932
-0.242376
-0.265879
-0.290207
-0.305442
-0.304211
-0.284721
-0.251456
-0.212457
-0.175256
-0.144425
-0.121527
-0.106306
-0.0978652
-0.0952372
-0.0977416
-0.105419
-0.11896
-0.137919
-0.15849
-0.174091
-0.178669
-0.170512
-0.153135
-0.13234
-0.112866
-0.0972893
-0.259909
-0.236985
-0.226536
-0.229424
-0.245372
-0.270081
-0.295105
-0.3105
-0.308978
-0.288862
-0.254794
-0.214977
-0.17704
-0.145578
-0.122137
-0.106429
-0.0975257
-0.0944391
-0.0964676
-0.103609
-0.116519
-0.13481
-0.154835
-0.170188
-0.174916
-0.167248
-0.150529
-0.130392
-0.111479
-0.0963583
-0.256314
-0.235036
-0.226171
-0.23064
-0.248081
-0.273964
-0.299658
-0.315217
-0.31344
-0.29275
-0.257935
-0.21735
-0.178717
-0.146651
-0.122683
-0.106499
-0.0971412
-0.0936009
-0.0951565
-0.101765
-0.114044
-0.131667
-0.151142
-0.166246
-0.171124
-0.163948
-0.147887
-0.128409
-0.110056
-0.0953902
-0.252401
-0.232781
-0.225516
-0.231575
-0.250492
-0.277515
-0.303855
-0.319585
-0.317591
-0.296383
-0.260878
-0.219576
-0.180287
-0.147645
-0.123168
-0.10652
-0.0967154
-0.0927265
-0.0938128
-0.0998909
-0.111542
-0.128494
-0.147418
-0.16227
-0.167299
-0.160616
-0.145214
-0.126392
-0.108598
-0.094385
-0.24817
-0.23022
-0.224572
-0.232223
-0.252598
-0.280726
-0.307687
-0.323599
-0.321427
-0.299757
-0.263624
-0.221658
-0.181753
-0.148564
-0.123596
-0.106495
-0.0962518
-0.09182
-0.092441
-0.0979924
-0.109018
-0.1253
-0.143671
-0.158269
-0.163447
-0.157255
-0.142511
-0.124343
-0.107105
-0.093343
-0.243623
-0.227355
-0.22334
-0.232585
-0.254392
-0.283588
-0.311149
-0.327253
-0.324945
-0.302873
-0.266171
-0.223596
-0.183117
-0.149409
-0.12397
-0.106428
-0.095754
-0.0908852
-0.0910453
-0.0960744
-0.106478
-0.122091
-0.139908
-0.154248
-0.159571
-0.153869
-0.13978
-0.122264
-0.105577
-0.0922641
-0.238766
-0.224191
-0.221822
-0.232658
-0.255873
-0.286096
-0.314235
-0.330545
-0.328144
-0.305728
-0.268522
-0.225391
-0.184381
-0.150184
-0.124292
-0.106321
-0.0952257
-0.0899262
-0.08963
-0.0941419
-0.103928
-0.118874
-0.136134
-0.150214
-0.155679
-0.150462
-0.137024
-0.120155
-0.104017
-0.0911487
-0.233606
-0.220737
-0.220024
-0.232446
-0.257036
-0.288247
-0.316943
-0.333475
-0.331024
-0.308324
-0.270676
-0.227047
-0.185547
-0.150891
-0.124566
-0.106179
-0.0946704
-0.0889466
-0.0881994
-0.0921995
-0.101374
-0.115656
-0.132358
-0.146173
-0.151773
-0.147037
-0.134245
-0.118018
-0.102424
-0.0899971
-0.228156
-0.217001
-0.217955
-0.231952
-0.257884
-0.290039
-0.319273
-0.336042
-0.333585
-0.310663
-0.272636
-0.228564
-0.186619
-0.151534
-0.124795
-0.106004
-0.0940916
-0.0879503
-0.0867575
-0.0902519
-0.0988211
-0.112441
-0.128586
-0.142131
-0.147861
-0.143599
-0.131445
-0.115854
-0.1008
-0.0888097
-0.222427
-0.212998
-0.215623
-0.231181
-0.258417
-0.291475
-0.321227
-0.338248
-0.33583
-0.312745
-0.274404
-0.229945
-0.187598
-0.152115
-0.124982
-0.105801
-0.0934928
-0.0869409
-0.0853084
-0.0883034
-0.0962743
-0.109237
-0.124823
-0.138094
-0.143945
-0.140149
-0.128628
-0.113666
-0.0991456
-0.0875872
-0.216437
-0.208741
-0.21304
-0.230141
-0.258639
-0.292555
-0.322807
-0.340097
-0.337761
-0.314573
-0.275982
-0.231193
-0.188489
-0.152637
-0.125131
-0.105572
-0.0928774
-0.0859221
-0.0838559
-0.0863582
-0.0937386
-0.106048
-0.121077
-0.134068
-0.140032
-0.136693
-0.125795
-0.111454
-0.0974617
-0.0863301
-0.210205
-0.204248
-0.210219
-0.228841
-0.258556
-0.293286
-0.324019
-0.341595
-0.339383
-0.316151
-0.277372
-0.232311
-0.189293
-0.153104
-0.125244
-0.10532
-0.0922486
-0.0848973
-0.0824037
-0.0844206
-0.0912187
-0.102881
-0.117352
-0.130059
-0.136125
-0.133233
-0.12295
-0.109222
-0.0957498
-0.0850392
-0.203752
-0.199538
-0.207174
-0.22729
-0.258174
-0.293674
-0.324868
-0.342748
-0.3407
-0.317482
-0.278579
-0.233302
-0.190014
-0.153519
-0.125325
-0.105049
-0.0916097
-0.0838699
-0.0809555
-0.0824944
-0.0887191
-0.0997409
-0.113655
-0.126072
-0.132231
-0.129773
-0.120093
-0.106969
-0.0940111
-0.0837153
-0.197103
-0.19463
-0.203921
-0.225499
-0.257502
-0.293726
-0.325365
-0.34356
-0.341719
-0.318571
-0.279605
-0.234169
-0.190655
-0.153883
-0.125376
-0.104761
-0.0909638
-0.0828432
-0.0795148
-0.0805833
-0.0862438
-0.0966319
-0.109989
-0.122111
-0.128352
-0.126317
-0.117229
-0.104699
-0.0922469
-0.0823593
-0.190282
-0.189547
-0.200477
-0.223481
-0.256551
-0.293452
-0.325516
-0.344011
-0.342444
-0.319421
-0.280454
-0.234915
-0.191218
-0.154201
-0.125401
-0.10446
-0.0903139
-0.0818202
-0.0780849
-0.0786908
-0.083797
-0.0935587
-0.106362
-0.118183
-0.124493
-0.122867
-0.11436
-0.102414
-0.0904588
-0.0809723
-0.183319
-0.184311
-0.19686
-0.221248
-0.255329
-0.292863
-0.325335
-0.344143
-0.342884
-0.32004
-0.28113
-0.235543
-0.191708
-0.154475
-0.125402
-0.104149
-0.089663
-0.080804
-0.0766689
-0.0768204
-0.0813822
-0.0905258
-0.102776
-0.114291
-0.120659
-0.119427
-0.111488
-0.100114
-0.0886481
-0.0795552
-0.176244
-0.178947
-0.193087
-0.218814
-0.25385
-0.29197
-0.324832
-0.343984
-0.343046
-0.32043
-0.281638
-0.236057
-0.192126
-0.154709
-0.125382
-0.10383
-0.0890138
-0.0797974
-0.0752699
-0.0749752
-0.0790029
-0.0875371
-0.0992371
-0.110441
-0.116853
-0.116001
-0.108615
-0.0978021
-0.0868164
-0.0781094
-0.169086
-0.173478
-0.189176
-0.216192
-0.252125
-0.290786
-0.324019
-0.343525
-0.342938
-0.3206
-0.281982
-0.236461
-0.192476
-0.154904
-0.125345
-0.103505
-0.0883689
-0.0788033
-0.0738908
-0.0731582
-0.0766624
-0.0845962
-0.0957484
-0.106636
-0.11308
-0.112591
-0.105744
-0.0954803
-0.0849654
-0.0766361
-0.167928
-0.185145
-0.213398
-0.250168
-0.289325
-0.32291
-0.342777
-0.34257
-0.320554
-0.282165
-0.236758
-0.192762
-0.155064
-0.125291
-0.103179
-0.0877311
-0.077824
-0.0725342
-0.0713722
-0.0743636
-0.0817065
-0.092314
-0.10288
-0.109342
-0.1092
-0.102878
-0.0931505
-0.0830966
-0.0751366
-0.162321
-0.181013
-0.210444
-0.247992
-0.2876
-0.321519
-0.341751
-0.341949
-0.3203
-0.282194
-0.236952
-0.192985
-0.155191
-0.125224
-0.102852
-0.0871026
-0.0768621
-0.0712027
-0.0696198
-0.0721093
-0.0788711
-0.0889372
-0.0991765
-0.105645
-0.105832
-0.100018
-0.0908146
-0.0812119
-0.0736124
-0.156682
-0.176796
-0.207346
-0.24561
-0.285626
-0.319858
-0.340458
-0.341085
-0.319843
-0.282072
-0.237047
-0.19315
-0.155287
-0.125147
-0.102528
-0.0864859
-0.0759199
-0.0698987
-0.0679035
-0.0699019
-0.0760929
-0.0856213
-0.0955296
-0.10199
-0.102489
-0.0971676
-0.0884746
-0.0793129
-0.0720649
-0.151031
-0.172513
-0.204116
-0.243037
-0.283417
-0.317943
-0.338912
-0.339986
-0.31919
-0.281805
-0.237045
-0.193258
-0.155357
-0.125062
-0.102209
-0.085883
-0.0749995
-0.0686244
-0.0662255
-0.0677438
-0.0733744
-0.0823691
-0.091942
-0.0983812
-0.0991712
-0.0943285
-0.0861326
-0.0774014
-0.0704957
-0.145392
-0.168178
-0.20077
-0.240287
-0.280988
-0.315787
-0.337123
-0.338663
-0.318348
-0.281397
-0.236951
-0.193313
-0.1554
-0.12497
-0.101896
-0.085296
-0.0741028
-0.0673818
-0.0645879
-0.0656371
-0.0707179
-0.0791832
-0.0884164
-0.0948218
-0.0958824
-0.0915031
-0.0837905
-0.0754792
-0.0689065
-0.139784
-0.163807
-0.197318
-0.237372
-0.278353
-0.313404
-0.335104
-0.337125
-0.317323
-0.280853
-0.236768
-0.193318
-0.155421
-0.124874
-0.101592
-0.0847268
-0.0732319
-0.0661729
-0.0629926
-0.0635837
-0.0681254
-0.076066
-0.0849555
-0.0913144
-0.0927016
-0.0886936
-0.0814503
-0.0735481
-0.0672988
-0.134227
-0.159414
-0.193776
-0.234306
-0.275526
-0.31081
-0.332868
-0.33538
-0.316123
-0.280178
-0.2365
-0.193275
-0.155421
-0.124775
-0.101298
-0.0841773
-0.0723883
-0.0649992
-0.0614414
-0.0615852
-0.0655987
-0.0730194
-0.0815615
-0.0878608
-0.0894769
-0.085902
-0.079114
-0.0716101
-0.0656745
-0.128739
-0.155013
-0.190153
-0.231102
-0.272522
-0.308017
-0.330425
-0.333437
-0.314754
-0.279376
-0.23615
-0.193187
-0.155402
-0.124676
-0.101017
-0.0836491
-0.0715736
-0.0638625
-0.0599359
-0.0596433
-0.0631394
-0.0700452
-0.0782365
-0.0844635
-0.0862866
-0.0831307
-0.0767835
-0.0696668
-0.0640353
-0.123335
-0.150616
-0.186461
-0.227772
-0.269355
-0.305038
-0.327788
-0.331307
-0.313222
-0.278454
-0.235722
-0.193056
-0.155367
-0.124578
-0.100749
-0.0831436
-0.0707893
-0.062764
-0.0584774
-0.0577592
-0.0607489
-0.067145
-0.0749822
-0.081125
-0.0831415
-0.0803818
-0.0744606
-0.0677202
-0.0623829
-0.118031
-0.146234
-0.182711
-0.224329
-0.266038
-0.301888
-0.324968
-0.328997
-0.311535
-0.277416
-0.235219
-0.192884
-0.155316
-0.124483
-0.100496
-0.0826624
-0.0700367
-0.061705
-0.0570672
-0.0559341
-0.0584285
-0.0643201
-0.0718001
-0.0778475
-0.0800431
-0.077657
-0.0721473
-0.0657721
-0.0607193
-0.112839
-0.141877
-0.178914
-0.220784
-0.262584
-0.298578
-0.321976
-0.326516
-0.309699
-0.276265
-0.234644
-0.192675
-0.155252
-0.124392
-0.100261
-0.0822067
-0.0693169
-0.0606866
-0.0557065
-0.0541692
-0.0561791
-0.0615717
-0.0686917
-0.0746328
-0.0769921
-0.0749584
-0.0698454
-0.0638244
-0.0590463
-0.0572981
-0.10777
-0.137553
-0.175077
-0.217149
-0.259004
-0.29512
-0.318823
-0.323872
-0.307721
-0.275008
-0.234
-0.192429
-0.155176
-0.124307
-0.100042
-0.0817777
-0.068631
-0.0597097
-0.0543961
-0.0524651
-0.0540017
-0.0589004
-0.0656581
-0.0714826
-0.0739895
-0.0722878
-0.0675569
-0.0618787
-0.0573657
-0.0558198
-0.102835
-0.133272
-0.171211
-0.213432
-0.255312
-0.291526
-0.315518
-0.321074
-0.305606
-0.273648
-0.233292
-0.19215
-0.155091
-0.124228
-0.0998429
-0.0813764
-0.06798
-0.0587751
-0.0531368
-0.0508228
-0.0518969
-0.0563073
-0.0627
-0.068398
-0.0710365
-0.0696472
-0.0652836
-0.0599371
-0.0556795
-0.0543259
-0.0980413
-0.129041
-0.167322
-0.209645
-0.251517
-0.287806
-0.312072
-0.31813
-0.303362
-0.272191
-0.23252
-0.191838
-0.154996
-0.124157
-0.0996632
-0.0810036
-0.0673647
-0.0578834
-0.0519293
-0.0492427
-0.0498655
-0.0537927
-0.0598181
-0.0653803
-0.0681347
-0.0670384
-0.0630272
-0.0580012
-0.0539896
-0.0528182
-0.0933965
-0.124866
-0.163419
-0.205797
-0.247631
-0.283971
-0.308493
-0.315046
-0.300994
-0.27064
-0.231689
-0.191496
-0.154894
-0.124095
-0.0995042
-0.0806604
-0.0667857
-0.0570353
-0.050774
-0.0477254
-0.0479078
-0.0513571
-0.057013
-0.0624303
-0.0652856
-0.0644634
-0.0607897
-0.0560728
-0.0522977
-0.0512989
-0.0889064
-0.120753
-0.159509
-0.201897
-0.243663
-0.280028
-0.304789
-0.31183
-0.298508
-0.269001
-0.230802
-0.191126
-0.154785
-0.124043
-0.0993666
-0.0803473
-0.0662438
-0.056231
-0.0496713
-0.0462711
-0.0460242
-0.049001
-0.0542847
-0.0595487
-0.0624906
-0.061924
-0.0585729
-0.0541536
-0.0506058
-0.0497697
-0.116707
-0.155599
-0.197952
-0.239623
-0.275987
-0.300968
-0.308488
-0.29591
-0.267276
-0.22986
-0.190729
-0.154671
-0.124001
-0.0992511
-0.080065
-0.0657394
-0.055471
-0.0486213
-0.0448801
-0.0442151
-0.0467245
-0.0516335
-0.0567362
-0.0597513
-0.0594221
-0.0563786
-0.0522455
-0.0489157
-0.0482328
-0.112734
-0.151694
-0.193971
-0.235518
-0.271854
-0.297037
-0.305027
-0.293206
-0.265471
-0.228867
-0.190307
-0.154553
-0.12397
-0.0991579
-0.0798138
-0.0652729
-0.0547553
-0.0476241
-0.0435523
-0.0424805
-0.0445278
-0.0490591
-0.0539929
-0.0570689
-0.0569595
-0.0542087
-0.0503502
-0.0472293
-0.04669
-0.108838
-0.147802
-0.18996
-0.231357
-0.267635
-0.293003
-0.301453
-0.290401
-0.263589
-0.227824
-0.189859
-0.15443
-0.12395
-0.0990872
-0.0795939
-0.0648444
-0.0540838
-0.0466793
-0.0422877
-0.0408204
-0.042411
-0.0465613
-0.0513189
-0.0544445
-0.0545382
-0.0520651
-0.0484694
-0.0455485
-0.0451434
-0.105024
-0.143927
-0.185927
-0.227147
-0.263337
-0.288871
-0.297772
-0.287501
-0.261635
-0.226733
-0.189388
-0.154304
-0.123941
-0.0990394
-0.0794056
-0.0644543
-0.0534566
-0.045787
-0.041086
-0.039235
-0.0403745
-0.0441401
-0.0487142
-0.0518791
-0.0521597
-0.0499499
-0.0466051
-0.043875
-0.0435951
-0.101294
-0.140073
-0.181876
-0.222891
-0.258961
-0.284643
-0.293988
-0.284509
-0.259611
-0.2256
-0.188899
-0.154179
-0.123949
-0.0990181
-0.079252
-0.0641049
-0.0528756
-0.0449481
-0.0399483
-0.037725
-0.0384192
-0.0417957
-0.0461792
-0.0493744
-0.0497987
-0.0478655
-0.0447594
-0.0422108
-0.042047
-0.0976511
-0.136245
-0.177809
-0.218593
-0.254508
-0.280319
-0.290101
-0.281431
-0.257525
-0.224429
-0.188395
-0.154059
-0.123976
-0.0990259
-0.0791349
-0.0637977
-0.0523412
-0.0441626
-0.038874
-0.0362901
-0.0365445
-0.0395271
-0.043713
-0.0469301
-0.0474615
-0.0458163
-0.042935
-0.0405583
-0.0405013
-0.0941013
-0.132448
-0.173733
-0.214257
-0.249982
-0.27591
-0.286126
-0.278275
-0.255376
-0.223213
-0.187862
-0.153926
-0.124003
-0.0990462
-0.0790402
-0.0635209
-0.0518436
-0.0434218
-0.0378557
-0.0349237
-0.0347452
-0.0373288
-0.0413091
-0.0445424
-0.0457368
-0.0438038
-0.0411336
-0.0389193
-0.0389604
-0.0906614
-0.128703
-0.169673
-0.209914
-0.245418
-0.271453
-0.282095
-0.275058
-0.253157
-0.22192
-0.187258
-0.153734
-0.123991
-0.0990445
-0.0789402
-0.0632531
-0.0513664
-0.0427128
-0.0368833
-0.0336191
-0.0330178
-0.0351979
-0.0389612
-0.0421958
-0.0434635
-0.0418202
-0.0393514
-0.0372923
-0.0374245
-0.0873241
-0.125002
-0.165618
-0.205553
-0.2408
-0.266923
-0.277986
-0.271769
-0.250876
-0.220584
-0.186634
-0.153547
-0.124002
-0.0990795
-0.0788869
-0.0630396
-0.0509493
-0.0420705
-0.035989
-0.0324078
-0.0313946
-0.0331666
-0.0366998
-0.0399193
-0.041269
-0.0398785
-0.0375929
-0.0356787
-0.0358937
-0.0839364
-0.121141
-0.161322
-0.200884
-0.235799
-0.261999
-0.273567
-0.268325
-0.248623
-0.219436
-0.186304
-0.153697
-0.124347
-0.09942
-0.0791031
-0.0630612
-0.0507367
-0.0416112
-0.0352688
-0.0313672
-0.0299355
-0.031291
-0.0346006
-0.0378242
-0.0392877
-0.0380806
-0.0359322
-0.0341222
-0.0343897
-0.080499
-0.117053
-0.156661
-0.195754
-0.230254
-0.256582
-0.268793
-0.264733
-0.246433
-0.218512
-0.186281
-0.154172
-0.124991
-0.100016
-0.0795284
-0.0632475
-0.0506484
-0.0412462
-0.0346238
-0.0303801
-0.0285001
-0.0294172
-0.0325248
-0.0358217
-0.0374903
-0.0364719
-0.0344404
-0.0326934
-0.032967
-0.114804
-0.153968
-0.192701
-0.226916
-0.253036
-0.26523
-0.261493
-0.243738
-0.216418
-0.18472
-0.153015
-0.124094
-0.0992466
-0.0787839
-0.0624451
-0.0497223
-0.0401581
-0.0333384
-0.0288205
-0.0265438
-0.0269968
-0.0297735
-0.032997
-0.034853
-0.0341702
-0.032498
-0.0310313
-0.0314705
-0.115766
-0.155472
-0.194498
-0.228998
-0.253528
-0.263488
-0.257776
-0.238553
-0.210499
-0.178757
-0.147464
-0.119136
-0.0948598
-0.0748376
-0.0587845
-0.0461813
-0.036548
-0.0295244
-0.0247409
-0.0219642
-0.0213425
-0.0225594
-0.0242538
-0.0251805
-0.0249205
-0.0245001
-0.0244961
-0.0262684
-0.114911
-0.151782
-0.187106
-0.217511
-0.238874
-0.246974
-0.240585
-0.222171
-0.196044
-0.16678
-0.137961
-0.11173
-0.0890375
-0.07009
-0.054667
-0.0423544
-0.0327808
-0.0256071
-0.0204277
-0.0170398
-0.0157034
-0.0163754
-0.0179631
-0.019169
-0.0193836
-0.0188117
-0.0191108
-0.0212711
-0.114216
-0.147833
-0.179662
-0.207153
-0.22481
-0.230623
-0.223737
-0.206363
-0.182275
-0.155432
-0.128917
-0.104603
-0.0833514
-0.0653949
-0.0505805
-0.0385754
-0.029078
-0.0217856
-0.0163068
-0.0124541
-0.0105012
-0.010574
-0.011849
-0.0130209
-0.0135324
-0.0135161
-0.0141994
-0.0166876
-0.113478
-0.143821
-0.1722
-0.195797
-0.210404
-0.214281
-0.20704
-0.190733
-0.168671
-0.144219
-0.119979
-0.097559
-0.0777374
-0.0607718
-0.0465789
-0.0349008
-0.0254987
-0.0181203
-0.0124054
-0.00816369
-0.00564011
-0.00506161
-0.00583969
-0.00683993
-0.00753565
-0.00794412
-0.00904803
-0.011946
-0.112086
-0.138964
-0.163689
-0.183537
-0.195412
-0.197739
-0.190454
-0.175426
-0.155464
-0.133365
-0.111312
-0.090699
-0.0722487
-0.0562462
-0.0426747
-0.0313426
-0.0220633
-0.0146373
-0.00874636
-0.00419256
-0.00117766
8.93165e-06
-0.000277437
-0.00111135
-0.00186561
-0.0025422
-0.00399904
-0.00724501
-0.109725
-0.133056
-0.154189
-0.170724
-0.18022
-0.181401
-0.174377
-0.160749
-0.142846
-0.122974
-0.102971
-0.0840601
-0.0669152
-0.0518442
-0.0388893
-0.0279186
-0.0187884
-0.0113496
-0.0053344
-0.000541004
0.00287915
0.00460707
0.00478917
0.00416098
0.00338315
0.00248526
0.000745119
-0.00274681
-0.106452
-0.126359
-0.144174
-0.157796
-0.165303
-0.16569
-0.159113
-0.146895
-0.130931
-0.11312
-0.0950107
-0.0776817
-0.0617671
-0.0475894
-0.0352407
-0.0246423
-0.0156861
-0.00826662
-0.0021714
0.00279745
0.0065408
0.0087408
0.00937601
0.00898889
0.00820648
0.00712458
0.00516185
0.0015093
-0.102527
-0.11923
-0.134059
-0.145176
-0.151061
-0.15091
-0.144866
-0.133984
-0.119793
-0.103849
-0.0874638
-0.071591
-0.0568264
-0.0435004
-0.0317436
-0.0215245
-0.0127651
-0.00539499
0.000742606
0.00583168
0.00982253
0.0124223
0.0134857
0.0133609
0.0126072
0.0113877
0.00925909
0.00551843
-0.0982544
-0.112046
-0.124228
-0.133217
-0.137781
-0.137256
-0.131747
-0.122076
-0.109462
-0.0951825
-0.0803491
-0.0658059
-0.05211
-0.0395918
-0.0284098
-0.0185735
-0.010031
-0.00273852
0.00340925
0.00857195
0.0127419
0.0156669
0.0171221
0.0172748
0.0165885
0.0152789
0.0130383
0.00927775
-0.0938854
-0.105101
-0.114968
-0.122151
-0.125618
-0.124812
-0.119788
-0.111172
-0.0999348
-0.087121
-0.0736734
-0.060337
-0.0476292
-0.0358741
-0.0252483
-0.0157951
-0.00748656
-0.000298196
0.00583163
0.0110295
0.0153186
0.0184958
0.0202975
0.0207366
0.0201573
0.0188058
0.0165055
0.0127886
-0.0895961
-0.0985665
-0.106437
-0.112078
-0.114616
-0.113572
-0.108956
-0.101239
-0.0911852
-0.0796512
-0.0674339
-0.0551885
-0.0433911
-0.0323548
-0.0222653
-0.0131931
-0.00513219
0.00192774
0.00801432
0.0132165
0.0175743
0.0209354
0.0230319
0.0237577
0.0233253
0.0219844
0.0196764
0.0160594
-0.0854847
-0.0925236
-0.0986808
-0.102998
-0.104734
-0.103471
-0.0991828
-0.0922164
-0.0831726
-0.07275
-0.0616214
-0.0503596
-0.0393991
-0.0290378
-0.0194643
-0.0107688
-0.00296607
0.0039436
0.0099636
0.0151452
0.019531
0.0230157
0.0253513
0.026354
0.0261078
0.0248348
0.0225724
0.0191051
-0.0815864
-0.0869781
-0.0916687
-0.0948483
-0.0958866
-0.094415
-0.0903807
-0.0840355
-0.0758488
-0.0663889
-0.0562219
-0.0458457
-0.0356531
-0.0259245
-0.0168463
-0.00852193
-0.000984651
0.00575591
0.0116875
0.0168282
0.0212108
0.0247681
0.0272874
0.0285467
0.0285207
0.0273754
0.0252151
0.0219434
-0.0778976
-0.0818939
-0.085335
-0.0875387
-0.0879677
-0.0862968
-0.0824556
-0.0766226
-0.0691625
-0.0605363
-0.0512182
-0.041639
-0.0321505
-0.023014
-0.0144102
-0.00645031
0.000817036
0.007373
0.013196
0.0182783
0.022635
0.0262242
0.0288756
0.030362
0.0305784
0.0296191
0.0276207
0.0245893
-0.0743964
-0.0772181
-0.0796004
-0.0809698
-0.0808689
-0.0790111
-0.0753156
-0.0699055
-0.0630625
-0.055159
-0.0465911
-0.0377292
-0.0288863
-0.0203034
-0.0121531
-0.00455002
0.00244517
0.00880447
0.0145007
0.0195086
0.0238229
0.0274142
0.0301529
0.0318304
0.032296
0.0315726
0.0297959
0.0270495
-0.071055
-0.072895
-0.0743856
-0.0750462
-0.0744879
-0.0724592
-0.0688747
-0.0638159
-0.0574992
-0.0502241
-0.0423202
-0.0341045
-0.0258536
-0.0177877
-0.0100704
-0.00281569
0.00390696
0.0100608
0.0156147
0.0205333
0.0247928
0.0283655
0.0311559
0.0329867
0.033692
0.033238
0.0317361
0.0293175
-0.0678474
-0.0688729
-0.0696179
-0.0696809
-0.0687323
-0.0665521
-0.0630547
-0.0582909
-0.0524256
-0.045699
-0.0383842
-0.0307516
-0.0230439
-0.0154609
-0.00815597
-0.00124064
0.00521052
0.0111529
0.0165519
0.0213672
0.0255617
0.0291021
0.0319177
0.0338671
0.0347901
0.0346179
0.033429
0.0313738
-0.0647516
-0.0651071
-0.0652341
-0.0647982
-0.0635208
-0.0612109
-0.0577853
-0.0532726
-0.0477975
-0.041552
-0.0347616
-0.0276562
-0.0204475
-0.0133155
-0.00640286
0.000182837
0.00636475
0.0120921
0.0173266
0.0220262
0.0261459
0.0296453
0.0324673
0.0345056
0.0356177
0.0357198
0.034861
0.033191
-0.0617504
-0.0615602
-0.0611801
-0.0603327
-0.0587831
-0.0563663
-0.0530039
-0.0487085
-0.043574
-0.0377529
-0.0314311
-0.0248033
-0.0180536
-0.0113429
-0.00480316
0.00146322
0.00737919
0.0128898
0.0179531
0.0225265
0.0265621
0.0300138
0.0328312
0.0349336
0.0362032
0.0365582
0.0360254
0.0347441
-0.0588304
-0.0582013
-0.0574106
-0.0562285
-0.0544583
-0.0519579
-0.0486549
-0.0445514
-0.039717
-0.0342728
-0.0283716
-0.0221778
-0.0158509
-0.00953411
-0.00334831
0.00260955
0.00826387
0.0135573
0.0184451
0.0228843
0.026827
0.0302249
0.03303
0.0351779
0.0365764
0.037155
0.0369271
0.0360189
-0.0559822
-0.0550057
-0.0538874
-0.0524383
-0.0504938
-0.0479327
-0.0446893
-0.0407584
-0.0361915
-0.0310844
-0.0255625
-0.0197643
-0.0138276
-0.0078792
-0.00202928
0.0036312
0.00902906
0.0141063
0.018816
0.0231152
0.0269574
0.0302946
0.0330809
0.0352622
0.0367655
0.0375359
0.0375818
0.0370168
-0.053199
-0.0519529
-0.0505789
-0.0489217
-0.0468447
-0.0442447
-0.0410633
-0.0372909
-0.0329652
-0.028162
-0.0229839
-0.0175476
-0.0119716
-0.00636807
-0.000836727
0.00453769
0.00968509
0.014548
0.0190787
0.0232339
0.0269694
0.0302391
0.033
0.0352058
0.0367935
0.0377262
0.0380116
0.0377516
-0.0504764
-0.0490269
-0.0474586
-0.0456446
-0.0434719
-0.0408537
-0.0377384
-0.0341143
-0.0300086
-0.0254813
-0.0206167
-0.0155125
-0.0102708
-0.00499043
0.000238866
0.0053386
0.0102422
0.0148938
0.0192455
0.0232544
0.0268783
0.0300743
0.032803
0.0350245
0.036679
0.0377483
0.03824
0.0382443
-0.0478116
-0.0462146
-0.0445043
-0.0425779
-0.0403423
-0.0377247
-0.0346806
-0.0311974
-0.0272947
-0.0230201
-0.0184426
-0.0136444
-0.00871336
-0.00373595
0.00120703
0.00604339
0.0107105
0.0151543
0.0193282
0.0231897
0.0266984
0.0298153
0.0325041
0.0347337
0.036438
0.0376213
0.0382885
0.0385177
-0.045203
-0.0435054
-0.0416977
-0.0396969
-0.0374268
-0.0348272
-0.0318597
-0.0285122
-0.0247987
-0.0207573
-0.0164444
-0.0119293
-0.00728735
-0.00259441
0.00207718
0.00666136
0.0110995
0.0153401
0.019338
0.0230518
0.0264431
0.0294756
0.0321165
0.0343482
0.0360848
0.037362
0.0381762
0.0385939
-0.04265
-0.040891
-0.0390234
-0.0369806
-0.0347008
-0.0321345
-0.0292492
-0.0260338
-0.0224984
-0.0186736
-0.0146059
-0.0103536
-0.00598141
-0.00155584
0.00285854
0.00720151
0.0114186
0.015461
0.0192854
0.0228522
0.0261246
0.0290685
0.0316516
0.0338327
0.0356316
0.0369862
0.0379212
0.038494
-0.0401525
-0.0383647
-0.0364686
-0.0344113
-0.032143
-0.0296234
-0.0268257
-0.0237398
-0.0203734
-0.0167512
-0.0129118
-0.00890435
-0.00478456
-0.000610576
0.00356
0.00767251
0.0116765
0.0155263
0.0191805
0.0226014
0.0257541
0.0286067
0.0311296
0.0332918
0.0350986
0.0365095
0.0375407
0.0382381
-0.0377111
-0.0359211
-0.0340226
-0.0319737
-0.029735
-0.0272739
-0.0245685
-0.0216103
-0.0184054
-0.0149738
-0.011348
-0.00756953
-0.00368634
0.000250632
0.00419011
0.00808259
0.0118816
0.0155446
0.0190323
0.0223091
0.0253421
0.0281015
0.0305606
0.0326947
0.0344981
0.0359472
0.0370515
0.0378457
-0.0353263
-0.0335559
-0.0316763
-0.0296551
-0.0274611
-0.0250683
-0.0224594
-0.0196275
-0.0165777
-0.0133266
-0.00990142
-0.00633772
-0.00267684
0.00103658
0.00475695
0.00843953
0.0120417
0.0155239
0.0188493
0.0219843
0.0248979
0.0275626
0.029954
0.0320515
0.0338422
0.0353135
0.0364702
0.0373363
-0.032999
-0.0312656
-0.0294225
-0.0274445
-0.0253076
-0.0229915
-0.0204826
-0.0177757
-0.0148754
-0.0117958
-0.00855998
-0.00519836
-0.00174678
0.00175557
0.00526815
0.00875061
0.012164
0.0154716
0.0186391
0.021635
0.0244302
0.026999
0.0293192
0.0313734
0.0331423
0.0346221
0.035813
0.0367294
-0.0307302
-0.0290476
-0.0272546
-0.0253325
-0.0232628
-0.0210301
-0.018624
-0.016041
-0.0132853
-0.0103693
-0.00731262
-0.00414163
-0.000887501
0.00241535
0.00573082
0.00902256
0.0122551
0.0153944
0.0184088
0.0212685
0.0239466
0.0264188
0.0286644
0.0306704
0.032409
0.033886
0.0350954
0.0360441
-0.0285207
-0.0268995
-0.0251676
-0.0233113
-0.0213169
-0.0191728
-0.0168715
-0.014411
-0.0117955
-0.00903583
-0.00614925
-0.00315855
-9.0978e-05
0.0030231
0.00615155
0.00926162
0.012321
0.0152985
0.0181645
0.0208915
0.023454
0.0258293
0.0279968
0.0299347
0.0316518
0.033117
0.0343322
0.0352988
-0.0263714
-0.0248194
-0.0231569
-0.0213741
-0.019461
-0.0174094
-0.0152143
-0.0128748
-0.0103953
-0.00778553
-0.00506074
-0.00224087
0.000650144
0.00358545
0.00653638
0.00947345
0.0123672
0.0151892
0.0179118
0.0205096
0.0229586
0.0252375
0.0273268
0.0292092
0.0308827
0.0323267
0.0335369
0.03451
-0.0242829
-0.0228058
-0.0212188
-0.0195151
-0.0176878
-0.0157315
-0.013643
-0.0114228
-0.00907525
-0.00660943
-0.00403884
-0.00138112
0.00134258
0.00410843
0.00689082
0.00966318
0.0123988
0.0150714
0.0176558
0.020128
0.0224659
0.0246492
0.0266599
0.0284826
0.0301093
0.0315249
0.0327217
0.0336928
-0.0222558
-0.0208574
-0.01935
-0.0177293
-0.0159909
-0.0141315
-0.0121497
-0.0100466
-0.00782713
-0.00549958
-0.00307616
-0.000572563
0.00199241
0.00459753
0.00721985
0.00983542
0.01242
0.0149494
0.0174005
0.0197511
0.0219804
0.0240694
0.0260011
0.0277611
0.0293385
0.0307205
0.0318976
0.0328602
-0.0202905
-0.018973
-0.0175479
-0.0160126
-0.0143649
-0.0126031
-0.0107271
-0.00873893
-0.00664359
-0.00444895
-0.0021661
0.00019084
0.00260508
0.00505765
0.00752792
0.00999427
0.0124346
0.014827
0.0171499
0.0193828
0.0215062
0.0235024
0.0253552
0.0270506
0.0285766
0.0299212
0.0310738
0.0320232
-0.0183872
-0.0171516
-0.0158099
-0.0143613
-0.012805
-0.0111406
-0.00936911
-0.00749331
-0.00551819
-0.0034513
-0.00130283
0.000914464
0.00318548
0.00549317
0.00781897
0.0101433
0.0124461
0.0147073
0.016907
0.0190262
0.0210467
0.0229519
0.0247262
0.0263561
0.0278292
0.0291337
0.0302583
0.0311911
-0.0165462
-0.0153921
-0.014134
-0.0127723
-0.0113071
-0.00973927
-0.00807053
-0.00630418
-0.00444533
-0.00250119
-0.00048119
0.00160305
0.00373789
0.00590795
0.00809646
0.0102857
0.0124574
0.0145931
0.0166745
0.0186841
0.0206048
0.0224209
0.0241177
0.0256818
0.027101
0.0283635
0.0294578
0.0303716
-0.0147672
-0.0136936
-0.0125184
-0.0112428
-0.00986779
-0.00839496
-0.00682674
-0.00516675
-0.00342016
-0.00159388
0.000303308
0.00226076
0.00426609
0.00630536
0.00836339
0.0104241
0.0124708
0.0144865
0.0164546
0.0183585
0.0201826
0.0219118
0.0235323
0.0250311
0.026396
0.0276154
0.0286777
0.0295708
-0.0130502
-0.0120552