/*--------------------------------*- C++ -*----------------------------------*\
  =========                 |
  \\      /  F ield         | OpenFOAM: The Open Source CFD Toolbox
   \\    /   O peration     | Website:  https://openfoam.org
    \\  /    A nd           | Version:  7
     \\/     M anipulation  |
\*---------------------------------------------------------------------------*/
FoamFile
{
    version     2.0;
    format      ascii;
    class       volVectorField;
    location    "120";
    object      U;
}
// * * * * * * * * * * * * * * * * * * * * * * * * * * * * * * * * * * * * * //

dimensions      [0 1 -1 0 0 0 0];

internalField   nonuniform List<vector> 
7156
(
(0.222619 0.700874 2.81125e-22)
(0.228764 0.713135 -3.46434e-23)
(0.221997 0.714576 -2.53845e-22)
(0.21457 0.696054 -2.6272e-23)
(0.225279 0.637646 2.88297e-22)
(0.267233 0.523737 3.10133e-22)
(0.335899 0.358332 -2.52004e-22)
(0.417787 0.160903 -2.44764e-22)
(0.50266 -0.0452428 -1.64657e-22)
(0.5842 -0.236771 -1.72377e-23)
(0.656868 -0.393333 1.66389e-22)
(0.715718 -0.503801 -7.14748e-23)
(0.758231 -0.568932 -1.53517e-22)
(0.784908 -0.598064 1.59849e-22)
(0.797801 -0.603756 7.47397e-23)
(0.799778 -0.596671 5.07243e-23)
(0.794168 -0.583844 3.08517e-23)
(0.781918 -0.572388 -1.43751e-22)
(0.760369 -0.570054 -1.04148e-24)
(0.727907 -0.575178 7.25264e-23)
(0.690207 -0.566794 2.0273e-22)
(0.660445 -0.512137 -2.5279e-22)
(0.650747 -0.390655 8.97195e-23)
(0.664471 -0.211482 -7.7176e-23)
(0.697459 -0.00787774 2.35724e-22)
(0.741814 0.181496 7.22305e-24)
(0.788357 0.329006 -2.77777e-23)
(0.829003 0.425702 9.34417e-23)
(0.858538 0.478577 1.79107e-23)
(0.876057 0.500566 6.22867e-23)
(0.206098 0.698407 -1.96138e-22)
(0.214401 0.712926 -1.12076e-21)
(0.210883 0.715323 1.07286e-21)
(0.20853 0.695488 -6.67185e-22)
(0.225977 0.633645 -2.85707e-22)
(0.274485 0.515928 -5.7632e-22)
(0.347773 0.348104 1.85111e-21)
(0.432174 0.149873 -1.22907e-21)
(0.517956 -0.0560345 -9.13466e-23)
(0.599264 -0.246619 -2.88241e-22)
(0.670815 -0.401617 7.1519e-22)
(0.727889 -0.510092 4.14705e-22)
(0.768269 -0.573151 -8.93873e-22)
(0.792792 -0.60042 -6.03931e-22)
(0.803754 -0.604591 7.06675e-22)
(0.804057 -0.596392 -2.61419e-22)
(0.797021 -0.582733 -1.10741e-22)
(0.783694 -0.570363 1.92499e-22)
(0.761421 -0.566884 5.10304e-22)
(0.728324 -0.571127 -5.31867e-22)
(0.689656 -0.562966 3.27132e-22)
(0.658414 -0.509964 2.76614e-23)
(0.647065 -0.390967 -3.3125e-22)
(0.659425 -0.214161 2.40546e-22)
(0.69156 -0.0121904 -4.47188e-22)
(0.735652 0.176524 2.56455e-22)
(0.782504 0.324315 -1.32572e-22)
(0.823881 0.421981 -4.89614e-22)
(0.854378 0.476106 8.43682e-23)
(0.872977 0.499219 2.10695e-22)
(0.189992 0.695595 1.49377e-21)
(0.200559 0.71229 1.39732e-21)
(0.200525 0.715472 -1.29867e-21)
(0.203506 0.694161 -9.31623e-22)
(0.227779 0.628906 -1.22721e-23)
(0.282669 0.507656 1.55206e-21)
(0.360325 0.337772 -9.79574e-22)
(0.447017 0.139016 1.81427e-21)
(0.533549 -0.0664881 -2.4248e-21)
(0.61452 -0.256056 2.96493e-21)
(0.684881 -0.409475 -2.41536e-21)
(0.740125 -0.515985 1.25812e-21)
(0.77834 -0.577027 1.1925e-21)
(0.800695 -0.6025 -7.86212e-22)
(0.809732 -0.605214 -6.21241e-23)
(0.808381 -0.595949 4.13816e-22)
(0.799938 -0.581499 -6.82744e-22)
(0.78555 -0.568251 -4.03809e-22)
(0.762576 -0.563642 6.15198e-23)
(0.728885 -0.566995 4.70265e-22)
(0.689297 -0.559049 -5.48852e-22)
(0.656604 -0.507739 3.67652e-22)
(0.643596 -0.391315 -5.14093e-22)
(0.654566 -0.216973 3.47893e-22)
(0.685817 -0.0166973 3.28962e-22)
(0.729612 0.171336 -3.55304e-22)
(0.776743 0.319419 -3.83091e-22)
(0.818822 0.418082 -2.90922e-22)
(0.850264 0.473488 9.34368e-23)
(0.869938 0.49775 -3.81205e-22)
(0.174338 0.692421 3.01376e-22)
(0.187287 0.711196 1.57086e-21)
(0.190972 0.71499 -3.42147e-22)
(0.199523 0.69206 2.21946e-21)
(0.230666 0.623453 -1.19002e-21)
(0.291741 0.498963 1.00391e-21)
(0.373506 0.327374 4.76561e-23)
(0.462271 0.128362 -1.9958e-21)
(0.549403 -0.0765873 1.59916e-21)
(0.629944 -0.265073 -1.23208e-21)
(0.699047 -0.416906 4.64127e-22)
(0.752416 -0.52148 -1.95717e-21)
(0.788439 -0.580562 -4.26096e-22)
(0.808617 -0.60431 7.45233e-22)
(0.815735 -0.605631 1.13787e-21)
(0.812749 -0.595349 -4.28566e-22)
(0.802921 -0.580148 -2.45715e-22)
(0.787487 -0.566057 4.68519e-22)
(0.763837 -0.560337 -1.28595e-22)
(0.729591 -0.562789 -3.55468e-23)
(0.689135 -0.555046 8.72634e-22)
(0.655022 -0.505459 -6.48531e-22)
(0.640348 -0.391691 1.74369e-22)
(0.649899 -0.219907 -9.45492e-22)
(0.680233 -0.0213905 5.66301e-22)
(0.723699 0.165938 1.3484e-21)
(0.771075 0.314321 -9.44888e-22)
(0.813827 0.414006 6.6648e-22)
(0.846197 0.470721 -3.46229e-22)
(0.86694 0.496158 -5.74217e-22)
(0.159175 0.68887 2.97354e-21)
(0.174637 0.709613 2.65044e-21)
(0.18227 0.713847 -5.65889e-21)
(0.1966 0.689179 2.69986e-21)
(0.234613 0.617315 -2.36195e-21)
(0.301652 0.489894 1.8468e-21)
(0.387265 0.316949 -1.33803e-21)
(0.47789 0.117935 -1.78167e-21)
(0.565482 -0.0863177 4.01878e-21)
(0.64551 -0.273663 -4.06628e-22)
(0.713299 -0.423906 1.67631e-21)
(0.76475 -0.526578 1.50747e-21)
(0.798559 -0.583759 -1.25901e-21)
(0.816554 -0.605855 4.67883e-22)
(0.821762 -0.605848 -4.88504e-23)
(0.817163 -0.594595 -3.53823e-22)
(0.80597 -0.578684 7.35156e-22)
(0.789507 -0.563789 1.35876e-22)
(0.765203 -0.556974 -1.14256e-22)
(0.730442 -0.558515 -4.51047e-22)
(0.68917 -0.550959 -2.04386e-22)
(0.653673 -0.503117 -1.6485e-22)
(0.637329 -0.392085 -1.86874e-21)
(0.645433 -0.222954 -3.90477e-22)
(0.674816 -0.0262624 9.10694e-22)
(0.717917 0.160335 -3.26394e-22)
(0.765501 0.309023 -1.16897e-21)
(0.808896 0.409754 3.37603e-22)
(0.842175 0.467803 -1.18717e-21)
(0.863982 0.49444 -2.50511e-23)
(0.144547 0.68492 2.98961e-21)
(0.162659 0.707511 -1.46388e-21)
(0.174463 0.712019 -1.68161e-21)
(0.194748 0.68552 -1.17e-21)
(0.239587 0.610522 -3.01181e-21)
(0.312352 0.480492 -5.08852e-22)
(0.401551 0.306531 6.08605e-21)
(0.493828 0.107759 -4.95344e-22)
(0.581752 -0.0956668 -1.41363e-21)
(0.661193 -0.281822 -8.78837e-22)
(0.727617 -0.430475 1.27934e-21)
(0.777115 -0.531281 -5.10897e-21)
(0.808694 -0.586624 1.11291e-21)
(0.824503 -0.607139 1.344e-21)
(0.827812 -0.60587 -9.14209e-22)
(0.821623 -0.593695 1.48655e-21)
(0.809087 -0.577112 7.18162e-22)
(0.791611 -0.561451 -8.34581e-23)
(0.766676 -0.553562 -4.32649e-22)
(0.731439 -0.554182 -8.94611e-22)
(0.689404 -0.546792 7.32805e-22)
(0.652561 -0.500712 -5.51325e-22)
(0.634545 -0.392489 3.50111e-21)
(0.641173 -0.226104 1.92606e-21)
(0.669569 -0.0313047 -2.46414e-21)
(0.712268 0.154533 3.49012e-21)
(0.760024 0.303528 -1.86444e-21)
(0.804028 0.405326 5.08039e-22)
(0.838198 0.464735 2.20716e-21)
(0.861061 0.492595 2.74144e-22)
(0.130501 0.680554 2.20439e-21)
(0.151408 0.704863 3.31101e-21)
(0.16759 0.709485 -4.63891e-22)
(0.193973 0.681087 1.40467e-22)
(0.245555 0.603108 2.86738e-21)
(0.323791 0.470798 -9.75398e-22)
(0.41631 0.296154 -3.56124e-21)
(0.510039 0.0978538 1.71042e-22)
(0.598177 -0.104624 -1.83335e-21)
(0.67697 -0.289544 -2.13572e-21)
(0.741987 -0.436611 3.97729e-21)
(0.789501 -0.535592 -5.72909e-22)
(0.818837 -0.589159 -4.35231e-22)
(0.832462 -0.608167 -1.11464e-22)
(0.833884 -0.605703 -7.47487e-22)
(0.82613 -0.592652 -3.43455e-21)
(0.812273 -0.575437 1.39705e-21)
(0.7938 -0.559049 -1.16321e-21)
(0.768255 -0.550109 1.91979e-21)
(0.732581 -0.549797 -7.34822e-22)
(0.689838 -0.542549 4.74386e-22)
(0.651691 -0.498239 -2.69655e-22)
(0.632003 -0.392891 -1.37053e-21)
(0.637126 -0.229345 -3.00651e-21)
(0.664498 -0.0365088 -1.24921e-21)
(0.706757 0.148537 4.07879e-21)
(0.754644 0.297839 -7.18215e-22)
(0.799225 0.400722 -1.38959e-21)
(0.834265 0.461514 -1.85703e-22)
(0.858176 0.490621 -2.06955e-22)
(0.117086 0.675751 -2.29152e-21)
(0.140934 0.701642 2.01173e-21)
(0.16169 0.706228 1.45105e-21)
(0.194273 0.675893 -7.84876e-21)
(0.252475 0.595113 5.57886e-21)
(0.335915 0.460856 -3.05249e-21)
(0.431491 0.285851 -1.93294e-21)
(0.526479 0.088239 1.35431e-21)
(0.614725 -0.113182 3.2035e-21)
(0.692816 -0.296828 4.25598e-21)
(0.756391 -0.442316 -1.48096e-21)
(0.801898 -0.539513 -1.8333e-21)
(0.828982 -0.591369 -2.00569e-21)
(0.840428 -0.608945 -1.34902e-21)
(0.839977 -0.605353 1.89026e-21)
(0.830682 -0.591474 1.82721e-21)
(0.815529 -0.573665 4.85634e-22)
(0.796074 -0.556588 -2.10068e-21)
(0.769941 -0.546621 1.60807e-22)
(0.733869 -0.545369 9.56436e-22)
(0.690471 -0.538233 -6.94478e-22)
(0.651066 -0.495694 -6.0381e-22)
(0.629709 -0.393283 1.53593e-21)
(0.633298 -0.232667 2.97413e-21)
(0.659608 -0.0418651 -1.77774e-21)
(0.701385 0.142354 2.57123e-22)
(0.749364 0.291961 -8.93884e-23)
(0.794486 0.395943 2.61539e-21)
(0.830376 0.458139 -3.66886e-22)
(0.855326 0.488516 -9.73456e-22)
(0.104357 0.670492 -3.11325e-21)
(0.131292 0.697826 -4.63521e-21)
(0.156793 0.702239 1.64749e-21)
(0.195641 0.669953 -1.62293e-21)
(0.260306 0.586573 6.49353e-22)
(0.34867 0.450706 8.61957e-21)
(0.44704 0.27565 -5.2851e-21)
(0.543102 0.0789309 2.73081e-21)
(0.631363 -0.121333 -3.48041e-21)
(0.708709 -0.303671 3.99898e-22)
(0.770815 -0.447591 3.39066e-21)
(0.814294 -0.543048 -3.03225e-21)
(0.839123 -0.593259 1.88674e-21)
(0.848398 -0.609478 2.46404e-21)
(0.84609 -0.604825 1.78554e-22)
(0.83528 -0.590165 -1.06187e-21)
(0.818856 -0.571799 -8.32731e-22)
(0.798436 -0.554074 -3.80817e-22)
(0.771734 -0.543106 1.29991e-21)
(0.735299 -0.540904 -1.00128e-21)
(0.691303 -0.53385 -9.21499e-22)
(0.650688 -0.493075 -9.2909e-22)
(0.627668 -0.393655 -1.49511e-21)
(0.629695 -0.236058 -7.92148e-22)
(0.654902 -0.047364 1.87344e-21)
(0.696155 0.135991 -3.22346e-21)
(0.744183 0.285895 1.76564e-21)
(0.789812 0.390991 -1.07953e-21)
(0.82653 0.45461 5.10304e-22)
(0.852509 0.48628 2.66609e-21)
(0.0923696 0.664759 -3.99432e-21)
(0.122531 0.693395 -6.83262e-22)
(0.152927 0.697511 2.03687e-21)
(0.198065 0.66329 -7.24728e-21)
(0.269002 0.577531 1.50835e-21)
(0.362002 0.440389 -6.87952e-21)
(0.462903 0.26558 8.41731e-21)
(0.559866 0.0699437 6.08224e-22)
(0.648059 -0.129072 -1.59748e-20)
(0.724628 -0.310075 1.72857e-20)
(0.785243 -0.452437 -1.71686e-20)
(0.82668 -0.546201 3.84674e-21)
(0.849253 -0.594834 -2.00822e-21)
(0.85637 -0.60977 5.53392e-21)
(0.852222 -0.604124 -3.41033e-21)
(0.839923 -0.588731 -1.08412e-22)
(0.822254 -0.569844 8.31304e-22)
(0.800884 -0.551512 -6.00195e-24)
(0.773631 -0.539571 6.31331e-22)
(0.736872 -0.53641 1.78669e-21)
(0.692333 -0.529403 -8.19884e-22)
(0.650558 -0.490379 3.55961e-22)
(0.625884 -0.393997 -1.07885e-21)
(0.62632 -0.239507 2.00959e-21)
(0.650385 -0.0529964 -1.43483e-21)
(0.691071 0.129453 3.37085e-21)
(0.739104 0.279646 -2.86396e-21)
(0.785203 0.385865 -5.02102e-22)
(0.822726 0.450926 -7.07941e-22)
(0.849723 0.483909 -5.26135e-22)
(0.0811817 0.658534 3.53066e-21)
(0.114703 0.688332 -7.31188e-21)
(0.150116 0.692043 -1.4812e-21)
(0.201525 0.655928 5.16482e-21)
(0.278514 0.568029 1.94983e-21)
(0.375853 0.429942 4.19827e-21)
(0.479028 0.255666 -3.19919e-21)
(0.576727 0.0612885 4.38415e-21)
(0.664784 -0.136398 7.02512e-21)
(0.740552 -0.316041 -1.17337e-20)
(0.799661 -0.456858 -4.73566e-21)
(0.839045 -0.548975 2.45839e-21)
(0.859366 -0.5961 4.42433e-21)
(0.864339 -0.609829 -1.50055e-21)
(0.858372 -0.603258 -1.72402e-21)
(0.844611 -0.587178 1.3941e-21)
(0.825723 -0.567806 -1.57493e-21)
(0.803419 -0.548906 -5.19956e-22)
(0.775634 -0.536022 -1.4342e-21)
(0.738584 -0.531896 -1.02209e-21)
(0.693557 -0.524899 -9.33799e-22)
(0.650677 -0.487604 7.99972e-21)
(0.624363 -0.3943 1.98811e-21)
(0.62318 -0.243001 -7.80618e-21)
(0.646061 -0.0587521 2.56957e-21)
(0.686134 0.122749 -2.34098e-21)
(0.734126 0.273218 7.09215e-22)
(0.780658 0.380567 1.42864e-21)
(0.818963 0.447086 1.92628e-21)
(0.846967 0.481404 -8.13902e-22)
(0.0708541 0.651802 -5.39442e-21)
(0.107855 0.682624 1.29816e-20)
(0.148377 0.685842 -1.15814e-20)
(0.205998 0.647899 -2.61565e-21)
(0.288794 0.558109 -2.76241e-21)
(0.390169 0.419404 4.26309e-21)
(0.495364 0.245932 5.51748e-21)
(0.593647 0.0529748 -9.64909e-21)
(0.681509 -0.143309 4.93915e-21)
(0.756461 -0.32157 1.12492e-20)
(0.814053 -0.460858 -6.49388e-21)
(0.85138 -0.551375 6.34637e-21)
(0.869457 -0.597061 -5.04529e-21)
(0.872305 -0.609658 -1.25712e-21)
(0.864539 -0.60223 -3.52026e-21)
(0.849343 -0.58551 2.03086e-21)
(0.829264 -0.565688 2.22297e-21)
(0.80604 -0.546261 -3.51578e-22)
(0.77774 -0.532466 4.05395e-21)
(0.740434 -0.52737 6.93266e-22)
(0.694973 -0.520341 -1.70815e-21)
(0.651045 -0.484747 -5.27976e-21)
(0.623107 -0.394553 3.95659e-21)
(0.620279 -0.246527 -8.33869e-22)
(0.641934 -0.0646201 3.84833e-22)
(0.681346 0.115885 3.08116e-22)
(0.729252 0.266614 1.14644e-21)
(0.776177 0.375099 -1.94201e-21)
(0.81524 0.443089 -1.50386e-21)
(0.844238 0.478762 -7.61101e-22)
(0.0614482 0.644549 6.06502e-21)
(0.102033 0.676265 -6.24434e-21)
(0.147724 0.678919 5.81406e-21)
(0.211456 0.639235 -2.60111e-22)
(0.29979 0.547816 2.82058e-21)
(0.404894 0.40881 -7.70999e-21)
(0.511858 0.236398 4.09483e-21)
(0.610584 0.0450124 2.65871e-21)
(0.698208 -0.149805 -6.5945e-21)
(0.772335 -0.326666 5.05026e-21)
(0.828407 -0.46444 -9.73189e-21)
(0.863675 -0.553407 5.05012e-21)
(0.87952 -0.597723 4.39465e-22)
(0.880263 -0.609265 -4.77338e-22)
(0.87072 -0.601047 2.8562e-21)
(0.854119 -0.583734 -2.49793e-21)
(0.832875 -0.563494 2.59902e-21)
(0.808749 -0.543582 -5.32467e-21)
(0.779947 -0.52891 4.19219e-21)
(0.742419 -0.522839 -4.02284e-21)
(0.696578 -0.515737 4.08232e-21)
(0.651661 -0.481808 -1.9189e-21)
(0.622121 -0.394748 -3.88696e-21)
(0.617622 -0.250074 2.9278e-21)
(0.638005 -0.0705891 3.28564e-21)
(0.676711 0.108869 -4.24912e-21)
(0.724482 0.25984 7.73483e-22)
(0.771761 0.369461 1.45465e-21)
(0.811556 0.438936 -2.16766e-21)
(0.841534 0.475983 2.27959e-22)
(0.0530262 0.636767 1.77402e-21)
(0.0972795 0.669251 -6.45636e-22)
(0.148163 0.671287 4.84075e-22)
(0.217868 0.629975 -9.5497e-21)
(0.31145 0.537191 1.13346e-20)
(0.419972 0.398194 -1.31706e-20)
(0.528463 0.227083 4.22869e-21)
(0.627504 0.0374068 4.62632e-21)
(0.714854 -0.155888 -2.61916e-21)
(0.788157 -0.331334 -3.31173e-22)
(0.842709 -0.46761 7.43464e-22)
(0.875921 -0.555076 -5.16472e-21)
(0.889548 -0.598093 3.86069e-21)
(0.88821 -0.608653 -4.32774e-21)
(0.876916 -0.599713 5.97996e-21)
(0.858936 -0.581854 2.83392e-21)
(0.836558 -0.56123 1.706e-21)
(0.811544 -0.540871 -4.29655e-21)
(0.782255 -0.525358 1.65016e-22)
(0.744535 -0.518311 1.27415e-21)
(0.698369 -0.511091 1.18461e-22)
(0.652523 -0.478786 3.98272e-21)
(0.621405 -0.394876 -1.45153e-21)
(0.615212 -0.253629 -7.396e-22)
(0.63428 -0.0766481 9.65039e-22)
(0.672228 0.101709 3.28244e-22)
(0.719816 0.252898 2.56304e-21)
(0.76741 0.363655 -1.36822e-21)
(0.80791 0.434625 1.34267e-21)
(0.838854 0.473064 2.49374e-21)
(0.04565 0.628447 -3.75069e-21)
(0.0936336 0.661583 1.41587e-21)
(0.149696 0.66297 -1.05891e-21)
(0.225197 0.620157 1.45544e-20)
(0.323721 0.526279 1.93322e-22)
(0.435349 0.387588 1.0309e-21)
(0.54513 0.218004 -1.36747e-20)
(0.644371 0.0301584 3.7651e-21)
(0.731425 -0.161563 5.8947e-21)
(0.80391 -0.335579 -1.90925e-21)
(0.856946 -0.470372 -1.36027e-21)
(0.888109 -0.556388 -7.69043e-22)
(0.899535 -0.598177 8.78244e-21)
(0.896145 -0.60783 -1.16867e-21)
(0.883124 -0.598235 1.46721e-21)
(0.863794 -0.579876 -1.17741e-21)
(0.840311 -0.5589 -1.39944e-21)
(0.814426 -0.538134 2.50655e-21)
(0.784661 -0.521818 -9.3069e-22)
(0.746779 -0.513794 -4.93116e-21)
(0.70034 -0.506411 4.14503e-21)
(0.653628 -0.47568 -9.20675e-22)
(0.620963 -0.394928 8.01105e-22)
(0.613052 -0.257179 -1.1245e-21)
(0.63076 -0.0827859 4.20302e-21)
(0.6679 0.0944129 -4.28831e-21)
(0.715255 0.245795 -1.11194e-23)
(0.763122 0.357683 -7.33256e-23)
(0.804301 0.430156 -3.75206e-22)
(0.836195 0.470006 5.2377e-22)
(0.0393803 0.619586 2.36493e-21)
(0.09113 0.653269 5.12769e-21)
(0.152321 0.653993 -7.74092e-22)
(0.233405 0.609823 1.03446e-21)
(0.336551 0.515122 -3.65509e-21)
(0.450971 0.377023 -5.41191e-21)
(0.561816 0.209176 9.2365e-21)
(0.661154 0.0232683 1.18873e-21)
(0.7479 -0.166834 -4.42622e-21)
(0.819579 -0.339407 -4.9537e-21)
(0.871107 -0.472733 -3.42141e-22)
(0.900229 -0.557349 2.17229e-21)
(0.909477 -0.59798 -4.40852e-21)
(0.904064 -0.606801 -2.82484e-21)
(0.889344 -0.596617 -1.73663e-21)
(0.868691 -0.577805 -2.49956e-21)
(0.844133 -0.556507 -7.98712e-22)
(0.817393 -0.535373 1.82426e-21)
(0.787164 -0.518295 -8.46067e-22)
(0.749148 -0.509296 2.01388e-22)
(0.702488 -0.501703 1.2551e-21)
(0.654973 -0.472491 -2.79708e-21)
(0.620794 -0.394895 -2.53066e-21)
(0.611147 -0.260711 1.47403e-21)
(0.627448 -0.0889906 -3.57227e-21)
(0.663729 0.0869896 -1.69936e-21)
(0.710801 0.238534 3.86481e-21)
(0.758899 0.351546 1.17801e-21)
(0.800728 0.42553 -1.92777e-21)
(0.833556 0.466806 3.00792e-22)
(0.034276 0.610187 6.3224e-21)
(0.0897987 0.64432 -3.70559e-21)
(0.156027 0.644385 2.40887e-22)
(0.242452 0.599019 -9.08955e-21)
(0.349887 0.503763 1.50052e-20)
(0.466787 0.366527 -1.53977e-20)
(0.578477 0.20061 8.39633e-21)
(0.677822 0.0167363 -9.93848e-22)
(0.76426 -0.171708 7.00816e-21)
(0.835149 -0.342825 -1.97151e-20)
(0.885178 -0.474699 1.16283e-20)
(0.912274 -0.557964 -4.4639e-21)
(0.919368 -0.597509 1.10979e-20)
(0.911963 -0.605571 1.54989e-21)
(0.895573 -0.594864 5.15743e-23)
(0.873627 -0.575646 -1.29351e-21)
(0.848023 -0.554056 -3.64064e-21)
(0.820444 -0.532593 4.88066e-21)
(0.789761 -0.514793 -1.46026e-21)
(0.751638 -0.504824 1.02064e-21)
(0.704807 -0.496974 -1.08873e-21)
(0.656553 -0.469221 -1.04988e-22)
(0.620899 -0.394771 3.34048e-21)
(0.609498 -0.264211 -2.8683e-21)
(0.624347 -0.0952495 2.87849e-21)
(0.659717 0.0794478 -3.79851e-22)
(0.706453 0.231121 -9.10339e-22)
(0.75474 0.345246 2.67155e-21)
(0.79719 0.420746 -1.23226e-21)
(0.830935 0.463464 4.61261e-23)
(0.0303928 0.600254 6.011e-21)
(0.0896648 0.634753 -5.13178e-21)
(0.160803 0.634183 -1.43122e-21)
(0.252295 0.587788 2.72027e-22)
(0.363677 0.492242 4.30826e-23)
(0.482746 0.356127 8.76096e-22)
(0.595073 0.192317 5.66017e-22)
(0.69435 0.0105605 1.92705e-20)
(0.780486 -0.176191 -2.97896e-22)
(0.850605 -0.345839 -3.37163e-21)
(0.89915 -0.476277 4.70596e-22)
(0.924234 -0.558241 -6.61638e-21)
(0.929201 -0.596771 -2.49601e-21)
(0.91984 -0.604146 1.65207e-21)
(0.90181 -0.592982 -2.13988e-21)
(0.878599 -0.573403 -2.33996e-21)
(0.85198 -0.55155 2.96633e-21)
(0.82358 -0.529795 -7.80167e-22)
(0.792449 -0.511317 -1.82101e-21)
(0.754244 -0.500385 3.03674e-21)
(0.707291 -0.49223 -1.26084e-21)
(0.658363 -0.46587 1.58917e-21)
(0.621277 -0.394548 -2.34533e-21)
(0.60811 -0.267668 1.04088e-21)
(0.621459 -0.10155 1.78602e-21)
(0.655863 0.0717966 -3.55197e-21)
(0.702212 0.223561 -2.61916e-22)
(0.750645 0.338786 2.5414e-21)
(0.793685 0.415804 7.45772e-22)
(0.82833 0.45998 -7.4148e-22)
(0.0277828 0.589799 -1.65607e-21)
(0.0907474 0.624591 4.91353e-21)
(0.166629 0.623423 -7.7085e-21)
(0.26289 0.576177 8.07046e-21)
(0.377869 0.4806 2.23158e-20)
(0.4988 0.345849 -1.48256e-20)
(0.611566 0.184304 -2.01511e-21)
(0.710713 0.00474185 -4.61385e-21)
(0.796563 -0.180292 5.46416e-21)
(0.865937 -0.348458 7.43225e-21)
(0.91301 -0.477473 -2.73442e-21)
(0.936103 -0.558186 -2.21144e-21)
(0.938973 -0.595772 2.0148e-21)
(0.927693 -0.602533 -2.55836e-21)
(0.908054 -0.590974 -2.20701e-21)
(0.883605 -0.571082 2.07416e-21)
(0.856002 -0.548995 1.84518e-21)
(0.826798 -0.526983 -4.38974e-22)
(0.795228 -0.507872 -2.54258e-21)
(0.756963 -0.495988 1.8938e-21)
(0.709935 -0.48748 -2.66097e-22)
(0.660398 -0.462442 -3.28975e-21)
(0.621927 -0.394219 -7.08599e-22)
(0.606984 -0.271067 -1.36139e-21)
(0.618787 -0.107879 4.26853e-22)
(0.652171 0.0640454 2.81669e-21)
(0.698079 0.21586 7.57616e-22)
(0.746613 0.332168 -6.90834e-21)
(0.790213 0.410705 4.70079e-21)
(0.825738 0.456352 -2.14816e-21)
(0.0264929 0.578838 4.95641e-21)
(0.0930598 0.613861 8.97523e-21)
(0.173483 0.612147 -2.11417e-21)
(0.274191 0.564233 -1.3677e-20)
(0.392414 0.468875 2.7822e-20)
(0.514904 0.335714 -1.72556e-20)
(0.627925 0.176579 1.76859e-20)
(0.72689 -0.000723824 -1.30868e-20)
(0.812479 -0.184019 -1.21155e-20)
(0.881131 -0.350691 -8.95293e-21)
(0.926749 -0.478294 3.78299e-21)
(0.947871 -0.557806 -2.61716e-21)
(0.948677 -0.594519 1.28234e-21)
(0.935517 -0.600736 6.49036e-21)
(0.914303 -0.588847 -1.64317e-21)
(0.888645 -0.568687 5.65616e-22)
(0.860089 -0.546393 -8.8511e-22)
(0.830099 -0.524159 1.8349e-21)
(0.798093 -0.504461 -4.37041e-23)
(0.759789 -0.491638 -1.25e-21)
(0.712733 -0.48273 -2.17137e-21)
(0.662651 -0.458938 1.65232e-21)
(0.622847 -0.393779 -1.06066e-22)
(0.606122 -0.274398 6.00269e-21)
(0.616333 -0.114225 -4.07671e-21)
(0.64864 0.056204 3.93928e-22)
(0.694054 0.208023 3.21385e-21)
(0.742645 0.325394 -3.32696e-21)
(0.786773 0.405449 1.24345e-21)
(0.823157 0.45258 3.00156e-21)
(0.0265643 0.567391 7.84211e-21)
(0.0966089 0.602593 -1.58616e-20)
(0.181338 0.600399 -1.25322e-20)
(0.286154 0.552003 2.04593e-20)
(0.407261 0.457104 1.32172e-20)
(0.531015 0.325744 -1.11687e-20)
(0.644117 0.169144 -1.85194e-21)
(0.742864 -0.0058502 1.33373e-20)
(0.82822 -0.187383 -2.71001e-20)
(0.896177 -0.352545 2.78042e-20)
(0.940357 -0.478749 -7.71745e-21)
(0.959532 -0.557108 3.39448e-21)
(0.958308 -0.593019 -1.24091e-20)
(0.943311 -0.598762 6.45095e-21)
(0.920556 -0.586604 -3.55278e-21)
(0.893717 -0.566222 7.088e-22)
(0.864237 -0.543749 4.26289e-21)
(0.83348 -0.521326 -7.34422e-22)
(0.801044 -0.501088 3.06491e-21)
(0.762717 -0.487343 -3.20619e-22)
(0.715679 -0.477989 -1.84362e-21)
(0.665115 -0.455362 2.1235e-22)
(0.624032 -0.393223 1.04727e-21)
(0.605526 -0.277646 -3.43677e-21)
(0.614099 -0.120572 5.4408e-22)
(0.645273 0.0482824 1.52397e-21)
(0.690138 0.200057 2.11347e-21)
(0.73874 0.318467 1.56146e-21)
(0.783364 0.400037 -1.00435e-21)
(0.820587 0.448663 7.27983e-22)
(0.0280313 0.555482 -1.52459e-20)
(0.101395 0.590824 9.30755e-22)
(0.190162 0.588227 8.73693e-21)
(0.29873 0.539534 -1.45182e-20)
(0.422364 0.445324 7.84691e-21)
(0.547092 0.315957 1.58789e-20)
(0.660115 0.162002 -2.06435e-20)
(0.758619 -0.0106472 -4.57118e-22)
(0.843777 -0.190394 -1.16109e-21)
(0.911066 -0.354029 1.5192e-20)
(0.953823 -0.478844 -1.41204e-20)
(0.971078 -0.556099 5.33218e-21)
(0.967863 -0.591277 1.28904e-20)
(0.95107 -0.596615 -5.22728e-21)
(0.926811 -0.58425 -1.16121e-20)
(0.898818 -0.563693 2.25119e-21)
(0.868445 -0.541066 6.84195e-21)
(0.836941 -0.518486 3.80204e-23)
(0.804076 -0.497756 -1.0147e-21)
(0.765744 -0.483109 -2.17466e-21)
(0.718766 -0.473263 2.96615e-21)
(0.667784 -0.451718 -4.56472e-21)
(0.62548 -0.392545 1.88018e-21)
(0.605197 -0.280801 3.06686e-21)
(0.612087 -0.126909 -4.40574e-21)
(0.642071 0.040291 3.7574e-21)
(0.686332 0.191968 1.15171e-21)
(0.734899 0.31139 -1.51324e-21)
(0.779984 0.394469 1.91388e-21)
(0.818024 0.444601 -3.37064e-21)
(0.107412 0.578593 9.40363e-21)
(0.199922 0.575676 -2.18582e-20)
(0.311876 0.526872 1.82222e-20)
(0.437678 0.433568 -1.89327e-20)
(0.563098 0.306371 7.51709e-22)
(0.675896 0.155153 -5.21671e-21)
(0.774144 -0.0151218 1.26525e-20)
(0.859144 -0.193063 1.28411e-20)
(0.925789 -0.355152 -4.14799e-20)
(0.967139 -0.478587 4.64726e-21)
(0.982501 -0.554787 2.92452e-20)
(0.977336 -0.589302 -1.7215e-20)
(0.958793 -0.594303 4.47305e-21)
(0.933066 -0.58179 5.29702e-21)
(0.903946 -0.561103 -3.45237e-21)
(0.872711 -0.538348 -1.59882e-21)
(0.840479 -0.515642 1.58702e-21)
(0.807189 -0.494468 1.21882e-21)
(0.768864 -0.478942 -5.30778e-21)
(0.721988 -0.468561 5.686e-21)
(0.67065 -0.44801 -1.48665e-21)
(0.627184 -0.391743 -2.94193e-21)
(0.605135 -0.283851 1.33305e-21)
(0.6103 -0.133221 3.96825e-21)
(0.639034 0.0322405 -9.0353e-22)
(0.682635 0.183761 -8.05668e-21)
(0.731122 0.304166 -6.92251e-22)
(0.776633 0.388747 -1.06118e-21)
(0.815468 0.440393 -1.41313e-21)
(0.114646 0.565942 1.42211e-20)
(0.210579 0.562798 -1.49071e-20)
(0.325544 0.514064 5.23807e-21)
(0.453158 0.42187 -6.76719e-21)
(0.578999 0.297 2.63642e-20)
(0.691438 0.148596 -7.78196e-21)
(0.78943 -0.0192838 -1.39424e-21)
(0.874313 -0.195401 -8.55636e-21)
(0.940337 -0.355924 1.16737e-20)
(0.980296 -0.477987 -1.69364e-20)
(0.993795 -0.553179 5.5525e-21)
(0.986722 -0.5871 9.90943e-22)
(0.966476 -0.591831 1.75234e-21)
(0.93932 -0.579227 6.43622e-21)
(0.909101 -0.558455 -4.1519e-21)
(0.877031 -0.535598 -1.52363e-21)
(0.844094 -0.512794 -3.02529e-22)
(0.81038 -0.491225 -2.33595e-21)
(0.772071 -0.474847 3.99948e-21)
(0.725338 -0.46389 -2.21535e-21)
(0.673705 -0.444244 1.39721e-21)
(0.629139 -0.390814 -4.56438e-21)
(0.60534 -0.286784 -4.44746e-21)
(0.608739 -0.139494 5.12154e-21)
(0.636166 0.0241421 1.07703e-21)
(0.67905 0.175445 -1.87076e-21)
(0.727407 0.296799 7.63208e-21)
(0.77331 0.382872 -7.46967e-21)
(0.812916 0.436041 3.69858e-21)
(0.123078 0.552917 -1.10918e-20)
(0.222095 0.549641 6.6545e-22)
(0.339688 0.501152 -6.767e-22)
(0.468764 0.41026 -9.30268e-21)
(0.594763 0.287858 7.12525e-21)
(0.706726 0.142328 -7.96071e-21)
(0.804471 -0.0231442 4.44996e-21)
(0.889281 -0.197418 -1.10858e-20)
(0.954704 -0.356353 3.97738e-20)
(0.993285 -0.477052 -2.57694e-20)
(1.00495 -0.551282 1.57906e-20)
(0.996017 -0.584677 -9.43784e-21)
(0.974116 -0.589204 -5.70708e-21)
(0.945572 -0.576566 1.43138e-20)
(0.91428 -0.555754 -1.09419e-20)
(0.881405 -0.532821 6.77605e-21)
(0.847784 -0.509944 2.44984e-21)
(0.813646 -0.48803 -7.16278e-22)
(0.775362 -0.470831 -3.17132e-21)
(0.72881 -0.459259 5.24127e-21)
(0.676941 -0.440425 -3.78156e-21)
(0.631338 -0.389756 5.81683e-21)
(0.605813 -0.28959 1.04774e-21)
(0.607408 -0.145715 -1.46725e-21)
(0.633466 0.0160066 -9.10353e-22)
(0.675576 0.167027 1.45703e-21)
(0.723757 0.289292 -6.82639e-22)
(0.770014 0.376844 -1.13892e-21)
(0.810366 0.431542 -2.47424e-22)
(0.132681 0.539566 -5.0702e-21)
(0.234425 0.536256 1.5817e-20)
(0.354264 0.488182 -9.33988e-21)
(0.484455 0.398767 2.44396e-20)
(0.610363 0.278955 -6.62492e-21)
(0.721746 0.136345 -4.31639e-21)
(0.819264 -0.0267147 -8.59719e-21)
(0.904045 -0.199127 2.35415e-20)
(0.968881 -0.356448 -2.52443e-20)
(1.0061 -0.475788 1.25154e-20)
(1.01597 -0.549105 -7.28443e-21)
(1.00522 -0.582041 1.29973e-20)
(0.981711 -0.586427 -7.04173e-21)
(0.951818 -0.573811 1.7267e-21)
(0.919481 -0.553004 -5.29057e-21)
(0.885829 -0.530019 4.52956e-21)
(0.851547 -0.507095 6.87735e-22)
(0.816985 -0.484884 4.14437e-22)
(0.77873 -0.466898 1.42576e-21)
(0.732395 -0.454676 -1.35125e-21)
(0.68035 -0.436559 2.22459e-21)
(0.633774 -0.388567 -2.03334e-21)
(0.60655 -0.292259 -8.65787e-22)
(0.606308 -0.15187 -4.79663e-22)
(0.630938 0.00784781 4.92944e-21)
(0.672216 0.158513 -1.86288e-21)
(0.72017 0.281648 -6.46264e-21)
(0.766744 0.370666 -1.58044e-22)
(0.807817 0.426899 1.33918e-21)
(0.143421 0.525936 3.30588e-21)
(0.247526 0.522692 -1.74044e-20)
(0.369226 0.475193 6.68158e-21)
(0.500195 0.387417 2.0718e-20)
(0.625774 0.270302 -2.93445e-20)
(0.73649 0.130641 8.20871e-21)
(0.833809 -0.0300073 2.01103e-20)
(0.918604 -0.200537 -7.5933e-21)
(0.982864 -0.356217 -6.22814e-21)
(1.01873 -0.474204 -6.83329e-21)
(1.02684 -0.546654 9.82079e-21)
(1.01432 -0.579199 -1.80038e-21)
(0.989257 -0.583507 -1.50394e-21)
(0.958058 -0.570965 -4.18507e-21)
(0.924703 -0.550207 1.90977e-21)
(0.890301 -0.527197 -3.48853e-22)
(0.85538 -0.504248 -7.00666e-22)
(0.820395 -0.481787 -5.03827e-21)
(0.782171 -0.463053 1.8142e-22)
(0.736088 -0.450147 9.41153e-22)
(0.683925 -0.432652 -4.89253e-23)
(0.636439 -0.387248 3.14399e-21)
(0.607551 -0.294783 -9.75961e-22)
(0.605443 -0.157945 -2.68069e-21)
(0.628583 -0.000313422 3.51434e-21)
(0.668969 0.149911 3.69475e-21)
(0.716648 0.273873 -3.75043e-21)
(0.763501 0.364339 2.35502e-21)
(0.805267 0.422111 -1.57046e-21)
(0.155259 0.51208 -1.26923e-20)
(0.261349 0.508999 4.38377e-21)
(0.384532 0.462226 9.47009e-21)
(0.515948 0.376236 -1.82191e-20)
(0.640975 0.261906 1.35231e-20)
(0.75095 0.125209 -2.52635e-20)
(0.84811 -0.0330348 1.51074e-20)
(0.932957 -0.201661 1.46463e-20)
(0.996646 -0.355669 -5.72976e-21)
(1.03116 -0.472309 -1.33258e-20)
(1.03755 -0.543937 1.21396e-20)
(1.02332 -0.576156 -7.6158e-21)
(0.996753 -0.580448 6.18678e-21)
(0.96429 -0.568033 -6.789e-21)
(0.929944 -0.547367 2.69511e-21)
(0.894817 -0.524356 -4.3378e-21)
(0.859283 -0.501404 7.25575e-21)
(0.823875 -0.47874 -6.84149e-21)
(0.78568 -0.459299 4.33526e-21)
(0.73988 -0.445682 -3.05106e-21)
(0.687657 -0.428711 4.33065e-21)
(0.639325 -0.385798 -9.38819e-22)
(0.608811 -0.297154 -3.04106e-21)
(0.604816 -0.163927 2.7562e-21)
(0.626405 -0.00848033 -1.06295e-21)
(0.665836 0.14123 1.29619e-21)
(0.713191 0.26597 1.1736e-21)
(0.760283 0.357865 -3.55809e-21)
(0.802715 0.417178 2.64491e-21)
(0.168148 0.498045 -4.82624e-21)
(0.275845 0.495223 9.71142e-21)
(0.400137 0.44932 -8.76472e-21)
(0.531683 0.365247 1.70989e-21)
(0.655947 0.253772 -2.17569e-20)
(0.765127 0.120041 4.30471e-20)
(0.862172 -0.0358098 -3.57849e-22)
(0.947107 -0.202508 -7.34641e-21)
(1.01022 -0.354813 -1.33339e-20)
(1.0434 -0.470109 1.1784e-20)
(1.0481 -0.540963 -6.42609e-21)
(1.03221 -0.57292 3.49272e-21)
(1.0042 -0.577257 -9.80017e-21)
(0.970512 -0.565018 8.03523e-21)
(0.935202 -0.544487 2.02695e-21)
(0.899375 -0.521501 -2.70983e-21)
(0.863252 -0.498565 1.94389e-21)
(0.827422 -0.475744 -2.80265e-21)
(0.789252 -0.45564 -2.3562e-22)
(0.743765 -0.441287 2.91744e-21)
(0.691538 -0.424742 -2.62979e-21)
(0.642422 -0.38422 -4.90187e-21)
(0.610327 -0.299363 -2.10732e-21)
(0.604426 -0.169802 2.56253e-21)
(0.624405 -0.01665 -4.26845e-22)
(0.662821 0.132479 6.70135e-21)
(0.709799 0.257944 -2.70251e-21)
(0.75709 0.351246 -3.58994e-21)
(0.800159 0.412102 1.40785e-21)
(0.182036 0.483882 -5.17838e-23)
(0.290963 0.481411 1.65913e-20)
(0.415998 0.436509 -2.25617e-21)
(0.547367 0.354471 -8.27439e-21)
(0.670677 0.245905 -1.07713e-21)
(0.779021 0.115129 1.76966e-20)
(0.876003 -0.0383449 3.98703e-21)
(0.961056 -0.203089 9.70192e-22)
(1.02359 -0.353656 -8.05472e-21)
(1.05543 -0.467614 -1.40813e-20)
(1.05848 -0.537739 5.5692e-22)
(1.04099 -0.569498 2.48829e-21)
(1.01158 -0.573938 4.89852e-22)
(0.976722 -0.561923 -6.48351e-21)
(0.940475 -0.541569 3.14741e-21)
(0.903973 -0.518634 -1.30237e-21)
(0.867284 -0.495732 -2.15587e-21)
(0.831034 -0.472797 2.40374e-21)
(0.792883 -0.45208 2.09005e-21)
(0.747735 -0.436971 4.671e-22)
(0.695561 -0.420754 -4.96805e-21)
(0.645723 -0.382515 5.261e-21)
(0.612093 -0.301405 -3.40031e-21)
(0.604277 -0.175559 2.40549e-21)
(0.622588 -0.0247946 -2.63403e-22)
(0.659926 0.123665 -4.44288e-21)
(0.706473 0.2498 5.05731e-21)
(0.753922 0.344484 -2.04556e-21)
(0.797598 0.406882 2.59513e-21)