/*--------------------------------*- C++ -*----------------------------------*\
  =========                 |
  \\      /  F ield         | OpenFOAM: The Open Source CFD Toolbox
   \\    /   O peration     | Website:  https://openfoam.org
    \\  /    A nd           | Version:  7
     \\/     M anipulation  |
\*---------------------------------------------------------------------------*/
FoamFile
{
    version     2.0;
    format      ascii;
    class       volScalarField;
    location    "180";
    object      p;
}
// * * * * * * * * * * * * * * * * * * * * * * * * * * * * * * * * * * * * * //

dimensions      [0 2 -2 0 0 0 0];

internalField   nonuniform List<scalar> 
36600
(
-0.410855
-0.411901
-0.412493
-0.412974
-0.413443
-0.413988
-0.414703
-0.415656
-0.416892
-0.41844
-0.420317
-0.422535
-0.425107
-0.428046
-0.431369
-0.435097
-0.43925
-0.443863
-0.44885
-0.454232
-0.41519
-0.41607
-0.416588
-0.417028
-0.417486
-0.418054
-0.418826
-0.419873
-0.421243
-0.422967
-0.425066
-0.427554
-0.430447
-0.433766
-0.43753
-0.441766
-0.446501
-0.451775
-0.457516
-0.463733
-0.4195
-0.420207
-0.420647
-0.421042
-0.421484
-0.422071
-0.422896
-0.424031
-0.425528
-0.42742
-0.429729
-0.432475
-0.435677
-0.439357
-0.443542
-0.448261
-0.453547
-0.459447
-0.465898
-0.472895
-0.423767
-0.424296
-0.424653
-0.424998
-0.425422
-0.426022
-0.426893
-0.42811
-0.429726
-0.431775
-0.434284
-0.437274
-0.440766
-0.444787
-0.449367
-0.45454
-0.460343
-0.466827
-0.473938
-0.481651
-0.427976
-0.428322
-0.428592
-0.428884
-0.429283
-0.429891
-0.430802
-0.432092
-0.433816
-0.436012
-0.438706
-0.441923
-0.445687
-0.450025
-0.454973
-0.460565
-0.466844
-0.473867
-0.481583
-0.489939
-0.432108
-0.432271
-0.432449
-0.432683
-0.433053
-0.433662
-0.434605
-0.435959
-0.43778
-0.440108
-0.442972
-0.446398
-0.450411
-0.455041
-0.460325
-0.466301
-0.473013
-0.480523
-0.488783
-0.497704
-0.436154
-0.436124
-0.43621
-0.436382
-0.436718
-0.437321
-0.438287
-0.439694
-0.4416
-0.444046
-0.447062
-0.450676
-0.454914
-0.459809
-0.465396
-0.471716
-0.478814
-0.486756
-0.495498
-0.504893
-0.440093
-0.439872
-0.439862
-0.439968
-0.440264
-0.440854
-0.441834
-0.443283
-0.445259
-0.447807
-0.450957
-0.454736
-0.459174
-0.464302
-0.470157
-0.476781
-0.484216
-0.492534
-0.501693
-0.51145
-0.443911
-0.443501
-0.443395
-0.443431
-0.443681
-0.44425
-0.445233
-0.446711
-0.448743
-0.451374
-0.454637
-0.45856
-0.463171
-0.468501
-0.474588
-0.481471
-0.489195
-0.497832
-0.507344
-0.517322
-0.447598
-0.447002
-0.446796
-0.446759
-0.446957
-0.447497
-0.448473
-0.449966
-0.452038
-0.454735
-0.45809
-0.462131
-0.466886
-0.472386
-0.478668
-0.485769
-0.49373
-0.502628
-0.512433
-0.522749
-0.45114
-0.450363
-0.450058
-0.449944
-0.450085
-0.450587
-0.451544
-0.453039
-0.455134
-0.457877
-0.461301
-0.465435
-0.470306
-0.475944
-0.482383
-0.489658
-0.497808
-0.50691
-0.516937
-0.527464
-0.454528
-0.453576
-0.453173
-0.45298
-0.453057
-0.453512
-0.454439
-0.455921
-0.458022
-0.46079
-0.46426
-0.468462
-0.47342
-0.479163
-0.485721
-0.493128
-0.501418
-0.510667
-0.520855
-0.531481
-0.457754
-0.456636
-0.456134
-0.45586
-0.455868
-0.456268
-0.457153
-0.458606
-0.460695
-0.463468
-0.466962
-0.471204
-0.47622
-0.482035
-0.488676
-0.496174
-0.504556
-0.513897
-0.524186
-0.534825
-0.460812
-0.459536
-0.458939
-0.458581
-0.458515
-0.458851
-0.459681
-0.461091
-0.463149
-0.465906
-0.469399
-0.473657
-0.478702
-0.484557
-0.491246
-0.498794
-0.507223
-0.516604
-0.526938
-0.537513
-0.463697
-0.462275
-0.461584
-0.461141
-0.460996
-0.46126
-0.462023
-0.463374
-0.465383
-0.468103
-0.471572
-0.475818
-0.480863
-0.486728
-0.493431
-0.500992
-0.509426
-0.518798
-0.529124
-0.539564
-0.466405
-0.464849
-0.464069
-0.463541
-0.463312
-0.463495
-0.464179
-0.465455
-0.467397
-0.470058
-0.47348
-0.47769
-0.482708
-0.488552
-0.495236
-0.502775
-0.511174
-0.520491
-0.530763
-0.541002
-0.468936
-0.467261
-0.466395
-0.465781
-0.465465
-0.465558
-0.466152
-0.467339
-0.469194
-0.471777
-0.475128
-0.479276
-0.48424
-0.490035
-0.49667
-0.504153
-0.512483
-0.521703
-0.531879
-0.541853
-0.471291
-0.469511
-0.468565
-0.467866
-0.467459
-0.467455
-0.467947
-0.469029
-0.470781
-0.473264
-0.476522
-0.480584
-0.485469
-0.491187
-0.497745
-0.505143
-0.513369
-0.522455
-0.532499
-0.542147
-0.473473
-0.471604
-0.470583
-0.469801
-0.469299
-0.469191
-0.469571
-0.470534
-0.472165
-0.474529
-0.477671
-0.481624
-0.486405
-0.492021
-0.498475
-0.505759
-0.513854
-0.522772
-0.53265
-0.541914
-0.475487
-0.473546
-0.472455
-0.471591
-0.470993
-0.470775
-0.471031
-0.471862
-0.473356
-0.475581
-0.478588
-0.482409
-0.487062
-0.492554
-0.498879
-0.506025
-0.513961
-0.522679
-0.532365
-0.541184
-0.477339
-0.475342
-0.47419
-0.473246
-0.47255
-0.472215
-0.472339
-0.473024
-0.474365
-0.476434
-0.479286
-0.482954
-0.487458
-0.492802
-0.498976
-0.505961
-0.513717
-0.522206
-0.531677
-0.539987
-0.479038
-0.477004
-0.475796
-0.474775
-0.473979
-0.473522
-0.473505
-0.474034
-0.475207
-0.477104
-0.479781
-0.483278
-0.487613
-0.492789
-0.498792
-0.505595
-0.513148
-0.521383
-0.530618
-0.538352
-0.480593
-0.478539
-0.477283
-0.476188
-0.475292
-0.47471
-0.474544
-0.474906
-0.475898
-0.477606
-0.480094
-0.483401
-0.487548
-0.492538
-0.498351
-0.504953
-0.512285
-0.520239
-0.529224
-0.536307
-0.482018
-0.479961
-0.478665
-0.477499
-0.476502
-0.47579
-0.475469
-0.475654
-0.476455
-0.477962
-0.480243
-0.483345
-0.487289
-0.492075
-0.497682
-0.504066
-0.51116
-0.518809
-0.52753
-0.533879
-0.483326
-0.481283
-0.479952
-0.478719
-0.477622
-0.476778
-0.476296
-0.476298
-0.476896
-0.47819
-0.480253
-0.483135
-0.486861
-0.49143
-0.496816
-0.502967
-0.509807
-0.517126
-0.525571
-0.531094
-0.484531
-0.482518
-0.48116
-0.479862
-0.478666
-0.477689
-0.477042
-0.476853
-0.477242
-0.478313
-0.480147
-0.482799
-0.486294
-0.490633
-0.495786
-0.501689
-0.508262
-0.515223
-0.523384
-0.527978
-0.48565
-0.483681
-0.482303
-0.480945
-0.47965
-0.478538
-0.477724
-0.47734
-0.477513
-0.478355
-0.479952
-0.482363
-0.485619
-0.489718
-0.494625
-0.500269
-0.506559
-0.513136
-0.521002
-0.524559
-0.486701
-0.48479
-0.483396
-0.481981
-0.48059
-0.479343
-0.47836
-0.477778
-0.477732
-0.478339
-0.479693
-0.481857
-0.484866
-0.488717
-0.49337
-0.498743
-0.504737
-0.510899
-0.518453
-0.520871
-0.487704
-0.485862
-0.484458
-0.482988
-0.481501
-0.48012
-0.478967
-0.478188
-0.47792
-0.47829
-0.479397
-0.481312
-0.484069
-0.487666
-0.492057
-0.497147
-0.502831
-0.508547
-0.515761
-0.516926
-0.48868
-0.486915
-0.485504
-0.483982
-0.482402
-0.480887
-0.479566
-0.478589
-0.478101
-0.478233
-0.479094
-0.480757
-0.483259
-0.486598
-0.490722
-0.495519
-0.500877
-0.506118
-0.512962
-0.512645
-0.489648
-0.487968
-0.486552
-0.48498
-0.483308
-0.481661
-0.480175
-0.479003
-0.478296
-0.478195
-0.47881
-0.480222
-0.482469
-0.485547
-0.489398
-0.493892
-0.498909
-0.50365
-0.510105
-0.50837
-0.490633
-0.48904
-0.487622
-0.486
-0.484237
-0.482462
-0.480813
-0.47945
-0.47853
-0.478198
-0.478572
-0.479736
-0.48173
-0.484546
-0.488118
-0.492299
-0.496957
-0.501178
-0.50721
-0.504059
-0.491656
-0.490151
-0.488729
-0.487059
-0.485208
-0.483307
-0.4815
-0.479951
-0.478824
-0.478269
-0.478408
-0.479328
-0.48107
-0.483624
-0.486911
-0.490769
-0.495043
-0.498728
-0.504273
-0.499714
-0.492741
-0.49132
-0.489894
-0.488175
-0.486237
-0.484213
-0.482253
-0.480526
-0.4792
-0.478429
-0.47834
-0.479022
-0.480517
-0.482807
-0.485802
-0.489324
-0.493187
-0.496329
-0.501294
-0.495402
-0.49391
-0.492568
-0.491135
-0.489365
-0.487341
-0.485199
-0.483092
-0.481194
-0.479677
-0.4787
-0.478392
-0.478843
-0.480092
-0.482116
-0.484812
-0.487984
-0.491403
-0.494004
-0.498275
-0.491205
-0.495187
-0.493913
-0.492468
-0.490646
-0.488537
-0.48628
-0.484033
-0.481973
-0.480275
-0.479102
-0.478583
-0.478809
-0.479814
-0.481569
-0.483954
-0.486761
-0.489698
-0.491773
-0.495211
-0.487213
-0.496593
-0.495375
-0.493911
-0.492034
-0.48984
-0.487472
-0.485092
-0.482878
-0.481011
-0.479651
-0.47893
-0.478936
-0.479698
-0.481177
-0.483239
-0.485663
-0.488077
-0.489651
-0.492055
-0.483389
-0.49815
-0.49697
-0.495481
-0.493545
-0.491266
-0.488791
-0.486284
-0.483926
-0.481897
-0.48036
-0.479445
-0.479235
-0.479753
-0.480947
-0.482669
-0.484693
-0.486557
-0.487678
-0.488721
-0.479422
-0.499875
-0.498714
-0.497191
-0.495192
-0.492828
-0.490248
-0.487621
-0.485127
-0.482947
-0.481242
-0.480138
-0.479713
-0.479981
-0.480879
-0.482243
-0.483848
-0.485165
-0.485944
-0.485326
-0.47556
-0.501787
-0.500624
-0.499056
-0.496989
-0.494538
-0.491856
-0.489114
-0.486492
-0.484169
-0.482302
-0.481013
-0.480372
-0.480381
-0.480966
-0.481948
-0.48311
-0.483897
-0.484461
-0.482491
-0.475451
-0.5039
-0.502711
-0.501088
-0.498945
-0.496405
-0.493625
-0.490772
-0.488028
-0.485569
-0.483545
-0.482072
-0.481209
-0.480947
-0.481195
-0.481766
-0.482447
-0.48269
-0.482961
-0.480542
-0.484367
-0.506228
-0.504987
-0.503297
-0.501072
-0.49844
-0.49556
-0.492601
-0.48974
-0.487149
-0.484971
-0.483312
-0.482218
-0.481666
-0.481551
-0.481673
-0.481824
-0.481478
-0.481268
-0.478373
-0.483184
-0.508781
-0.507462
-0.505692
-0.503377
-0.500649
-0.497669
-0.494605
-0.491631
-0.488909
-0.486576
-0.484725
-0.483388
-0.482524
-0.482012
-0.481642
-0.481205
-0.480202
-0.479286
-0.475676
-0.47917
-0.511568
-0.510144
-0.50828
-0.505866
-0.503037
-0.499956
-0.496787
-0.4937
-0.490848
-0.488357
-0.486304
-0.484706
-0.483503
-0.482558
-0.481648
-0.480561
-0.478826
-0.47704
-0.472575
-0.474168
-0.514593
-0.513037
-0.511066
-0.508543
-0.505607
-0.502422
-0.499148
-0.495946
-0.492961
-0.490304
-0.488037
-0.486156
-0.484583
-0.483164
-0.481665
-0.47987
-0.477335
-0.47457
-0.469174
-0.468686
-0.517862
-0.516146
-0.514054
-0.511413
-0.508364
-0.505069
-0.501686
-0.498367
-0.495242
-0.49241
-0.489911
-0.487722
-0.485745
-0.483808
-0.481671
-0.479113
-0.475723
-0.471919
-0.465561
-0.463066
-0.521375
-0.519475
-0.517248
-0.514478
-0.511306
-0.507898
-0.504401
-0.500958
-0.497686
-0.494663
-0.491912
-0.489386
-0.486966
-0.484467
-0.481644
-0.478279
-0.473992
-0.469127
-0.46181
-0.457491
-0.525132
-0.523023
-0.520647
-0.517738
-0.514437
-0.510907
-0.50729
-0.503715
-0.500284
-0.497054
-0.494025
-0.491129
-0.488227
-0.485121
-0.481568
-0.477357
-0.472148
-0.466228
-0.457982
-0.452053
-0.529132
-0.526791
-0.524254
-0.521195
-0.517755
-0.514096
-0.51035
-0.506633
-0.503028
-0.49957
-0.496236
-0.492933
-0.489506
-0.48575
-0.481427
-0.476342
-0.470199
-0.463251
-0.45412
-0.446794
-0.533374
-0.530779
-0.528068
-0.524849
-0.52126
-0.517464
-0.51358
-0.509708
-0.505911
-0.502201
-0.498528
-0.494779
-0.490784
-0.486336
-0.481209
-0.47523
-0.468156
-0.460219
-0.450257
-0.441728
-0.537853
-0.534985
-0.532089
-0.528698
-0.524952
-0.521009
-0.516975
-0.512933
-0.508924
-0.504933
-0.500886
-0.49665
-0.492043
-0.486862
-0.480902
-0.474021
-0.466026
-0.457149
-0.446413
-0.436851
-0.542565
-0.539407
-0.536314
-0.532743
-0.52883
-0.52473
-0.520534
-0.516305
-0.512059
-0.507755
-0.503295
-0.498527
-0.493264
-0.487314
-0.4805
-0.472713
-0.46382
-0.454052
-0.4426
-0.432151
-0.547507
-0.544042
-0.540743
-0.536983
-0.532894
-0.528625
-0.524252
-0.519816
-0.515306
-0.510654
-0.505738
-0.500392
-0.494432
-0.48768
-0.479995
-0.471309
-0.461542
-0.450939
-0.438826
-0.42761
-0.552673
-0.548887
-0.545373
-0.541416
-0.537141
-0.532693
-0.528127
-0.52346
-0.518655
-0.513615
-0.508198
-0.502229
-0.495529
-0.487948
-0.479382
-0.469808
-0.4592
-0.447814
-0.435091
-0.423209
-0.558057
-0.553938
-0.550202
-0.546039
-0.541571
-0.53693
-0.532153
-0.52723
-0.522095
-0.516625
-0.510659
-0.504019
-0.496542
-0.488107
-0.478656
-0.468212
-0.456797
-0.444679
-0.431395
-0.418929
-0.563655
-0.559191
-0.555226
-0.550852
-0.54618
-0.541334
-0.536326
-0.531118
-0.525613
-0.519667
-0.513102
-0.505746
-0.497456
-0.48815
-0.477816
-0.466522
-0.454336
-0.441534
-0.427732
-0.41475
-0.569457
-0.56464
-0.560441
-0.55585
-0.550966
-0.5459
-0.540637
-0.535111
-0.529196
-0.522724
-0.515511
-0.507394
-0.498259
-0.488068
-0.476858
-0.464738
-0.451819
-0.438378
-0.424098
-0.410653
-0.575458
-0.570279
-0.565842
-0.561028
-0.555923
-0.55062
-0.545078
-0.539199
-0.532827
-0.525778
-0.517866
-0.508945
-0.498939
-0.487855
-0.475779
-0.462861
-0.449245
-0.435207
-0.420484
-0.40662
-0.581647
-0.576099
-0.571422
-0.566381
-0.561044
-0.555488
-0.549638
-0.543365
-0.536489
-0.52881
-0.520148
-0.510384
-0.499483
-0.487503
-0.474577
-0.46089
-0.446612
-0.432017
-0.416882
-0.402635
-0.588013
-0.582093
-0.577173
-0.5719
-0.566322
-0.560492
-0.554304
-0.547595
-0.540162
-0.531798
-0.522338
-0.511695
-0.499882
-0.487008
-0.47325
-0.458823
-0.443918
-0.4288
-0.413283
-0.398682
-0.594545
-0.588249
-0.583086
-0.577576
-0.571745
-0.565619
-0.559058
-0.551867
-0.543824
-0.534722
-0.524417
-0.512863
-0.500126
-0.486363
-0.471794
-0.456657
-0.441159
-0.425551
-0.409676
-0.394746
-0.601229
-0.594554
-0.589147
-0.583398
-0.5773
-0.570855
-0.563883
-0.556161
-0.547452
-0.537558
-0.526364
-0.513873
-0.500203
-0.485563
-0.470206
-0.45439
-0.43833
-0.422261
-0.406052
-0.390812
-0.608047
-0.600994
-0.595345
-0.58935
-0.582972
-0.576179
-0.568756
-0.560452
-0.551022
-0.540283
-0.52816
-0.51471
-0.500105
-0.484601
-0.468481
-0.452017
-0.435426
-0.418923
-0.4024
-0.386868
-0.614982
-0.607551
-0.601661
-0.595416
-0.588742
-0.581573
-0.573654
-0.564714
-0.554506
-0.542873
-0.529787
-0.51536
-0.499823
-0.483472
-0.466616
-0.449533
-0.432438
-0.415528
-0.398709
-0.382899
-0.622012
-0.614207
-0.608077
-0.601577
-0.594589
-0.58701
-0.57855
-0.568919
-0.557878
-0.545304
-0.531223
-0.515809
-0.499347
-0.482169
-0.464604
-0.446931
-0.42936
-0.412065
-0.394969
-0.378895
-0.629114
-0.62094
-0.614572
-0.60781
-0.600488
-0.592464
-0.583415
-0.573037
-0.561109
-0.547551
-0.53245
-0.516044
-0.498667
-0.480685
-0.462439
-0.444205
-0.426184
-0.408526
-0.391168
-0.374843
-0.636261
-0.627726
-0.621122
-0.61409
-0.606412
-0.597906
-0.588217
-0.577036
-0.564169
-0.54959
-0.53345
-0.516051
-0.497775
-0.479014
-0.460114
-0.441348
-0.422901
-0.404901
-0.387297
-0.370732
-0.643426
-0.634537
-0.627701
-0.62039
-0.612332
-0.603304
-0.592922
-0.580883
-0.56703
-0.551396
-0.534205
-0.515817
-0.49666
-0.477146
-0.457623
-0.43835
-0.419501
-0.401179
-0.383343
-0.36655
-0.650576
-0.641345
-0.634279
-0.62668
-0.618216
-0.608622
-0.597496
-0.584546
-0.569662
-0.552946
-0.534695
-0.515329
-0.495313
-0.475074
-0.454956
-0.435204
-0.415975
-0.397351
-0.379298
-0.362287
-0.657679
-0.648117
-0.640824
-0.632926
-0.624026
-0.613825
-0.601901
-0.587989
-0.572035
-0.554216
-0.534903
-0.514574
-0.493724
-0.472789
-0.452105
-0.431901
-0.412314
-0.393405
-0.375149
-0.357933
-0.664698
-0.654819
-0.647301
-0.639091
-0.629727
-0.618872
-0.6061
-0.591178
-0.57412
-0.555183
-0.534813
-0.513539
-0.491883
-0.470282
-0.449061
-0.42843
-0.408506
-0.389333
-0.370888
-0.353477
-0.671595
-0.661416
-0.653675
-0.645138
-0.635278
-0.623724
-0.610053
-0.594078
-0.575887
-0.555825
-0.534407
-0.512212
-0.489779
-0.467543
-0.445814
-0.424782
-0.404544
-0.385123
-0.366503
-0.34891
-0.678331
-0.667868
-0.659905
-0.651027
-0.640637
-0.628339
-0.613722
-0.596654
-0.57731
-0.556119
-0.533669
-0.510579
-0.487401
-0.464563
-0.442355
-0.420946
-0.400415
-0.380765
-0.361985
-0.344223
-0.684862
-0.674135
-0.665953
-0.656716
-0.645763
-0.632675
-0.617066
-0.598873
-0.578359
-0.556045
-0.532583
-0.508628
-0.484739
-0.461331
-0.438674
-0.416914
-0.39611
-0.37625
-0.357324
-0.339405
-0.691146
-0.680175
-0.671773
-0.662161
-0.650609
-0.636689
-0.620048
-0.6007
-0.579009
-0.555582
-0.531134
-0.506347
-0.481782
-0.457837
-0.43476
-0.412675
-0.391619
-0.371568
-0.352511
-0.33445
-0.697138
-0.685944
-0.677323
-0.667316
-0.655132
-0.640338
-0.622627
-0.602105
-0.579234
-0.554711
-0.529306
-0.503724
-0.478519
-0.454071
-0.430604
-0.408218
-0.386933
-0.366709
-0.347537
-0.329348
-0.702792
-0.691396
-0.682556
-0.672135
-0.659285
-0.643578
-0.624767
-0.603054
-0.57901
-0.553414
-0.527086
-0.500746
-0.474939
-0.450023
-0.426195
-0.403535
-0.382042
-0.361666
-0.342393
-0.324092
-0.708059
-0.696486
-0.687426
-0.676572
-0.663023
-0.646367
-0.62643
-0.603519
-0.578313
-0.551672
-0.524459
-0.497402
-0.471032
-0.445682
-0.421524
-0.398614
-0.376937
-0.356428
-0.337072
-0.318674
-0.712894
-0.701167
-0.691885
-0.680579
-0.6663
-0.648663
-0.62758
-0.603471
-0.577122
-0.54947
-0.521413
-0.493681
-0.466787
-0.441039
-0.416581
-0.393448
-0.371608
-0.350987
-0.331565
-0.313087
-0.717249
-0.705391
-0.695887
-0.684109
-0.66907
-0.650427
-0.628184
-0.602883
-0.575417
-0.546791
-0.517933
-0.489571
-0.462194
-0.436083
-0.411356
-0.388027
-0.366048
-0.345337
-0.325865
-0.307324
-0.721076
-0.709113
-0.699385
-0.687116
-0.671291
-0.651618
-0.628209
-0.60173
-0.573177
-0.54362
-0.514009
-0.485062
-0.457244
-0.430805
-0.40584
-0.382343
-0.360248
-0.339468
-0.319965
-0.301381
-0.724327
-0.712284
-0.702329
-0.689551
-0.672917
-0.652199
-0.627625
-0.599987
-0.570385
-0.539944
-0.509629
-0.480144
-0.451926
-0.425197
-0.400026
-0.376387
-0.354201
-0.333375
-0.31386
-0.29525
-0.726956
-0.714858
-0.704675
-0.691372
-0.673909
-0.652134
-0.626402
-0.597634
-0.567024
-0.53575
-0.504783
-0.474807
-0.446232
-0.41925
-0.393905
-0.370153
-0.347901
-0.327051
-0.307542
-0.288927
-0.728918
-0.716791
-0.706377
-0.692535
-0.674226
-0.651391
-0.624515
-0.59465
-0.56308
-0.531026
-0.499459
-0.469043
-0.440155
-0.412957
-0.387469
-0.363632
-0.34134
-0.32049
-0.301007
-0.282407
-0.730169
-0.718037
-0.707392
-0.692997
-0.673832
-0.649938
-0.62194
-0.591018
-0.55854
-0.525762
-0.493651
-0.462843
-0.433685
-0.406309
-0.380712
-0.356819
-0.334512
-0.313686
-0.29425
-0.275686
-0.730668
-0.718555
-0.707676
-0.692719
-0.672692
-0.647747
-0.618655
-0.586721
-0.553392
-0.519949
-0.48735
-0.456201
-0.426816
-0.3993
-0.373628
-0.349708
-0.327413
-0.306634
-0.287266
-0.26876
-0.730373
-0.718303
-0.707192
-0.691664
-0.670773
-0.644792
-0.61464
-0.581745
-0.547624
-0.513578
-0.480548
-0.44911
-0.419543
-0.391925
-0.366211
-0.342294
-0.320037
-0.29933
-0.280052
-0.261627
-0.729246
-0.717245
-0.7059
-0.689797
-0.668046
-0.64105
-0.609879
-0.576079
-0.54123
-0.506643
-0.47324
-0.441564
-0.41186
-0.384179
-0.358456
-0.334573
-0.312381
-0.291771
-0.272607
-0.254289
-0.727253
-0.715342
-0.703766
-0.687086
-0.664484
-0.6365
-0.604357
-0.569713
-0.5342
-0.499138
-0.465422
-0.433559
-0.403763
-0.376057
-0.35036
-0.32654
-0.304441
-0.283951
-0.264926
-0.246741
-0.72436
-0.712563
-0.700757
-0.683503
-0.660063
-0.631126
-0.598063
-0.562638
-0.526532
-0.491059
-0.457089
-0.425091
-0.395248
-0.367557
-0.34192
-0.318194
-0.296213
-0.275866
-0.257002
-0.238956
-0.720538
-0.708877
-0.696845
-0.679022
-0.654764
-0.624912
-0.590987
-0.554849
-0.51822
-0.482404
-0.448239
-0.416159
-0.386313
-0.358677
-0.333135
-0.309533
-0.287697
-0.267517
-0.248824
-0.230875
-0.71576
-0.704256
-0.692003
-0.67362
-0.648569
-0.617847
-0.583121
-0.546343
-0.509262
-0.47317
-0.438871
-0.406761
-0.376958
-0.349415
-0.324003
-0.300557
-0.278894
-0.258914
-0.240408
-0.222469
-0.710002
-0.698676
-0.686209
-0.667279
-0.641465
-0.609923
-0.574463
-0.537118
-0.499658
-0.463358
-0.428984
-0.396896
-0.367181
-0.339772
-0.314525
-0.291265
-0.269807
-0.250061
-0.231798
-0.213918
-0.703245
-0.692117
-0.679444
-0.659982
-0.633441
-0.601134
-0.565009
-0.527173
-0.489409
-0.452969
-0.418581
-0.386566
-0.356984
-0.329747
-0.304701
-0.28166
-0.260436
-0.240943
-0.222863
-0.205311
-0.695472
-0.684562
-0.671692
-0.65172
-0.624489
-0.591478
-0.554761
-0.516511
-0.478519
-0.442007
-0.407663
-0.375773
-0.346369
-0.319344
-0.294532
-0.271742
-0.250782
-0.231564
-0.213711
-0.196492
-0.68667
-0.675997
-0.662941
-0.642482
-0.614608
-0.580954
-0.543721
-0.505137
-0.466991
-0.430474
-0.396234
-0.36452
-0.335338
-0.308565
-0.284023
-0.261516
-0.240848
-0.22193
-0.204342
-0.187447
-0.67683
-0.666411
-0.653184
-0.632265
-0.603795
-0.569567
-0.531895
-0.493056
-0.454832
-0.418378
-0.3843
-0.352812
-0.323897
-0.297414
-0.273178
-0.250983
-0.230636
-0.212044
-0.194753
-0.178182
-0.665946
-0.6558
-0.642415
-0.621068
-0.592053
-0.557321
-0.519291
-0.480278
-0.44205
-0.405725
-0.371866
-0.340656
-0.312051
-0.285897
-0.262001
-0.24015
-0.220151
-0.201912
-0.184941
-0.168703
-0.654016
-0.64416
-0.630635
-0.608892
-0.579389
-0.544225
-0.505918
-0.466812
-0.428655
-0.392524
-0.358942
-0.328057
-0.299806
-0.27402
-0.250497
-0.229021
-0.209398
-0.191539
-0.174908
-0.159019
-0.641043
-0.631492
-0.617845
-0.595744
-0.565812
-0.530291
-0.491788
-0.452669
-0.414656
-0.378785
-0.345535
-0.315026
-0.28717
-0.261789
-0.238673
-0.217603
-0.198384
-0.180928
-0.164659
-0.149136
-0.627032
-0.617802
-0.604053
-0.581633
-0.551333
-0.515532
-0.476916
-0.437864
-0.400068
-0.364519
-0.331657
-0.30157
-0.274152
-0.249213
-0.226538
-0.205903
-0.187115
-0.170087
-0.154199
-0.139059
-0.611991
-0.603098
-0.589268
-0.566572
-0.535968
-0.499965
-0.461318
-0.422413
-0.384904
-0.34974
-0.317319
-0.287701
-0.260762
-0.236302
-0.2141
-0.19393
-0.175599
-0.159023
-0.143535
-0.128796
-0.595935
-0.587392
-0.573504
-0.550577
-0.519734
-0.483607
-0.445013
-0.406332
-0.36918
-0.334461
-0.302534
-0.27343
-0.24701
-0.223065
-0.20137
-0.181693
-0.163845
-0.147743
-0.132674
-0.118354
-0.578878
-0.5707
-0.556779
-0.533667
-0.50265
-0.46648
-0.428023
-0.389641
-0.352912
-0.318698
-0.287315
-0.258771
-0.23291
-0.209515
-0.188356
-0.169201
-0.151862
-0.136257
-0.121626
-0.107741
-0.560841
-0.553041
-0.539112
-0.515863
-0.484741
-0.448608
-0.410367
-0.372359
-0.336121
-0.302467
-0.27168
-0.243738
-0.218474
-0.195664
-0.175073
-0.156467
-0.139661
-0.124575
-0.1104
-0.0969668
-0.541847
-0.534437
-0.520527
-0.49719
-0.466036
-0.430028
-0.392057
-0.354506
-0.318825
-0.285788
-0.255643
-0.228346
-0.203716
-0.181524
-0.161531
-0.143501
-0.127255
-0.112709
-0.0990065
-0.0860412
-0.521922
-0.514913
-0.501049
-0.477677
-0.446567
-0.410783
-0.3731
-0.336102
-0.301045
-0.268679
-0.239222
-0.212611
-0.188652
-0.16711
-0.147744
-0.130318
-0.114654
-0.100669
-0.087458
-0.0749763
-0.501094
-0.494498
-0.480709
-0.457354
-0.426354
-0.3908
-0.353621
-0.317183
-0.282805
-0.251161
-0.222437
-0.19655
-0.173297
-0.152436
-0.133727
-0.11693
-0.101873
-0.0884693
-0.0757677
-0.063786
-0.479395
-0.473223
-0.459537
-0.436257
-0.405427
-0.370199
-0.333566
-0.297771
-0.264127
-0.233255
-0.205307
-0.180182
-0.157668
-0.13752
-0.119494
-0.103352
-0.0889255
-0.076124
-0.0639501
-0.0524867
-0.456857
-0.451123
-0.43757
-0.414421
-0.383809
-0.34901
-0.312975
-0.277893
-0.245038
-0.214983
-0.187852
-0.163525
-0.141782
-0.122375
-0.105061
-0.0895988
-0.0758263
-0.0636476
-0.0520216
-0.0410975
-0.433518
-0.428237
-0.414852
-0.391855
-0.361563
-0.327257
-0.291883
-0.257577
-0.225563
-0.196371
-0.170093
-0.146598
-0.125657
-0.10702
-0.0904421
-0.075685
-0.0625906
-0.0510557
-0.0399993
-0.0296406
-0.409415
-0.404605
-0.391429
-0.368599
-0.338717
-0.304972
-0.270323
-0.236852
-0.205728
-0.17744
-0.152054
-0.129423
-0.109312
-0.0914707
-0.0756545
-0.0616261
-0.0492337
-0.0383636
-0.0279021
-0.0181435
-0.384587
-0.380265
-0.367277
-0.344763
-0.315311
-0.282193
-0.248331
-0.215749
-0.185563
-0.158218
-0.133757
-0.112019
-0.0927657
-0.0757453
-0.0607136
-0.0474371
-0.0357704
-0.0255868
-0.0157507
-0.00664359
-0.359068
-0.355272
-0.342502
-0.320339
-0.291384
-0.258957
-0.225942
-0.1943
-0.165094
-0.13873
-0.115226
-0.0944093
-0.0760383
-0.0598613
-0.0456355
-0.0331326
-0.0222148
-0.0127392
-0.0035668
0.00481438
-0.332896
-0.329684
-0.317149
-0.295371
-0.26698
-0.235305
-0.203191
-0.172538
-0.144353
-0.119004
-0.0964854
-0.0766156
-0.0591496
-0.0438365
-0.0304358
-0.0187265
-0.00857983
0.000167619
0.0086333
0.0161951
-0.306167
-0.303518
-0.291261
-0.26991
-0.24214
-0.211276
-0.180116
-0.150496
-0.12337
-0.0990662
-0.0775605
-0.0586607
-0.0421202
-0.0276891
-0.01513
-0.0042323
0.0051224
0.0131274
0.0208481
0.0274744
-0.278974
-0.276781
-0.26488
-0.244002
-0.216908
-0.186911
-0.156754
-0.128209
-0.102175
-0.0789463
-0.0584773
-0.0405684
-0.0249712
-0.0114375
0.000266492
0.0103367
0.0188829
0.026145
0.0330802
0.0385539
-0.251301
-0.24957
-0.238055
-0.217695
-0.191332
-0.162252
-0.133143
-0.105712
-0.0808017
-0.058673
-0.0392625
-0.0223628
-0.0077245
0.00489953
0.015738
0.0249693
0.0327041
0.0392477
0.0453003
0.0491379
-0.223192
-0.221946
-0.210838
-0.191039
-0.165455
-0.137342
-0.109324
-0.0830398
-0.0592816
-0.0382764
-0.0199434
-0.00406906
0.0095974
0.0213019
0.0312674
0.0396565
0.0466041
0.0524844
0.0574617
0.0589337
-0.194707
-0.19396
-0.183279
-0.164083
-0.139326
-0.112224
-0.0853344
-0.0602293
-0.0376482
-0.0177867
-0.000548114
0.0142872
0.0269708
0.0377479
0.0468355
0.0543885
0.0605955
0.0658609
0.0695667
0.0686455
-0.165906
-0.165665
-0.155434
-0.136879
-0.112992
-0.0869413
-0.0612155
-0.037317
-0.0159351
0.00276507
0.0188949
0.0326794
0.0443711
0.0542139
0.06242
0.0691473
0.0746452
0.0792433
0.081513
0.0812672
-0.136841
-0.137113
-0.127353
-0.109476
-0.0865007
-0.0615389
-0.0370076
-0.0143401
0.00582362
0.0233475
0.0383565
0.0510806
0.0617727
0.0706754
0.0779973
0.0839043
0.0886775
0.0925435
0.0939814
0.0945336
-0.10757
-0.108361
-0.0990923
-0.0819277
-0.0599002
-0.0360611
-0.0127516
0.00866397
0.0275936
0.0439288
0.0578074
0.0694633
0.0791497
0.0871076
0.0935433
0.0986307
0.102658
0.105773
0.106562
0.107214
-0.0781519
-0.0794644
-0.0707063
-0.0542851
-0.0332393
-0.0105526
0.0115117
0.0316577
0.0493403
0.0644772
0.0772179
0.0877998
0.096476
0.103486
0.109033
0.113299
0.116567
0.118941
0.119146
0.119583
-0.0486437
-0.0504792
-0.0422497
-0.0266008
-0.00656649
0.0149419
0.0357411
0.0546033
0.071029
0.0849605
0.0965582
0.106062
0.113725
0.119785
0.124443
0.127884
0.130385
0.132023
0.131645
0.131719
-0.019103
-0.021462
-0.0137778
0.00107321
0.0200695
0.0403775
0.0598955
0.0774632
0.092625
0.105347
0.115798
0.124223
0.130872
0.13598
0.139748
0.142361
0.144089
0.144995
0.144019
0.143642
0.0104122
0.00753041
0.0146545
0.0286846
0.0466202
0.0657096
0.083934
0.1002
0.114094
0.125604
0.134909
0.142254
0.147889
0.152047
0.154926
0.15671
0.157663
0.157834
0.156244
0.155363
0.0398442
0.0364414
0.0429922
0.0561816
0.0730372
0.0908937
0.107816
0.122775
0.1354
0.1457
0.153861
0.160129
0.164753
0.167961
0.169953
0.170909
0.171085
0.170521
0.168306
0.166887
0.0691357
0.0652143
0.0711806
0.0835124
0.0992727
0.115886
0.1315
0.145153
0.156511
0.165603
0.172623
0.177819
0.181436
0.1837
0.184808
0.184937
0.184337
0.183038
0.180193
0.178213
0.0982293
0.0937932
0.0991655
0.110626
0.125279
0.140642
0.154947
0.167295
0.177391
0.185282
0.191169
0.195298
0.197914
0.199241
0.199469
0.198776
0.197403
0.195371
0.191892
0.189336
0.127068
0.122122
0.126893
0.137471
0.151009
0.165119
0.178117
0.189166
0.198008
0.204706
0.209468
0.21254
0.214163
0.214559
0.213915
0.212406
0.210264
0.207503
0.203393
0.20025
0.155597
0.150146
0.15431
0.163998
0.176417
0.189274
0.200971
0.210729
0.218327
0.223844
0.227492
0.229517
0.230159
0.229634
0.228126
0.225809
0.222904
0.219422
0.214684
0.210949
0.18376
0.177811
0.181364
0.190158
0.201456
0.213065
0.223469
0.23195
0.238317
0.242666
0.245214
0.246205
0.245877
0.244442
0.242082
0.238966
0.235308
0.231112
0.225753
0.221423
0.211502
0.205062
0.208004
0.215902
0.226083
0.236451
0.245575
0.252792
0.257945
0.261143
0.262606
0.262579
0.261295
0.258964
0.255764
0.251859
0.247458
0.24256
0.23659
0.231664
0.23877
0.231848
0.234179
0.241182
0.250251
0.259391
0.26725
0.273222
0.277179
0.279244
0.279641
0.278613
0.27639
0.273178
0.269151
0.264473
0.259341