/*--------------------------------*- C++ -*----------------------------------*\
  =========                 |
  \\      /  F ield         | OpenFOAM: The Open Source CFD Toolbox
   \\    /   O peration     | Website:  https://openfoam.org
    \\  /    A nd           | Version:  7
     \\/     M anipulation  |
\*---------------------------------------------------------------------------*/
FoamFile
{
    version     2.0;
    format      ascii;
    class       volVectorField;
    location    "180";
    object      U;
}
// * * * * * * * * * * * * * * * * * * * * * * * * * * * * * * * * * * * * * //

dimensions      [0 1 -1 0 0 0 0];

internalField   nonuniform List<vector> 
36600
(
(-0.000538546 0.0338844 -1.11063e-21)
(-0.00244933 0.086509 -5.78771e-21)
(-0.00604343 0.126932 6.90101e-22)
(-0.0109529 0.156513 1.02712e-21)
(-0.0170563 0.176753 1.81451e-21)
(-0.0241852 0.189235 -1.32477e-20)
(-0.0321401 0.195537 2.26008e-21)
(-0.0407245 0.197154 -8.80994e-21)
(-0.0497554 0.195411 -1.87307e-20)
(-0.0590714 0.191416 1.58955e-20)
(-0.0685379 0.186013 4.69583e-21)
(-0.0780485 0.179785 -5.61079e-21)
(-0.0875239 0.173058 6.8464e-21)
(-0.0969107 0.16594 9.31491e-21)
(-0.106178 0.15836 -5.84672e-21)
(-0.115316 0.150111 -7.92539e-21)
(-0.124334 0.140887 -1.89824e-20)
(-0.13328 0.130312 -1.47112e-21)
(-0.142093 0.117963 -3.23604e-21)
(-0.150662 0.103334 -6.43182e-21)
(-0.00116696 0.0342981 -5.49368e-21)
(-0.00389396 0.087755 4.42746e-21)
(-0.00785206 0.128991 -5.16978e-21)
(-0.0128166 0.159332 -2.02328e-20)
(-0.018741 0.180244 9.29055e-21)
(-0.0255195 0.193291 5.56038e-20)
(-0.0330038 0.200044 -3.39297e-20)
(-0.0410351 0.201995 5.5955e-21)
(-0.0494555 0.200482 2.71458e-20)
(-0.0581179 0.196624 7.84747e-23)
(-0.0668924 0.191285 1.6052e-20)
(-0.0756696 0.185061 -2.10932e-20)
(-0.0843613 0.178297 2.20411e-20)
(-0.0929013 0.171115 -1.87081e-20)
(-0.101244 0.16346 -7.35871e-21)
(-0.109364 0.155137 3.67111e-20)
(-0.117256 0.14585 -1.18428e-20)
(-0.12496 0.135235 1.73058e-21)
(-0.132415 0.122872 -2.19177e-20)
(-0.139503 0.108276 -2.52649e-21)
(-0.00180584 0.0346079 -4.28737e-20)
(-0.00536664 0.0887567 5.37347e-21)
(-0.00969607 0.13072 8.10952e-21)
(-0.0147134 0.161774 5.14236e-20)
(-0.0204455 0.183343 -4.07959e-20)
(-0.026849 0.196959 -6.27912e-20)
(-0.033827 0.204175 5.66807e-20)
(-0.0412585 0.20648 -1.54757e-20)
(-0.0490109 0.205215 -7.51246e-21)
(-0.0569515 0.201508 -3.86302e-20)
(-0.0649551 0.196237 1.06881e-20)
(-0.072909 0.190015 3.71608e-20)
(-0.0807158 0.183204 -7.27045e-21)
(-0.0882956 0.175943 3.04573e-20)
(-0.0955875 0.168191 -2.53005e-20)
(-0.102549 0.159768 -7.33833e-21)
(-0.109162 0.150393 5.95981e-20)
(-0.115453 0.139715 -3.71003e-21)
(-0.121368 0.127326 9.42818e-20)
(-0.126764 0.112764 -2.31797e-20)
(-0.00244975 0.0348106 7.04441e-20)
(-0.00685565 0.0895049 -3.0794e-20)
(-0.0115615 0.132103 -2.10296e-20)
(-0.016629 0.16382 -4.82557e-20)
(-0.0221569 0.186025 2.87564e-20)
(-0.0281631 0.20021 -5.68514e-21)
(-0.0346016 0.207902 -9.55873e-20)
(-0.0413893 0.210578 -1.01513e-20)
(-0.0484192 0.209575 -2.06565e-20)
(-0.0555732 0.20603 -3.66464e-21)
(-0.062731 0.200832 -3.55257e-20)
(-0.0697765 0.19461 4.03073e-20)
(-0.0766028 0.187742 -5.93697e-20)
(-0.0831162 0.180383 -1.81113e-21)
(-0.0892395 0.17251 1.61377e-20)
(-0.0949136 0.163959 -1.25677e-19)
(-0.100104 0.154469 -1.01617e-19)
(-0.104829 0.143703 5.54941e-20)
(-0.109036 0.131272 -7.30728e-20)
(-0.11255 0.116745 1.28976e-21)
(-0.00309309 0.0349044 -9.35739e-21)
(-0.00834879 0.0899925 1.22089e-19)
(-0.0134337 0.133129 5.67521e-20)
(-0.0185489 0.165452 -2.40497e-21)
(-0.0238624 0.188268 1.47289e-20)
(-0.0294514 0.203018 1.87463e-21)
(-0.0353204 0.211196 4.91848e-20)
(-0.0414237 0.214256 5.79814e-20)
(-0.0476802 0.213531 2.4491e-20)
(-0.0539869 0.210159 8.55466e-20)
(-0.0602284 0.205038 -9.84884e-20)
(-0.0662859 0.198812 -2.04443e-20)
(-0.072043 0.191874 4.32816e-20)
(-0.0773919 0.184398 -7.56876e-20)
(-0.0822388 0.176379 3.46593e-20)
(-0.0865076 0.167672 7.93166e-20)
(-0.0901475 0.158034 1.81374e-20)
(-0.0931691 0.147153 2.84727e-20)
(-0.0955204 0.134663 -4.44389e-20)
(-0.0969786 0.120174 5.25989e-21)
(-0.00373037 0.0348885 -4.69994e-20)
(-0.00983386 0.090214 2.94717e-20)
(-0.0152981 0.133787 -4.62533e-20)
(-0.020459 0.166656 4.27648e-20)
(-0.0255495 0.190053 3.70498e-20)
(-0.0307046 0.205361 1.64088e-20)
(-0.0359774 0.214029 3.1448e-20)
(-0.0413594 0.217486 -2.15127e-20)
(-0.0467959 0.217052 -1.3332e-19)
(-0.052199 0.213863 -1.18967e-19)
(-0.0574592 0.208823 -7.73072e-20)
(-0.0624551 0.202589 2.88811e-20)
(-0.0670614 0.19557 -1.63741e-20)
(-0.0711565 0.187957 1.24917e-19)
(-0.0746299 0.179764 -4.49699e-20)
(-0.0773882 0.170869 3.69755e-20)
(-0.0793641 0.161052 5.31672e-20)
(-0.0805604 0.150027 -2.99197e-20)
(-0.0809287 0.13746 2.67416e-19)
(-0.0801799 0.123008 -1.02172e-19)
(-0.00435653 0.0347622 5.72785e-20)
(-0.011299 0.090167 -6.97002e-20)
(-0.01714 0.13407 -1.0605e-19)
(-0.0223448 0.167418 -2.66739e-20)
(-0.0272062 0.191362 1.20626e-20)
(-0.0319135 0.207215 1.83915e-20)
(-0.0365674 0.216377 6.11116e-20)
(-0.0411959 0.220242 1.36211e-20)
(-0.0457701 0.22011 3.77964e-21)
(-0.0502184 0.217113 2.13984e-19)
(-0.0544377 0.212158 1.60127e-19)
(-0.0583049 0.205912 -9.6023e-20)
(-0.0616866 0.198799 -1.39656e-20)
(-0.0644477 0.19103 -3.7838e-20)
(-0.0664615 0.182638 3.75849e-20)
(-0.0676172 0.173523 -2.0005e-19)
(-0.0678308 0.163493 -4.28929e-20)
(-0.0670977 0.152292 -6.31834e-20)
(-0.0653774 0.139626 -1.53484e-19)
(-0.0622903 0.12521 8.39475e-20)
(-0.00496535 0.0345261 9.83843e-21)
(-0.0127317 0.0898519 -3.45809e-20)
(-0.018945 0.133975 9.59675e-20)
(-0.0241924 0.167731 -3.59775e-20)
(-0.0288206 0.192181 -3.26374e-20)
(-0.03307 0.208564 5.15551e-20)
(-0.0370864 0.218218 -8.54942e-20)
(-0.0409333 0.222498 -1.12502e-20)
(-0.0446083 0.222679 1.59981e-19)
(-0.0480558 0.219882 -1.0161e-19)
(-0.0511806 0.215016 -4.16271e-20)
(-0.0538589 0.208755 4.86062e-20)
(-0.0559499 0.201538 -1.26621e-20)
(-0.0573063 0.193594 -6.63861e-21)
(-0.0577855 0.184976 5.54881e-20)
(-0.0572596 0.17561 -1.4952e-19)
(-0.0556277 0.165331 5.0645e-20)
(-0.0528783 0.153921 -3.95106e-20)
(-0.0489872 0.141134 -9.00855e-20)
(-0.0434517 0.126753 3.14109e-20)
(-0.00555166 0.0341829 -2.71581e-20)
(-0.0141201 0.0892701 1.90164e-19)
(-0.0206991 0.1335 -4.1692e-20)
(-0.0259876 0.167589 -4.91504e-20)
(-0.0303813 0.192501 1.17828e-19)
(-0.0341662 0.20939 -1.21056e-19)
(-0.0375309 0.219532 -5.93619e-20)
(-0.0405734 0.224231 -1.02242e-19)
(-0.0433171 0.224735 -1.1104e-19)
(-0.0457237 0.222146 -7.33473e-20)
(-0.0477065 0.217373 -9.89446e-20)
(-0.0491423 0.211095 1.78559e-19)
(-0.0498846 0.203765 -1.93525e-20)
(-0.0497747 0.195628 -4.19941e-20)
(-0.0486553 0.18676 -2.1866e-19)
(-0.0463817 0.17711 1.22508e-19)
(-0.0428359 0.166546 2.9548e-20)
(-0.0379991 0.154891 7.81916e-20)
(-0.0318734 0.141959 5.37364e-20)
(-0.0238136 0.127668 -1.46026e-19)
(-0.00611063 0.0337359 -8.52141e-20)
(-0.0154532 0.0884265 1.12599e-19)
(-0.022389 0.132648 6.24515e-20)
(-0.0277177 0.16699 2.80382e-20)
(-0.0318774 0.192313 1.06261e-19)
(-0.035195 0.209683 -8.21687e-20)
(-0.0378984 0.220303 1.75744e-19)
(-0.0401185 0.225423 9.57232e-21)
(-0.0419044 0.226255 1.6093e-19)
(-0.0432356 0.223883 -9.38637e-20)
(-0.044035 0.219208 1.49512e-19)
(-0.0441817 0.212913 -1.48212e-19)
(-0.0435249 0.205462 -1.32785e-19)
(-0.0418962 0.197117 1.1423e-19)
(-0.0391245 0.187974 4.06125e-19)
(-0.0350492 0.17801 -2.25938e-19)
(-0.0295351 0.167125 1.86089e-19)
(-0.0225537 0.155188 4.3925e-20)
(-0.0141183 0.142081 -1.6448e-19)
(-0.00349547 0.127894 1.38982e-19)
(-0.00663774 0.0331892 1.55868e-19)
(-0.0167205 0.0873281 -8.58221e-20)
(-0.024002 0.131425 2.95338e-20)
(-0.0293706 0.165936 1.08209e-19)
(-0.0332989 0.191615 -8.19371e-20)
(-0.0361498 0.209434 1.91639e-19)
(-0.0381868 0.220517 -3.43458e-20)
(-0.0395718 0.226056 4.28033e-21)
(-0.0403789 0.227222 -2.22844e-19)
(-0.0406058 0.225073 1.40262e-19)
(-0.0401865 0.2205 3.28773e-20)
(-0.0390042 0.214189 -4.32552e-20)
(-0.0369052 0.206612 5.3688e-20)
(-0.0337135 0.198047 -2.12596e-19)
(-0.0292454 0.18861 -1.17928e-19)
(-0.0233255 0.178302 2.5211e-19)
(-0.0158015 0.16706 -1.42182e-19)
(-0.00663464 0.1548 -2.0587e-19)
(0.00415202 0.14148 3.82862e-19)
(0.0173937 0.127351 1.86534e-22)
(-0.00712894 0.0325482 1.31762e-19)
(-0.0179128 0.0859848 -1.59473e-19)
(-0.0255268 0.12984 -1.64471e-19)
(-0.0309349 0.164433 -7.77038e-20)
(-0.0346368 0.190407 -5.39083e-20)
(-0.0370251 0.208637 -6.23994e-20)
(-0.0383949 0.220164 -2.62923e-19)
(-0.0389369 0.226117 3.1858e-20)
(-0.0387495 0.227617 -1.10726e-19)
(-0.0378491 0.225697 3.85282e-19)
(-0.0361818 0.221234 -2.23515e-19)
(-0.0336365 0.214909 1.36114e-19)
(-0.0300591 0.207205 -4.19992e-20)
(-0.0252676 0.19841 2.31598e-19)
(-0.0190678 0.188662 1.91345e-20)
(-0.0112701 0.177984 -2.0166e-19)
(-0.00170551 0.166349 -3.72007e-20)
(0.00967591 0.153724 8.21049e-21)
(0.022836 0.140151 -1.44035e-20)
(0.0387407 0.126069 2.6735e-19)
(-0.00758069 0.0318192 -1.63805e-19)
(-0.0190214 0.0844088 -1.53659e-19)
(-0.0269532 0.127905 6.29284e-20)
(-0.0324007 0.162489 1.55806e-19)
(-0.0358829 0.188693 -1.32046e-20)
(-0.0378158 0.207292 -1.05456e-19)
(-0.0385219 0.219238 2.31968e-19)
(-0.038218 0.225593 -2.61706e-20)
(-0.0370256 0.227428 2.79444e-19)
(-0.0349802 0.225742 -3.09189e-19)
(-0.0320411 0.221393 8.11694e-20)
(-0.0281047 0.21506 9.66295e-20)
(-0.0230187 0.207228 -3.06668e-21)
(-0.0165971 0.198199 -1.78669e-21)
(-0.00863703 0.188126 -1.86014e-19)
(0.00106353 0.177056 2.42283e-20)
(0.0126903 0.164995 2.52712e-19)
(0.0263061 0.151961 3.29491e-19)
(0.0418509 0.13809 -3.93226e-19)
(0.0604499 0.124047 -2.54754e-19)
(-0.00799008 0.0310096 6.92364e-20)
(-0.0200391 0.0826147 1.02173e-19)
(-0.0282718 0.125637 1.23812e-19)
(-0.033759 0.16012 -2.06376e-19)
(-0.03703 0.186483 2.00556e-19)
(-0.0385176 0.2054 2.02529e-19)
(-0.0385674 0.217736 -7.82896e-20)
(-0.0374191 0.224477 3.41867e-19)
(-0.0352164 0.226642 -3.44498e-19)
(-0.0320134 0.225192 1.52053e-19)
(-0.0277839 0.220965 1.54462e-19)
(-0.0224335 0.21463 -1.14951e-20)
(-0.0158137 0.206674 2.2926e-21)
(-0.00773685 0.19741 2.04167e-20)
(0.00200634 0.187003 -1.45605e-19)
(0.013629 0.175524 1.46961e-19)
(0.027333 0.163006 -7.57065e-20)
(0.0431968 0.149521 -1.71499e-19)
(0.0611307 0.135302 2.23704e-19)
(0.082447 0.121283 4.72023e-20)
(-0.00835484 0.0301274 -3.9685e-20)
(-0.0209602 0.0806191 4.84568e-20)
(-0.0294753 0.123054 -1.03605e-19)
(-0.0350021 0.15734 -1.53401e-19)
(-0.0380715 0.183788 -1.34201e-19)
(-0.0391269 0.202969 -1.3931e-19)
(-0.0385313 0.215657 2.25673e-19)
(-0.0365446 0.222765 -1.1277e-19)
(-0.0333307 0.225252 8.97512e-20)
(-0.0289623 0.224039 1.02977e-20)
(-0.0234285 0.219938 -2.43115e-20)
(-0.0166456 0.213608 6.1048e-20)
(-0.00847084 0.205535 -1.19377e-19)
(0.00128245 0.196039 6.16553e-20)
(0.0128282 0.185297 2.02553e-19)
(0.026389 0.173395 -2.96855e-19)
(0.0421819 0.160397 -1.92082e-19)
(0.0603039 0.14642 2.54059e-19)
(0.0806286 0.131796 -1.49789e-19)
(0.104683 0.117779 -2.3748e-19)
(-0.00867344 0.0291812 1.48102e-19)
(-0.02178 0.0784403 -1.46268e-19)
(-0.0305576 0.120178 1.17022e-19)
(-0.0361237 0.154172 1.85602e-19)
(-0.0390025 0.180625 -3.30222e-20)
(-0.0396405 0.200009 -1.20112e-19)
(-0.0384137 0.213007 -2.21429e-19)
(-0.0355982 0.220455 -1.67228e-19)
(-0.0313764 0.223251 -3.35903e-19)
(-0.0258392 0.222272 3.39562e-20)
(-0.0189912 0.218302 -3.02233e-20)
(-0.0107609 0.211986 -2.36395e-19)
(-0.00101332 0.203806 2.06074e-19)
(0.0104355 0.194085 2.52283e-19)
(0.0238018 0.18301 -1.3484e-20)
(0.0393158 0.170681 1.56294e-19)
(0.0572092 0.157182 -7.85406e-20)
(0.0776008 0.142676 1.26354e-20)
(0.10032 0.127591 2.27718e-19)
(0.127139 0.113542 5.53869e-19)
(-0.00894509 0.0281803 -6.3972e-20)
(-0.0224959 0.0760987 -4.34859e-20)
(-0.0315147 0.117034 1.20984e-19)
(-0.0371191 0.150639 -1.6657e-19)
(-0.0398185 0.177014 -9.33648e-20)
(-0.0400562 0.196534 1.62711e-19)
(-0.0382147 0.209793 -5.91135e-20)
(-0.0345834 0.217549 -1.69647e-19)
(-0.0293608 0.220636 2.73547e-19)
(-0.0226549 0.219885 -7.25528e-20)
(-0.0144862 0.21605 5.34051e-20)
(-0.00479642 0.209756 2.89508e-19)
(0.00654021 0.20148 -4.01314e-19)
(0.0197028 0.191546 -1.10144e-19)
(0.0349082 0.180147 -2.18337e-19)
(0.0523928 0.167392 4.44451e-19)
(0.0724018 0.153382 1.35128e-20)
(0.0950801 0.138317 2.49335e-19)
(0.120204 0.12271 -8.93354e-20)
(0.149826 0.108588 -5.25586e-19)
(-0.00916979 0.0271345 -1.49423e-19)
(-0.0231066 0.0736155 2.09555e-19)
(-0.0323442 0.113649 2.71905e-21)
(-0.0379856 0.146768 -2.02234e-21)
(-0.0405169 0.17298 2.10159e-19)
(-0.040372 0.192564 1.00443e-19)
(-0.0379345 0.206029 -5.75778e-21)
(-0.0335029 0.214053 4.40079e-19)
(-0.0272895 0.217408 1.67367e-19)
(-0.0194179 0.216876 -3.0657e-19)
(-0.00992465 0.213174 1.47436e-20)
(0.00123498 0.206911 -9.79095e-21)
(0.0141761 0.198553 4.2657e-19)
(0.0290717 0.188421 -4.76892e-19)
(0.0461377 0.176712 1.31998e-19)
(0.0656152 0.16354 5.84901e-21)
(0.0877625 0.149017 -3.42126e-19)
(0.112755 0.13337 -3.58955e-19)
(0.140305 0.117186 -4.34666e-20)
(0.17279 0.10294 5.35122e-19)
(-0.00934835 0.0260537 4.83575e-20)
(-0.0236127 0.0710134 -1.4949e-19)
(-0.0330461 0.11005 1.41977e-19)
(-0.038722 0.142589 -2.1001e-19)
(-0.0410964 0.168549 2.57695e-19)
(-0.0405869 0.188121 -3.80852e-19)
(-0.0375731 0.201729 -1.04312e-19)
(-0.0323584 0.209976 -2.30143e-19)
(-0.0251661 0.213571 -1.07807e-19)
(-0.0161342 0.213241 1.90631e-19)
(-0.00531403 0.209672 3.87982e-19)
(0.00732497 0.203447 -4.34978e-19)
(0.0218868 0.195019 -1.63486e-19)
(0.0385373 0.184708 5.90095e-19)
(0.0574903 0.172708 -2.15741e-19)
(0.0789913 0.159137 -3.1195e-19)
(0.10331 0.144107 3.98171e-19)
(0.130658 0.127865 8.44526e-20)
(0.160674 0.111052 8.0628e-20)
(0.196108 0.0966272 -3.45879e-19)
(-0.00948236 0.0249483 1.88489e-20)
(-0.0240165 0.0683159 -7.80825e-20)
(-0.0336221 0.106268 2.49548e-19)
(-0.0393292 0.138135 -3.18442e-19)
(-0.0415566 0.163752 -2.5947e-19)
(-0.0407002 0.183231 6.68414e-20)
(-0.0371299 0.196914 4.45646e-19)
(-0.0311501 0.205333 -2.78663e-19)
(-0.0229921 0.20913 6.69886e-20)
(-0.0128061 0.208984 -1.31895e-19)
(-0.000657419 0.20554 -5.31969e-19)
(0.013471 0.199357 3.20758e-19)
(0.0296719 0.190874 2.59607e-19)
(0.0481035 0.180404 -4.6044e-19)
(0.0689775 0.168138 1.07437e-19)
(0.0925433 0.154191 4.33073e-19)
(0.119082 0.138672 1.70756e-19)
(0.148848 0.121835 6.03851e-20)
(0.18139 0.104348 -3.57565e-19)
(0.219896 0.0896878 -1.7657e-19)
(-0.00957418 0.0238284 -1.3166e-19)
(-0.024322 0.0655466 -2.3355e-19)
(-0.0340759 0.102335 -1.32578e-19)
(-0.0398096 0.133438 1.73307e-19)
(-0.0418985 0.158622 -9.89228e-21)
(-0.0407113 0.177922 3.52378e-20)
(-0.0366035 0.191608 -6.13077e-20)
(-0.0298763 0.20014 4.14294e-20)
(-0.0207657 0.204099 2.64101e-19)
(-0.00943177 0.20411 3.3251e-19)
(0.00404774 0.20078 -1.48253e-20)
(0.0196775 0.19464 -7.30006e-20)
(0.0375396 0.186115 -4.28664e-19)
(0.0577851 0.175506 3.2158e-19)
(0.0806238 0.163002 -2.74294e-20)
(0.10631 0.148709 -1.93259e-19)
(0.135135 0.132728 -9.77052e-19)
(0.167404 0.115311 3.48857e-19)
(0.202557 0.097118 2.01438e-20)
(0.2443 0.0821674 -2.19564e-19)
(-0.00962692 0.0227043 1.21491e-19)
(-0.0245346 0.0627297 3.05388e-19)
(-0.0344128 0.0982822 -2.28819e-19)
(-0.0401669 0.128535 -1.09385e-19)
(-0.0421238 0.153195 9.01978e-20)
(-0.0406194 0.172229 -2.15248e-19)
(-0.0359912 0.185839 -3.73099e-19)
(-0.0285327 0.19442 2.3144e-19)
(-0.0184813 0.19849 -2.64364e-20)
(-0.00600406 0.198627 -5.24378e-19)
(0.00881093 0.195395 1.00091e-19)
(0.0259576 0.189297 5.59779e-20)
(0.0455087 0.18074 -9.80789e-20)
(0.0676095 0.170014 2.58439e-19)
(0.092469 0.157301 5.05437e-19)
(0.120347 0.142699 -3.31307e-19)
(0.151547 0.126293 2.70229e-19)
(0.186432 0.108323 6.46647e-20)
(0.22431 0.089407 3.83116e-19)
(0.269503 0.0741204 1.7366e-19)
(-0.00964438 0.0215858 -1.33501e-19)
(-0.0246615 0.059889 -1.54336e-20)
(-0.0346398 0.0941424 3.24226e-19)
(-0.0404061 0.123464 3.1712e-19)
(-0.0422341 0.147507 -6.42719e-20)
(-0.0404235 0.166185 -4.01347e-20)
(-0.0352885 0.179637 4.25592e-19)
(-0.0271117 0.188197 -3.05619e-19)
(-0.0161281 0.192326 9.22461e-20)
(-0.00250898 0.192549 3.80431e-19)
(0.0136503 0.189393 3.63676e-19)
(0.032335 0.183332 1.41186e-19)
(0.053611 0.17475 6.16582e-19)
(0.0776197 0.163927 -8.53119e-20)
(0.104571 0.151036 -6.57267e-19)
(0.134734 0.136166 3.24309e-19)
(0.168421 0.119381 -1.7343e-19)
(0.206067 0.100905 -4.08175e-19)
(0.246812 0.0812646 -2.91149e-19)
(0.295718 0.0656119 -2.95365e-19)
(-0.00963098 0.0204825 8.53565e-20)
(-0.0247109 0.0570476 1.72273e-19)
(-0.0347654 0.0899477 -1.18301e-19)
(-0.0405332 0.11826 -1.44852e-19)
(-0.0422321 0.141599 -1.48307e-19)
(-0.0401211 0.15983 -3.96853e-20)
(-0.0344885 0.173038 -5.43531e-19)
(-0.0256015 0.181502 2.08105e-19)
(-0.0136896 0.185629 -1.90413e-19)
(0.00107564 0.185896 -3.19343e-19)
(0.0185943 0.182789 1.12467e-20)
(0.0388466 0.176752 -8.02448e-19)
(0.0618943 0.16815 -6.23119e-19)
(0.0878777 0.15725 1.96382e-19)
(0.117012 0.144213 1.00813e-19)
(0.149574 0.129119 -2.15253e-19)
(0.185889 0.112011 8.42653e-19)
(0.226472 0.0930896 -1.33377e-19)
(0.270256 0.0727455 3.65772e-19)
(0.323188 0.05672 3.32463e-19)
(-0.00959167 0.0194036 -1.16923e-19)
(-0.0246921 0.0542278 -3.74366e-19)
(-0.0347988 0.0857297 1.17119e-19)
(-0.0405548 0.112961 6.54558e-21)
(-0.0421193 0.13551 4.8541e-19)
(-0.0397083 0.153203 -2.86034e-19)
(-0.0335807 0.16608 -2.42486e-19)
(-0.023985 0.174369 2.88691e-19)
(-0.0111413 0.178429 -1.69621e-20)
(0.004782 0.178691 1.33579e-19)
(0.0236846 0.175601 4.02134e-19)
(0.0455452 0.169574 8.39402e-19)
(0.0704252 0.160953 6.74373e-20)
(0.0984683 0.149991 -3.72283e-19)
(0.129896 0.136842 6.71819e-20)
(0.165002 0.121573 6.61702e-19)
(0.204116 0.104204 -4.52765e-19)
(0.247846 0.0849185 2.86306e-21)
(0.294867 0.063912 3.56289e-19)
(0.35218 0.0475404 -2.19984e-19)
(-0.00953185 0.0183573 -1.11717e-19)
(-0.0246155 0.0514506 4.41885e-19)
(-0.0347499 0.0815187 -3.32678e-19)
(-0.0404771 0.107605 -6.69739e-20)
(-0.0418962 0.129281 -1.11487e-19)
(-0.0391785 0.146346 -2.86059e-19)
(-0.0325501 0.158804 2.82077e-19)
(-0.0222384 0.166838 -7.40446e-20)
(-0.00844987 0.170763 -1.63313e-19)
(0.0086542 0.170965 2.64681e-19)
(0.0289776 0.167856 -3.07414e-19)
(0.052502 0.16182 -9.94129e-20)
(0.0792933 0.153178 -1.1265e-20)
(0.109503 0.142171 2.6086e-19)
(0.143363 0.128941 -2.35909e-19)
(0.181185 0.11355 -4.50767e-19)
(0.223301 0.0959922 -1.38801e-19)
(0.270422 0.0764411 -2.02765e-19)
(0.320899 0.0548377 -6.23103e-19)
(0.382978 0.0381913 -1.8799e-19)
(-0.00945717 0.0173512 1.5837e-19)
(-0.0244915 0.0487355 -1.93797e-19)
(-0.0346288 0.0773435 -2.39054e-19)
(-0.0403058 0.102227 -2.23204e-19)
(-0.0415616 0.122953 7.35217e-20)
(-0.0385214 0.139304 4.11401e-20)
(-0.0313768 0.151254 1.00406e-19)
(-0.0203302 0.158952 -3.4673e-19)
(-0.00557149 0.16267 1.97647e-19)
(0.0127502 0.162757 -5.88675e-19)
(0.0345474 0.159589 -2.9425e-19)
(0.05981 0.153521 3.78331e-21)
(0.0886137 0.144855 2.57846e-19)
(0.121122 0.133817 -1.69753e-19)
(0.157583 0.120542 4.34473e-19)
(0.198325 0.105085 -1.06983e-19)
(0.243679 0.087419 1.40418e-19)
(0.294462 0.0677209 5.32832e-19)
(0.34863 0.045611 7.17125e-20)
(0.415869 0.0288156 3.45298e-19)
(-0.00937346 0.0163921 -3.33965e-19)
(-0.0243309 0.0460998 2.60303e-19)
(-0.034445 0.0732306 2.8847e-19)
(-0.0400454 0.0968606 -1.65351e-19)
(-0.0411117 0.116565 2.78874e-19)
(-0.0377229 0.132119 2.66001e-19)
(-0.0300339 0.143477 -4.77746e-20)
(-0.0182201 0.150757 -2.63669e-19)
(-0.00244995 0.154197 -3.87864e-19)
(0.0171437 0.154112 1.12308e-19)
(0.0404878 0.150844 1.0961e-20)
(0.0675862 0.144721 -2.88816e-19)
(0.0985299 0.136026 2.14049e-19)
(0.1335 0.124972 -1.67679e-19)
(0.172762 0.111689 -3.07845e-19)
(0.216663 0.0962289 -4.0233e-19)
(0.26552 0.078545 9.93871e-20)
(0.320255 0.0588393 1.37189e-19)
(0.378351 0.0363397 -1.34991e-19)
(0.451122 0.0195765 5.68574e-19)
(-0.00928648 0.0154854 -2.63024e-19)
(-0.0241439 0.0435588 -2.39302e-19)
(-0.034207 0.0692042 1.86254e-19)
(-0.0396981 0.0915392 1.0711e-19)
(-0.0405392 0.110158 4.29471e-20)
(-0.0367633 0.124837 -7.77817e-20)
(-0.0284877 0.135521 -5.47423e-20)
(-0.0158574 0.142304 1.23053e-19)
(0.000984131 0.145398 -1.09993e-19)
(0.0219256 0.145083 9.13828e-19)
(0.0469139 0.141673 6.604e-20)
(0.0759731 0.135473 -1.01778e-19)
(0.109215 0.126747 -6.67215e-19)
(0.146842 0.115695 1.30034e-19)
(0.189141 0.102446 -3.29135e-19)
(0.236471 0.0870522 2.19722e-19)
(0.289121 0.0694512 2.01873e-19)
(0.348106 0.0498988 -7.7648e-19)
(0.410344 0.0271521 -2.43643e-19)
(0.488922 0.0106498 -8.49249e-19)
(-0.00920179 0.0146356 1.27285e-19)
(-0.0239402 0.0411249 2.47225e-19)
(-0.0339216 0.0652855 -4.39222e-19)
(-0.0392632 0.0862918 -3.3187e-19)
(-0.0398324 0.103768 1.65589e-19)
(-0.035617 0.117502 1.54582e-19)
(-0.0266955 0.127436 -3.16624e-19)
(-0.01318 0.13365 -2.80799e-20)
(0.00481506 0.13633 3.82518e-20)
(0.0272051 0.135731 -2.75347e-19)
(0.053963 0.132142 3.95581e-19)
(0.0851394 0.125844 2.93654e-21)
(0.120872 0.117086 4.97706e-19)
(0.161388 0.10606 3.37344e-19)
(0.206991 0.0928934 5.60163e-20)
(0.258047 0.077645 7.18016e-19)
(0.314796 0.0602396 -6.54735e-19)
(0.378314 0.0410216 3.04749e-19)
(0.444877 0.0181951 2.41539e-19)
(0.529311 0.00225679 2.10081e-19)
(-0.00912448 0.0138457 6.10347e-19)
(-0.0237278 0.0388078 -4.17551e-19)
(-0.0335931 0.0614922 1.00335e-19)
(-0.0387368 0.0811451 3.21662e-19)
(-0.0389749 0.0974303 -3.4259e-19)
(-0.0342515 0.110158 1.68918e-20)
(-0.0246057 0.119274 2.53725e-19)
(-0.0101143 0.124851 4.61663e-19)
(0.00914164 0.127056 4.62275e-19)
(0.0331096 0.126125 -4.54155e-19)
(0.0617946 0.122322 -3.49414e-19)
(0.0952786 0.115911 1.64829e-19)
(0.13373 0.107128 -4.72723e-19)
(0.1774 0.0961593 3.12611e-20)
(0.226604 0.083132 1.82163e-19)
(0.281701 0.0681182 1.38473e-19)
(0.342854 0.0510329 4.41502e-19)
(0.411153 0.0323456 9.50296e-20)
(0.482206 0.00963676 -3.36268e-19)
(0.572631 -0.00521975 3.6412e-19)
(-0.00905899 0.0131173 -5.78126e-19)
(-0.0235131 0.0366143 4.1526e-19)
(-0.0332229 0.0578385 9.97305e-20)
(-0.0381104 0.076122 -3.18402e-19)
(-0.0379442 0.0911779 1.32674e-19)
(-0.0326268 0.102846 -6.32545e-20)
(-0.0221572 0.111086 -4.77234e-20)
(-0.00657439 0.115966 -3.89077e-19)
(0.0140777 0.117645 -6.08584e-19)
(0.0397844 0.116339 3.92526e-19)
(0.0705875 0.112297 -2.01496e-19)
(0.106606 0.105766 6.45195e-21)
(0.148039 0.0969722 1.1281e-19)
(0.195158 0.0860998 2.39758e-19)
(0.248283 0.0732802 -2.93637e-20)
(0.307737 0.058601 -6.78522e-20)
(0.373581 0.0419719 -3.52781e-19)
(0.446839 0.0240179 -2.37105e-19)
(0.522472 0.00162356 -2.23981e-19)
(0.618659 -0.0117254 3.6591e-19)
(-0.00900887 0.0124507 4.61977e-19)
(-0.0233002 0.0345476 -1.17078e-19)
(-0.032809 0.0543347 3.92274e-19)
(-0.0373709 0.0712416 9.39094e-20)
(-0.0367121 0.08504 -2.04344e-19)
(-0.0306952 0.0956074 3.2723e-20)
(-0.0192793 0.102922 -4.25028e-19)
(-0.00246303 0.107057 1.91368e-19)
(0.019751 0.108167 1.02182e-19)
(0.0473901 0.106455 1.56331e-20)
(0.080538 0.102156 1.40138e-19)
(0.119351 0.0955081 4.93653e-20)
(0.16406 0.0867293 -2.25827e-19)
(0.21495 0.0760039 -5.26724e-19)
(0.272321 0.0634715 2.6531e-19)
(0.336433 0.0492378 -1.36347e-19)
(0.407208 0.0332116 -3.46258e-20)
(0.485496 0.0161906 5.72998e-19)
(0.565715 -0.00568117 6.07479e-19)
(0.667091 -0.017053 -9.31157e-19)
(-0.00897658 0.0118445 -1.18471e-19)
(-0.0230906 0.032608 -1.25547e-19)
(-0.0323452 0.0509868 -2.45844e-19)
(-0.0364999 0.066519 1.77521e-19)
(-0.0352435 0.0790421 3.18426e-19)
(-0.0284014 0.0884781 -4.06227e-19)
(-0.0158921 0.0948308 6.41583e-19)
(0.00232791 0.098186 -1.23982e-19)
(0.0263009 0.0986952 1.76023e-20)
(0.0560998 0.0965575 -4.21031e-19)
(0.0918529 0.091998 1.42334e-20)
(0.133755 0.0852469 -3.43732e-19)
(0.182059 0.07652 4.58812e-19)
(0.237049 0.0660043 3.01471e-19)
(0.298984 0.0538501 -5.88649e-19)
(0.368015 0.0401817 -5.02595e-19)
(0.443891 0.024915 1.17046e-19)
(0.527141 0.00901243 6.82525e-19)
(0.611859 -0.0121044 3.17984e-19)
(0.717461 -0.0210207 1.7252e-19)
(-0.0089633 0.0112959 3.58286e-20)
(-0.0228824 0.0307922 1.21808e-19)
(-0.031821 0.047797 1.44345e-19)
(-0.0354736 0.0619645 -1.1945e-19)
(-0.0334973 0.0732054 2.94608e-19)
(-0.0256826 0.0814921 3.90002e-19)
(-0.0119077 0.0868603 5.90143e-21)
(0.00791511 0.0894119 -4.91602e-19)
(0.0338753 0.0893038 -3.89031e-19)
(0.0660942 0.0867335 4.04138e-19)
(0.104744 0.081922 -6.54746e-19)
(0.150053 0.0750958 -5.99676e-19)
(0.202286 0.066471 -5.94847e-20)
(0.261705 0.0562398 -2.97734e-20)
(0.328491 0.0445653 2.09433e-19)
(0.402637 0.0315881 1.37718e-19)
(0.483682 0.0172444 1.79227e-19)
(0.571666 0.00261586 -8.42493e-19)
(0.6607 -0.0174806 -2.37562e-19)
(0.769124 -0.0235284 6.18377e-19)
(-0.00896875 0.0108006 -2.1836e-19)
(-0.0226708 0.0290939 2.06568e-19)
(-0.0312214 0.0447629 -1.50851e-19)
(-0.0342629 0.0575842 -7.386e-20)
(-0.0314263 0.0675469 -1.9905e-19)
(-0.0224697 0.0746791 -1.48995e-19)
(-0.00723151 0.0790532 -2.63005e-19)
(0.0144214 0.0807929 4.29741e-19)
(0.0426273 0.080065 1.69285e-19)
(0.0775553 0.0770703 -4.10287e-19)
(0.119419 0.07203 -4.95527e-19)
(0.16847 0.0651707 2.64187e-19)
(0.224968 0.0567111 -2.45104e-19)
(0.289121 0.0468503 -3.44494e-19)
(0.360993 0.0357651 -4.49701e-20)
(0.440358 0.0236066 3.5274e-19)
(0.526516 0.0103529 -2.38927e-19)
(0.618828 -0.00289282 9.04347e-20)
(0.711896 -0.0216569 2.04162e-19)
(0.82128 -0.0245644 5.21836e-19)
(-0.0089911 0.0103528 -2.26613e-20)
(-0.0224472 0.0275036 -5.098e-19)
(-0.0305265 0.0418784 1.22542e-19)
(-0.0328332 0.0533794 2.69437e-19)
(-0.0289775 0.0620786 -4.93367e-20)
(-0.0186881 0.0680638 -3.18053e-19)
(-0.0017642 0.0714488 3.46066e-19)
(0.0219729 0.072383 3.91768e-19)
(0.0527097 0.0710483 1.48375e-19)
(0.0906607 0.067653 7.29635e-19)
(0.136072 0.0624222 -3.36727e-19)
(0.189206 0.0555857 1.21119e-19)
(0.250289 0.0473668 -1.64011e-19)
(0.31944 0.0379715 3.95857e-19)
(0.396556 0.0275892 -3.43403e-20)
(0.481132 0.0163741 -9.2784e-20)
(0.572195 0.00437581 -1.46101e-19)
(0.668251 -0.00743861 2.32009e-19)
(0.764945 -0.0244716 -5.86827e-19)
(0.872948 -0.0241526 -8.00179e-19)
(-0.0090269 0.00994593 -1.26098e-19)
(-0.0221994 0.0260093 -4.48391e-20)
(-0.0297122 0.0391334 -4.0625e-19)
(-0.0311452 0.049347 2.45492e-19)
(-0.0260936 0.0568075 -2.47406e-19)
(-0.0142594 0.061666 -2.48007e-19)
(0.00459579 0.0640811 -2.22642e-20)
(0.0306951 0.0642318 -3.95254e-19)
(0.0642707 0.0623189 -6.19689e-19)
(0.105576 0.0585624 1.67738e-19)
(0.154877 0.0531943 1.86522e-19)
(0.212424 0.0464501 -7.87214e-20)
(0.27838 0.0385579 6.14249e-19)
(0.352729 0.0297293 -5.5595e-20)
(0.435147 0.020163 -1.23235e-19)
(0.524799 0.0100065 -1.84882e-20)
(0.620399 -0.000585118 3.08932e-19)
(0.719477 -0.0109847 5.51194e-19)
(0.819197 -0.0256946 -1.55177e-19)
(0.922878 -0.0222171 5.793e-19)
(-0.00907106 0.00957207 3.93437e-19)
(-0.0219121 0.0245964 -6.14598e-20)
(-0.0287501 0.0365148 3.57954e-19)
(-0.0291554 0.0454797 -3.62515e-19)
(-0.0227135 0.0517361 5.28622e-19)
(-0.00910304 0.0555005 4.36773e-19)
(0.0119498 0.0569786 -3.54446e-19)
(0.0407095 0.0563828 -6.52047e-19)
(0.0774484 0.0539361 1.06929e-18)
(0.122448 0.049873 2.61457e-19)
(0.175977 0.0444355 -2.02172e-19)
(0.238243 0.0378651 -1.98496e-19)
(0.309308 0.0303944 -2.07208e-19)
(0.38897 0.0222364 -1.53149e-19)
(0.476633 0.0135924 -5.06968e-19)
(0.571083 0.00459257 -1.38956e-19)
(0.670698 -0.00448455 1.08494e-20)
(0.772046 -0.0135425 -3.78848e-19)
(0.874033 -0.0250321 1.87611e-19)
(0.969877 -0.0188665 -4.09378e-19)
(-0.00911696 0.00922274 -6.27906e-19)
(-0.0215663 0.0232488 4.1042e-19)
(-0.0276079 0.0340063 -6.0339e-19)
(-0.0268166 0.0417666 -3.24254e-19)
(-0.0187737 0.0468623 1.19401e-19)
(-0.00313794 0.0495765 -4.71629e-19)
(0.0203963 0.0501643 7.30077e-19)
(0.0521299 0.0488735 1.26372e-20)
(0.0923662 0.0459521 -3.97549e-19)
(0.141399 0.041652 -3.43654e-19)
(0.199477 0.0362261 -6.08272e-19)
(0.266729 0.0299221 -7.24868e-21)
(0.343069 0.0229736 -8.589e-20)
(0.428057 0.0155893 -2.48413e-19)
(0.520773 0.00796226 6.09821e-19)
(0.619592 0.000190877 3.76976e-19)
(0.722537 -0.00734417 9.35308e-20)
(0.825471 -0.0151518 -4.01123e-19)
(0.929038 -0.0224598 -2.01431e-20)
(1.01451 -0.0161112 -6.56779e-19)
(-0.00915653 0.00888904 2.22997e-19)
(-0.0211404 0.0219491 -4.09226e-19)
(-0.0262502 0.0315897 5.20411e-19)
(-0.0240792 0.0381935 7.22625e-19)
(-0.0142096 0.0421798 -2.32287e-19)
(0.00371551 0.0438986 2.99148e-20)
(0.0300286 0.0436553 -6.1519e-19)
(0.065059 0.0417348 -1.50955e-19)
(0.109129 0.0384123 -4.65943e-19)
(0.162524 0.0339583 6.01441e-19)
(0.225439 0.028637 5.52746e-19)
(0.297889 0.0227006 -9.74861e-20)
(0.379585 0.0163792 -7.32285e-20)
(0.469797 0.00986828 -1.16911e-19)
(0.567229 0.00333857 1.08621e-19)
(0.669827 -0.00316144 -1.96105e-19)
(0.775235 -0.00921358 -2.2804e-19)
(0.878988 -0.0158303 4.83052e-19)
(0.983134 -0.0190119 -1.54072e-19)
(1.06013 -0.0190377 3.12169e-20)
(-0.00918046 0.00856192 5.882e-20)
(-0.0206101 0.020679 8.31933e-20)
(-0.024639 0.0292453 -2.72113e-19)
(-0.0208918 0.0347441 -7.43843e-19)
(-0.00895672 0.0376794 1.19356e-19)
(0.0115338 0.0384673 3.56493e-19)
(0.0409322 0.0374636 1.60867e-19)
(0.0795858 0.0349917 6.82356e-19)
(0.127818 0.0313546 -4.23838e-19)
(0.185881 0.0268421 -5.45527e-19)
(0.253882 0.0217288 -9.87685e-20)
(0.331671 0.0162681 2.45194e-19)
(0.418707 0.0106802 5.34222e-20)
(0.513915 0.00513687 2.22792e-20)
(0.615583 -0.000229327 -2.42538e-19)