/*--------------------------------*- C++ -*----------------------------------*\
  =========                 |
  \\      /  F ield         | OpenFOAM: The Open Source CFD Toolbox
   \\    /   O peration     | Website:  https://openfoam.org
    \\  /    A nd           | Version:  7
     \\/     M anipulation  |
\*---------------------------------------------------------------------------*/
FoamFile
{
    version     2.0;
    format      ascii;
    class       surfaceScalarField;
    location    "300";
    object      phi;
}
// * * * * * * * * * * * * * * * * * * * * * * * * * * * * * * * * * * * * * //

dimensions      [0 3 -1 0 0 0 0];

internalField   nonuniform List<scalar> 
14036
(
0.00113748
-0.00160859
0.00159072
0.00116303
-0.0045194
0.00449384
0.0011833
-0.00675886
0.0067386
0.00118836
-0.0083868
0.00838173
0.00117703
-0.00939219
0.00940353
0.00115511
-0.00971163
0.00973355
0.00113103
-0.00904389
0.00906796
0.00111242
-0.0072648
0.00728341
0.00110522
-0.00451128
0.00451848
0.0011105
-0.00108239
0.00107712
0.00112318
0.0023067
-0.00231939
0.00113342
0.00551803
-0.00552826
0.00113537
0.00783992
-0.00784187
0.00112888
0.00952646
-0.00951997
0.00111769
0.00975363
-0.00974245
0.00110507
0.00880369
-0.00879106
0.00109472
0.0064736
-0.00646325
0.00108878
0.0028897
-0.00288376
0.00108718
-0.000662309
0.00066391
0.00108541
-0.00507843
0.0050802
0.00108302
-0.00748059
0.00748298
0.00107815
-0.0100647
0.0100696
0.00107093
-0.00960539
0.00961261
0.00106064
-0.00811786
0.00812815
0.00104828
-0.00549508
0.00550744
0.00103487
0.000148099
-0.00013469
0.00102474
0.00209286
-0.00208273
0.0010157
0.00844739
-0.00843835
0.00754983
-0.00754202
0.00113692
-0.00162479
0.00116124
-0.00454372
0.00118069
-0.00677832
0.00118521
-0.00839131
0.00117353
-0.00938051
0.00115159
-0.00968969
0.00112797
-0.00902026
0.00111025
-0.00724708
0.00110418
-0.00450521
0.0011105
-0.00108871
0.00112399
0.0022932
0.00113483
0.00550719
0.00113729
0.00783746
0.00113109
0.00953266
0.00111983
0.00976489
0.00110676
0.00881675
0.00109573
0.00648463
0.00108916
0.00289627
0.00108697
-0.000660119
0.00108471
-0.00507617
0.00108186
-0.00747774
0.00107673
-0.0100596
0.00106963
-0.00959829
0.00105956
-0.00810779
0.00104772
-0.00548324
0.00103462
0.000161196
0.00102493
0.00210255
0.00101619
0.00845613
0.00755786
0.00113633
-0.0016393
0.0011594
-0.00456679
0.00117805
-0.00679696
0.00118203
-0.00839529
0.00117002
-0.00936851
0.00114808
-0.00966776
0.00112492
-0.0089971
0.00110809
-0.00723026
0.00110314
-0.00450025
0.00111048
-0.00109605
0.00112479
0.00227889
0.00113624
0.00549574
0.00113921
0.00783449
0.00113331
0.00953856
0.00112198
0.00977622
0.00110847
0.00883026
0.00109675
0.00649635
0.00108957
0.00290346
0.0010868
-0.000657351
0.00108405
-0.00507342
0.00108075
-0.00747444
0.00107534
-0.0100542
0.00106836
-0.0095913
0.00105852
-0.00809795
0.00104721
-0.00547193
0.00103444
0.000173971
0.00102519
0.0021118
0.00101676
0.00846456
0.00756611
0.00113571
-0.00165209
0.00115752
-0.00458859
0.00117536
-0.00681481
0.00117884
-0.00839876
0.00116652
-0.00935619
0.00114459
-0.00964582
0.00112187
-0.00897438
0.00110593
-0.00721432
0.00110208
-0.0044964
0.00111045
-0.00110442
0.00112557
0.00226377
0.00113765
0.00548367
0.00114114
0.00783099
0.00113555
0.00954416
0.00112414
0.00978762
0.00111019
0.00884421
0.00109779
0.00650876
0.00108999
0.00291125
0.00108665
-0.000654017
0.00108344
-0.0050702
0.00107968
-0.00747069
0.001074
-0.0100485
0.00106713
-0.00958444
0.00105753
-0.00808835
0.00104676
-0.00546116
0.00103432
0.00018641
0.00102553
0.0021206
0.0010174
0.00847268
0.00757457
0.00113506
-0.00166314
0.00115559
-0.00460912
0.00117265
-0.00683187
0.00117562
-0.00840174
0.00116302
-0.00934359
0.0011411
-0.00962391
0.00111884
-0.00895212
0.00110377
-0.00719925
0.00110102
-0.00449365
0.0011104
-0.0011138
0.00112634
0.00224784
0.00113905
0.00547095
0.00114308
0.00782696
0.0011378
0.00954944
0.00112632
0.0097991
0.00111193
0.0088586
0.00109883
0.00652186
0.00109043
0.00291966
0.00108654
-0.000650128
0.00108286
-0.00506653
0.00107867
-0.00746649
0.00107271
-0.0100425
0.00106595
-0.00957768
0.00105658
-0.00807898
0.00104637
-0.00545095
0.00103428
0.000198504
0.00102594
0.00212893
0.00101812
0.0084805
0.00758326
0.00113439
-0.00167241
0.00115362
-0.00462836
0.00116989
-0.00684813
0.00117239
-0.00840424
0.00115951
-0.0093307
0.00113762
-0.00960202
0.00111581
-0.00893032
0.00110161
-0.00718504
0.00109994
-0.00449198
0.00111033
-0.00112419
0.00112708
0.00223108
0.00114045
0.00545759
0.00114502
0.00782239
0.00114005
0.00955441
0.00112851
0.00981065
0.00111368
0.00887343
0.0010999
0.00653564
0.00109089
0.00292866
0.00108646
-0.000645696
0.00108233
-0.0050624
0.0010777
-0.00746186
0.00107146
-0.0100363
0.00106482
-0.00957103
0.00105569
-0.00806985
0.00104603
-0.00544129
0.00103429
0.000210239
0.00102642
0.0021368
0.00101892
0.008488
0.00759216
0.00113369
-0.00167988
0.00115162
-0.00464628
0.0011671
-0.00686362
0.00116915
-0.00840629
0.00115601
-0.00931757
0.00113415
-0.00958016
0.00111279
-0.00890896
0.00109944
-0.00717168
0.00109884
-0.00449138
0.00111023
-0.00113558
0.00112781
0.0022135
0.00114183
0.00544357
0.00114697
0.00781725
0.00114232
0.00955905
0.0011307
0.00982227
0.00111544
0.0088887
0.00110097
0.0065501
0.00109137
0.00293827
0.00108641
-0.000640732
0.00108185
-0.00505784
0.00107678
-0.00745679
0.00107026
-0.0100298
0.00106372
-0.00956449
0.00105483
-0.00806096
0.00104574
-0.0054322
0.00103438
0.000221606
0.00102698
0.0021442
0.00101979
0.0084952
0.00760127
0.00113298
-0.00168553
0.00114958
-0.00466288
0.00116428
-0.00687832
0.00116589
-0.00840789
0.00115251
-0.00930419
0.00113069
-0.00955833
0.00110978
-0.00888805
0.00109727
-0.00715917
0.00109772
-0.00449183
0.0011101
-0.00114796
0.00112851
0.00219509
0.00114321
0.00542887
0.00114891
0.00781155
0.0011446
0.00956336
0.00113291
0.00983396
0.00111721
0.0089044
0.00110207
0.00656524
0.00109187
0.00294846
0.00108639
-0.000635248
0.0010814
-0.00505285
0.00107591
-0.0074513
0.00106911
-0.010023
0.00106267
-0.00955805
0.00105403
-0.00805232
0.00104551
-0.00542368
0.00103452
0.000232592
0.00102761
0.00215111
0.00102073
0.00850208
0.00761059
0.00113226
-0.00168934
0.00114751
-0.00467813
0.00116143
-0.00689225
0.00116262
-0.00840908
0.00114901
-0.00929058
0.00112723
-0.00953655
0.00110676
-0.00886758
0.00109508
-0.00714749
0.00109658
-0.00449333
0.00110995
-0.00116134
0.00112919
0.00217585
0.00114457
0.00541349
0.00115086
0.00780526
0.00114688
0.00956734
0.00113514
0.0098457
0.001119
0.00892054
0.00110318
0.00658106
0.0010924
0.00295924
0.00108641
-0.000629255
0.00108101
-0.00504745
0.00107509
-0.00744539
0.001068
-0.0100159
0.00106166
-0.00955171
0.00105326
-0.00804392
0.00104533
-0.00541575
0.00103473
0.000243186
0.00102831
0.00215754
0.00102174
0.00850864
0.00762013
0.00113152
-0.00169127
0.00114541
-0.00469202
0.00115856
-0.0069054
0.00115933
-0.00840986
0.00114551
-0.00927676
0.00112378
-0.00951482
0.00110375
-0.00884755
0.00109289
-0.00713662
0.00109542
-0.00449586
0.00110977
-0.00117569
0.00112985
0.00215577
0.00114592
0.00539741
0.0011528
0.00779838
0.00114917
0.00957097
0.00113737
0.00985751
0.0011208
0.00893711
0.0011043
0.00659755
0.00109294
0.0029706
0.00108645
-0.000622766
0.00108065
-0.00504165
0.00107433
-0.00743906
0.00106694
-0.0100085
0.0010607
-0.00954547
0.00105255
-0.00803577
0.0010452
-0.0054084
0.00103501
0.000253378
0.00102908
0.00216347
0.00102283
0.00851489
0.00762987
0.00113077
-0.0016913
0.00114328
-0.00470453
0.00115565
-0.00691777
0.00115604
-0.00841024
0.00114202
-0.00926274
0.00112034
-0.00949314
0.00110074
-0.00882796
0.00109068
-0.00712656
0.00109423
-0.00449941
0.00110955
-0.00119101
0.00113047
0.00213485
0.00114726
0.00538063
0.00115474
0.0077909
0.00115147
0.00957424
0.00113961
0.00986937
0.00112261
0.00895411
0.00110545
0.00661472
0.00109351
0.00298253
0.00108654
-0.000615791
0.00108035
-0.00503546
0.00107361
-0.00743232
0.00106593
-0.0100008
0.00105978
-0.00953932
0.00105188
-0.00802787
0.00104512
-0.00540164
0.00103535
0.000263156
0.00102992
0.00216889
0.00102399
0.00852082
0.00763981
0.00113002
-0.00168942
0.00114112
-0.00471563
0.00115271
-0.00692935
0.00115273
-0.00841026
0.00113853
-0.00924854
0.0011169
-0.00947151
0.00109773
-0.00880878
0.00108846
-0.0071173
0.00109301
-0.00450395
0.0011093
-0.0012073
0.00113106
0.00211309
0.00114857
0.00536312
0.00115668
0.00778279
0.00115377
0.00957715
0.00114186
0.00988127
0.00112444
0.00897153
0.00110661
0.00663256
0.0010941
0.00299504
0.00108665
-0.000608341
0.00108009
-0.0050289
0.00107295
-0.00742518
0.00106497
-0.00999285
0.0010589
-0.00953324
0.00105125
-0.00802022
0.0010451
-0.00539549
0.00103574
0.000272509
0.00103083
0.00217381
0.00102522
0.00852642
0.00764995
0.00112927
-0.00168559
0.00113895
-0.00472531
0.00114975
-0.00694016
0.00114941
-0.00840991
0.00113504
-0.00923418
0.00111347
-0.00944995
0.00109471
-0.00879002
0.00108622
-0.0071088
0.00109175
-0.00450949
0.00110901
-0.00122456
0.00113162
0.00209047
0.00114987
0.00534487
0.0011586
0.00777406
0.00115607
0.00957969
0.00114413
0.00989321
0.00112629
0.00898937
0.00110778
0.00665106
0.00109471
0.00300811
0.0010868
-0.000600429
0.00107987
-0.00502197
0.00107234
-0.00741765
0.00106406
-0.00998457
0.00105807
-0.00952725
0.00105067
-0.00801282
0.00104512
-0.00538994
0.0010362
0.000281428
0.0010318
0.00217821
0.00102652
0.0085317
0.00766028
0.00112851
-0.00167981
0.00113675
-0.00473355
0.00114677
-0.00695018
0.00114607
-0.00840921
0.00113155
-0.00921965
0.00111004
-0.00942844
0.00109169
-0.00877167
0.00108396
-0.00710107
0.00109046
-0.004516
0.00110867
-0.00124276
0.00113215
0.002067
0.00115114
0.00532588
0.00116052
0.00776467
0.00115837
0.00958184
0.0011464
0.00990518
0.00112815
0.00900762
0.00110898
0.00667023
0.00109535
0.00302174
0.00108698
-0.000592064
0.00107971
-0.0050147
0.00107179
-0.00740972
0.0010632
-0.00997598
0.00105728
-0.00952133
0.00105013
-0.00800568
0.0010452
-0.005385
0.00103672
0.000289901
0.00103284
0.00218209
0.00102789
0.00853665
0.0076708
0.00112776
-0.00167204
0.00113453
-0.00474032
0.00114376
-0.00695941
0.00114273
-0.00840818
0.00112806
-0.00920498
0.00110661
-0.00940699
0.00108866
-0.00875372
0.00108167
-0.00709408
0.00108914
-0.00452346
0.0011083
-0.00126192
0.00113263
0.00204266
0.00115238
0.00530613
0.00116242
0.00775463
0.00116067
0.0095836
0.00114867
0.00991718
0.00113002
0.00902627
0.0011102
0.00669006
0.00109601
0.00303593
0.0010872
-0.000583258
0.00107959
-0.00500709
0.00107129
-0.00740142
0.00106239
-0.00996708
0.00105654
-0.00951548
0.00104964
-0.00799878
0.00104532
-0.00538068
0.0010373
0.000297917
0.00103395
0.00218545
0.00102933
0.00854126
0.00768151
0.00112701
-0.00166226
0.00113229
-0.0047456
0.00114072
-0.00696784
0.00113937
-0.00840683
0.00112458
-0.00919019
0.00110319
-0.0093856
0.00108562
-0.00873615
0.00107936
-0.00708782
0.00108777
-0.00453187
0.00110787
-0.00128202
0.00113308
0.00201746
0.0011536
0.0052856
0.00116432
0.00774392
0.00116297
0.00958495
0.00115096
0.00992918
0.00113191
0.00904532
0.00111143
0.00671054
0.00109669
0.00305067
0.00108745
-0.000574021
0.00107952
-0.00499915
0.00107084
-0.00739275
0.00106163
-0.00995787
0.00105584
-0.00950969
0.00104919
-0.00799213
0.00104549
-0.00537697
0.00103794
0.000305467
0.00103512
0.00218827
0.00103084
0.00854554
0.00769239
0.00112627
-0.00165047
0.00113004
-0.00474936
0.00113766
-0.00697546
0.001136
-0.00840517
0.00112109
-0.00917528
0.00109976
-0.00936427
0.00108258
-0.00871897
0.00107703
-0.00708228
0.00108637
-0.0045412
0.0011074
-0.00130306
0.00113348
0.00199138
0.00115479
0.00526429
0.00116619
0.00773252
0.00116526
0.00958587
0.00115325
0.00994119
0.00113382
0.00906475
0.00111268
0.00673167
0.00109739
0.00306596
0.00108774
-0.000564364
0.00107949
-0.0049909
0.00107045
-0.00738371
0.00106092
-0.00994834
0.00105518
-0.00950395
0.00104879
-0.00798574
0.0010457
-0.00537389
0.00103863
0.000312539
0.00103635
0.00219056
0.00103241
0.00854947
0.00770344
0.00112554
-0.00163664
0.00112777
-0.0047516
0.00113458
-0.00698227
0.00113262
-0.00840321
0.00111761
-0.00916027
0.00109634
-0.009343
0.00107952
-0.00870214
0.00107467
-0.00707743
0.00108491
-0.00455145
0.00110688
-0.00132503
0.00113383
0.00196443
0.00115595
0.00524217
0.00116805
0.00772042
0.00116755
0.00958637
0.00115555
0.00995319
0.00113573
0.00908457
0.00111396
0.00675345
0.00109812
0.00308179
0.00108806
-0.000554298
0.00107951
-0.00498235
0.00107012
-0.00737431
0.00106026
-0.00993849
0.00105457
-0.00949826
0.00104842
-0.00797959
0.00104597
-0.00537143
0.00103938
0.000319124
0.00103764
0.0021923
0.00103405
0.00855306
0.00771465
0.00112482
-0.00162075
0.0011255
-0.00475228
0.00113147
-0.00698824
0.00112922
-0.00840096
0.00111412
-0.00914516
0.00109291
-0.0093218
0.00107644
-0.00868568
0.00107227
-0.00707326
0.00108342
-0.00456259
0.0011063
-0.00134792
0.00113414
0.00193659
0.00115707
0.00521925
0.00116988
0.00770761
0.00116983
0.00958642
0.00115785
0.00996517
0.00113767
0.00910475
0.00111525
0.00677587
0.00109888
0.00309816
0.00108841
-0.000543831
0.00107958
-0.00497352
0.00106984
-0.00736457
0.00105965
-0.0099283
0.001054
-0.0094926
0.0010481
-0.0079737
0.00104627
-0.0053696
0.00104019
0.000325212
0.001039
0.00219349
0.00103576
0.0085563
0.00772602
0.00112411
-0.00160279
0.00112321
-0.00475138
0.00112835
-0.00699338
0.00112581
-0.00839843
0.00111064
-0.00912999
0.00108949
-0.00930065
0.00107336
-0.00866955
0.00106985
-0.00706975
0.00108187
-0.00457461
0.00110567
-0.00137172
0.0011344
0.00190786
0.00115815
0.0051955
0.00117169
0.00769407
0.0011721
0.00958601
0.00116016
0.00997711
0.00113962
0.0091253
0.00111656
0.00679892
0.00109965
0.00311507
0.0010888
-0.000532974
0.0010797
-0.00496442
0.00106961
-0.00735449
0.0010591
-0.00991779
0.00105348
-0.00948698
0.00104782
-0.00796805
0.00104663
-0.00536841
0.00104105
0.000330792
0.00104041
0.00219413
0.00103753
0.00855918
0.00773754
0.00112341
-0.00158275
0.00112091
-0.00474888
0.00112519
-0.00699767
0.00112239
-0.00839563
0.00110715
-0.00911474
0.00108606
-0.00927956
0.00107025
-0.00865374
0.00106739
-0.00706688
0.00108027
-0.00458749
0.00110499
-0.00139644
0.00113461
0.00187824
0.0011592
0.00517091
0.00117348
0.00767979
0.00117437
0.00958512
0.00116247
0.00998901
0.00114158
0.00914619
0.0011179
0.0068226
0.00110045
0.00313252
0.00108922
-0.000521736
0.00107986
-0.00495506
0.00106945
-0.00734408
0.0010586
-0.00990694
0.00105299
-0.00948138
0.00104759
-0.00796264
0.00104702
-0.00536784
0.00104196
0.000335854
0.00104188
0.0021942
0.00103936
0.0085617
0.00774919
0.00112272
-0.00156062
0.0011186
-0.00474475
0.00112202
-0.00700109
0.00111895
-0.00839256
0.00110366
-0.00909945
0.00108262
-0.00925853
0.00106713
-0.00863825
0.00106489
-0.00706464
0.00107862
-0.00460122
0.00110424
-0.00142206
0.00113475
0.00184773
0.0011602
0.00514546
0.00117524
0.00766474
0.00117662
0.00958374
0.00116478
0.0100008
0.00114355
0.00916742
0.00111925
0.0068469
0.00110128
0.00315049
0.00108967
-0.000510126
0.00108007
-0.00494546
0.00106934
-0.00733335
0.00105814
-0.00989575
0.00105256
-0.00947579
0.00104739
-0.00795747
0.00104746
-0.00536791
0.00104292
0.000340389
0.00104341
0.00219372
0.00104126
0.00856385
0.00776098
0.00112206
-0.00153639
0.00111629
-0.00473898
0.00111883
-0.00700363
0.0011155
-0.00838923
0.00110017
-0.00908412
0.00107919
-0.00923755
0.00106399
-0.00862306
0.00106236
-0.007063
0.00107691
-0.00461577
0.00110342
-0.00144857
0.00113485
0.0018163
0.00116115
0.00511916
0.00117697
0.00764893
0.00117885
0.00958185
0.0011671
0.0100126
0.00114554
0.00918898
0.00112063
0.00687181
0.00110213
0.00316899
0.00109015
-0.000498153
0.00108032
-0.00493562
0.00106928
-0.00732231
0.00105774
-0.00988421
0.00105216
-0.00947021
0.00104724
-0.00795255
0.00104794
-0.00536861
0.00104394
0.000344386
0.001045
0.00219266
0.00104321
0.00856564
0.00777289
0.0011214
-0.00151005
0.00111397
-0.00473154
0.00111561
-0.00700527
0.00111202
-0.00838564
0.00109667
-0.00906877
0.00107574
-0.00921662
0.00106083
-0.00860815
0.00105978
-0.00706195
0.00107515
-0.00463114
0.00110255
-0.00147597
0.00113488
0.00178397
0.00116206
0.00509198
0.00117866
0.00763233
0.00118107
0.00957944
0.00116941
0.0100243
0.00114755
0.00921084
0.00112203
0.00689734
0.001103
0.00318802
0.00109067
-0.000485825
0.00108062
-0.00492557
0.00106928
-0.00731097
0.0010574
-0.00987233
0.00105181
-0.00946463
0.00104712
-0.00794785
0.00104846
-0.00536995
0.00104501
0.000347836
0.00104664
0.00219103
0.00104523
0.00856704
0.00778492
0.00112077
-0.00148158
0.00111164
-0.00472242
0.00111237
-0.007006
0.00110853
-0.0083818
0.00109317
-0.00905341
0.00107229
-0.00919575
0.00105765
-0.0085935
0.00105716
-0.00706147
0.00107332
-0.0046473
0.0011016
-0.00150425
0.00113484
0.00175073
0.00116291
0.00506391
0.00118032
0.00761492
0.00118327
0.00957649
0.00117172
0.0100358
0.00114956
0.009233
0.00112344
0.00692346
0.0011039
0.00320756
0.00109122
-0.000473151
0.00108096
-0.00491531
0.00106934
-0.00729934
0.0010571
-0.00986009
0.0010515
-0.00945903
0.00104704
-0.00794339
0.00104902
-0.00537192
0.00104612
0.00035073
0.00104833
0.00218883
0.00104731
0.00856806
0.00779704
0.00112015
-0.001451
0.00110931
-0.00471158
0.00110911
-0.0070058
0.00110502
-0.00837771
0.00108966
-0.00903805
0.00106884
-0.00917493
0.00105444
-0.0085791
0.0010545
-0.00706153
0.00107144
-0.00466423
0.00110059
-0.00153341
0.00113474
0.00171658
0.00116372
0.00503493
0.00118194
0.0075967
0.00118545
0.00957298
0.00117403
0.0100472
0.00115159
0.00925544
0.00112488
0.00695017
0.00110482
0.00322763
0.00109181
-0.000460138
0.00108135
-0.00490486
0.00106945
-0.00728744
0.00105686
-0.0098475
0.00105124
-0.00945341
0.001047
-0.00793916
0.00104961
-0.00537453
0.00104729
0.000353056
0.00105008
0.00218604
0.00104945
0.00856869
0.00780926
0.00111955
-0.00141829
0.00110698
-0.00469902
0.00110583
-0.00700464
0.00110149
-0.00837337
0.00108614
-0.0090227
0.00106537
-0.00915416
0.00105121
-0.00856493
0.00105179
-0.00706211
0.00106949
-0.00468193
0.0010995
-0.00156342
0.00113458
0.00168151
0.00116446
0.00500505
0.00118352
0.00757764
0.00118761
0.0095689
0.00117634
0.0100585
0.00115363
0.00927815
0.00112634
0.00697746
0.00110576
0.00324821
0.00109242
-0.000446793
0.00108179
-0.00489423
0.00106962
-0.00727527
0.00105667
-0.00983455
0.00105101
-0.00944775
0.00104701
-0.00793515
0.00105025
-0.00537778
0.0010485
0.000354807
0.00105188
0.00218266
0.00105165
0.00856892
0.00782156
0.00111896
-0.00138345
0.00110465
-0.0046847
0.00110252
-0.00700251
0.00109793
-0.00836879
0.00108262
-0.00900738
0.0010619
-0.00913344
0.00104795
-0.00855098
0.00104904
-0.0070632
0.00106748
-0.00470037
0.00109834
-0.00159429
0.00113434
0.00164551
0.00116515
0.00497423
0.00118506
0.00755773
0.00118974
0.00956422
0.00117864
0.0100696
0.00115569
0.0093011
0.00112782
0.00700532
0.00110673
0.0032693
0.00109306
-0.000433124
0.00108227
-0.00488343
0.00106984
-0.00726284
0.00105653
-0.00982124
0.00105083
-0.00944205
0.00104704
-0.00793136
0.00105092
-0.00538165
0.00104975
0.000355973
0.00105373
0.00217868
0.0010539
0.00856874
0.00783394
0.0011184
-0.00134649
0.00110232
-0.00466863
0.0010992
-0.00699938
0.00109436
-0.00836395
0.00107908
-0.00899211
0.00105842
-0.00911278
0.00104466
-0.00853723
0.00104623
-0.00706477
0.0010654
-0.00471953
0.00109711
-0.001626
0.00113402
0.0016086
0.00116577
0.00494249
0.00118655
0.00753696
0.00119184
0.00955892
0.00118094
0.0100805
0.00115775
0.00932429
0.00112933
0.00703374
0.00110773
0.0032909
0.00109374
-0.000419136
0.00108279
-0.00487248
0.00107012
-0.00725017
0.00105645
-0.00980757
0.0010507
-0.0094363
0.00104712
-0.00792778
0.00105162
-0.00538615
0.00105105
0.000356543
0.00105562
0.00217411
0.00105621
0.00856815
0.00784637
0.00111785
-0.00130741
0.00109999
-0.00465076
0.00109585
-0.00699524
0.00109076
-0.00835885
0.00107553
-0.00897689
0.00105492
-0.00909217
0.00104135
-0.00852365
0.00104338
-0.00706681
0.00106325
-0.0047394
0.0010958
-0.00165854
0.00113364
0.00157076
0.00116633
0.00490979
0.00118799
0.0075153
0.00119392
0.00955299
0.00118322
0.0100912
0.00115982
0.00934769
0.00113085
0.00706271
0.00110875
0.003313
0.00109445
-0.000404836
0.00108335
-0.00486138
0.00107045
-0.00723728
0.00105641
-0.00979353
0.0010506
-0.00943049
0.00104723
-0.00792441
0.00105236
-0.00539129
0.0010524
0.00035651
0.00105757
0.00216894
0.00105857
0.00856715
0.00785885
0.00111731
-0.0012662
0.00109765
-0.0046311
0.00109248
-0.00699007
0.00108713
-0.0083535
0.00107197
-0.00896173
0.00105142
-0.00907161
0.001038
-0.00851023
0.00104047
-0.00706928
0.00106103
-0.00475996
0.00109441
-0.00169192
0.00113317
0.00153199
0.00116683
0.00487613
0.00118938
0.00749275
0.00119596
0.00954641
0.0011855
0.0101016
0.0011619
0.00937129
0.0011324
0.00709222
0.00110979
0.00333561
0.00109518
-0.000390229
0.00108395
-0.00485015
0.00107084
-0.00722416
0.00105643
-0.00977912
0.00105054
-0.0094246
0.00104737
-0.00792124
0.00105313
-0.00539705
0.00105378
0.000355863
0.00105956
0.00216316
0.00106099
0.00856572
0.00787136
0.00111679
-0.00122289
0.00109532
-0.00460963
0.00108909
-0.00698384
0.00108347
-0.00834789
0.0010684
-0.00894665
0.0010479
-0.00905112
0.00103463
-0.00849696
0.00103752
-0.00707217
0.00105875
-0.00478119
0.00109293
-0.0017261
0.00113262
0.0014923
0.00116725
0.00484151
0.00119071
0.00746928
0.00119797
0.00953915
0.00118776
0.0101118
0.00116399
0.00939506
0.00113396
0.00712225
0.00111085
0.00335872
0.00109595
-0.000375321
0.0010846
-0.00483881
0.00107128
-0.00721084
0.0010565
-0.00976435
0.00105053
-0.00941863
0.00104756
-0.00791827
0.00105394
-0.00540343
0.00105521
0.000354594
0.0010616
0.00215676
0.00106347
0.00856385
0.0078839
0.00111629
-0.00117748
0.00109299
-0.00458633
0.00108568
-0.00697653
0.00107979
-0.008342
0.00106481
-0.00893167
0.00104437
-0.00903068
0.00103122
-0.00848381
0.0010345
-0.00707545
0.00105639
-0.00480308
0.00109138
-0.00176109
0.001132
0.00145169
0.0011676
0.00480591
0.00119199
0.00744489
0.00119995
0.0095312
0.00119002
0.0101218
0.00116609
0.00941898
0.00113555
0.0071528
0.00111194
0.00338232
0.00109674
-0.000360117
0.00108528
-0.00482735
0.00107177
-0.00719733
0.00105663
-0.00974921
0.00105056
-0.00941256
0.00104777
-0.00791548
0.00105477
-0.00541043
0.00105667
0.000352692
0.00106368
0.00214975
0.00106599
0.00856154
0.00789645
0.0011158
-0.00112997
0.00109066
-0.00456118
0.00108224
-0.00696811
0.00107608
-0.00833584
0.0010612
-0.00891678
0.00104083
-0.00901031
0.00102778
-0.00847076
0.00103143
-0.0070791
0.00105396
-0.00482561
0.00108974
-0.00179688
0.00113128
0.00141015
0.00116787
0.00476932
0.00119321
0.00741955
0.00120188
0.00952253
0.00119225
0.0101314
0.0011682
0.00944304
0.00113715
0.00718384
0.00111306
0.00340642
0.00109756
-0.000344621
0.00108601
-0.00481579
0.00107232
-0.00718364
0.0010568
-0.00973369
0.00105063
-0.00940638
0.00104802
-0.00791287
0.00105564
-0.00541805
0.00105818
0.00035015
0.00106581
0.00214212
0.00106857
0.00855878
0.007909
0.00111532
-0.00108039
0.00108833
-0.00453419
0.00107879
-0.00695857
0.00107234
-0.00832939
0.00105757
-0.00890201
0.00103727
-0.00899002
0.00102431
-0.0084578
0.0010283
-0.00708309
0.00105145
-0.00484876
0.00108802
-0.00183345
0.00113048
0.00136769
0.00116807
0.00473173
0.00119437
0.00739326
0.00120377
0.00951312
0.00119447
0.0101407
0.00117031
0.00946721
0.00113878
0.00721537
0.00111419
0.003431
0.00109841
-0.000328837
0.00108677
-0.00480415
0.00107291
-0.00716979
0.00105703
-0.00971781
0.00105073
-0.00940008
0.0010483
-0.00791044
0.00105653
-0.00542628
0.00105972
0.000346958
0.00106798
0.00213386
0.0010712
0.00855556
0.00792153
0.00111486
-0.00102874
0.001086
-0.00450533
0.00107531
-0.00694788
0.00106856
-0.00832265
0.00105391
-0.00888737
0.0010337
-0.00896981
0.00102081
-0.00844492
0.00102512
-0.00708739
0.00104887
-0.00487251
0.00108622
-0.00187079
0.0011296
0.0013243
0.00116819
0.00469314
0.00119546
0.00736599
0.00120562
0.00950296
0.00119668
0.0101496
0.00117242
0.00949146
0.00114043
0.00724736
0.00111535
0.00345607
0.00109929
-0.000312769
0.00108756
-0.00479243
0.00107356
-0.00715579
0.00105731
-0.00970156
0.00105088
-0.00939366
0.00104861
-0.00790817
0.00105745
-0.00543511
0.0010613
0.000343108
0.00107019
0.00212497
0.00107387
0.00855188
0.00793403
0.0011144
-0.000975038
0.00108367
-0.0044746
0.00107181
-0.00693601
0.00106475
-0.00831559
0.00105024
-0.00887285
0.00103011
-0.00894968
0.00101728
-0.00843209
0.00102187
-0.00709199
0.00104621
-0.00489685
0.00108432
-0.00190891
0.00112862
0.00128001
0.00116822
0.00465354
0.00119648
0.00733773
0.00120742
0.00949201
0.00119886
0.0101582
0.00117454
0.00951578
0.00114209
0.00727981
0.00111654
0.00348163
0.00110019
-0.00029642
0.0010884
-0.00478064
0.00107426
-0.00714164
0.00105764
-0.00968495
0.00105107
-0.00938709
0.00104895
-0.00790605
0.00105839
-0.00544455
0.00106291
0.000338589
0.00107244
0.00211545
0.0010766
0.00854772
0.00794648
0.00111396
-0.000919309
0.00108135
-0.00444198
0.00106828
-0.00692295
0.00106091
-0.00830822
0.00104654
-0.00885848
0.0010265
-0.00892964
0.00101371
-0.00841929
0.00101857
-0.00709684
0.00104347
-0.00492175
0.00108234
-0.00194777
0.00112755
0.00123479
0.00116817
0.00461292
0.00119743
0.00730847
0.00120918
0.00948026
0.00120102
0.0101664
0.00117666
0.00954014
0.00114378
0.00731269
0.00111775
0.00350766
0.00110112
-0.000279793
0.00108927
-0.00476878
0.001075
-0.00712738
0.00105802
-0.00966797
0.0010513
-0.00938036
0.00104933
-0.00790408
0.00105936
-0.00545458
0.00106456
0.000333393
0.00107472
0.00210528
0.00107937
0.00854307
0.00795888
0.00111352
-0.00086157
0.00107902
-0.00440748
0.00106474
-0.00690867
0.00105703
-0.00830051
0.00104281
-0.00884426
0.00102288
-0.00890971
0.00101011
-0.00840652
0.0010152
-0.00710193
0.00104065
-0.00494721
0.00108027
-0.00198739
0.00112639
0.00118867
0.00116803
0.00457128
0.00119831
0.00727819
0.00121088
0.00946769
0.00120315
0.0101741
0.00117878
0.00956452
0.00114548
0.00734599
0.00111898
0.00353416
0.00110208
-0.000262889
0.00109017
-0.00475687
0.00107579
-0.007113
0.00105846
-0.00965063
0.00105156
-0.00937347
0.00104973
-0.00790225
0.00106036
-0.00546521
0.00106624
0.000327511
0.00107705
0.00209447
0.00108219
0.00853794
0.00797121
0.00111308
-0.000801841
0.00107669
-0.00437109
0.00106117
-0.00689315
0.00105312
-0.00829245
0.00103905
-0.0088302
0.00101924
-0.0088899
0.00100648
-0.00839376
0.00101177
-0.00710722
0.00103776
-0.00497319
0.00107811
-0.00202775
0.00112514
0.00114165
0.0011678
0.00452862
0.00119911
0.00724688
0.00121253
0.00945428
0.00120526
0.0101814
0.0011809
0.00958888
0.0011472
0.00737969
0.00112023
0.00356113
0.00110306
-0.000245712
0.0010911
-0.00474492
0.00107663
-0.00709854
0.00105894
-0.00963294
0.00105187
-0.0093664
0.00105016
-0.00790054
0.00106137
-0.00547643
0.00106795
0.000320935
0.00107941
0.00208301
0.00108505
0.0085323
0.00798344
0.00111265
-0.000740144
0.00107437
-0.00433281
0.00105758
-0.00687637
0.00104916
-0.00828403
0.00103527
-0.0088163
0.00101558
-0.00887021
0.00100281
-0.008381
0.00100828
-0.00711269
0.00103478
-0.00499969
0.00107587
-0.00206884
0.0011238
0.00109372
0.00116749
0.00448493
0.00119984
0.00721453
0.00121412
0.00943999
0.00120734
0.0101882
0.00118302
0.0096132
0.00114894
0.00741376
0.00112151
0.00358856
0.00110406
-0.000228263
0.00109207
-0.00473293
0.00107752
-0.00708399
0.00105947
-0.00961489
0.00105221
-0.00935913
0.00105062
-0.00789895
0.00106241
-0.00548822
0.00106969
0.000313655
0.00108181
0.0020709
0.00108796
0.00852615
0.00799557
0.00111223
-0.000676503
0.00107204
-0.00429262
0.00105397
-0.0068583
0.00104517
-0.00827523
0.00103145
-0.00880258
0.00101189
-0.00885066
0.000999115
-0.00836822
0.00100472
-0.0071183
0.00103171
-0.00502668
0.00107353
-0.00211066
0.00112236
0.00104489
0.00116708
0.00444021
0.00120048
0.00718113
0.00121565
0.00942482
0.00120939
0.0101944
0.00118513
0.00963746