/*--------------------------------*- C++ -*----------------------------------*\
  =========                 |
  \\      /  F ield         | OpenFOAM: The Open Source CFD Toolbox
   \\    /   O peration     | Website:  https://openfoam.org
    \\  /    A nd           | Version:  7
     \\/     M anipulation  |
\*---------------------------------------------------------------------------*/
FoamFile
{
    version     2.0;
    format      ascii;
    class       volVectorField;
    location    "300";
    object      U;
}
// * * * * * * * * * * * * * * * * * * * * * * * * * * * * * * * * * * * * * //

dimensions      [0 1 -1 0 0 0 0];

internalField   nonuniform List<vector> 
7158
(
(0.759119 -0.0675707 -5.18389e-23)
(0.777475 -0.187624 -4.49674e-23)
(0.796407 -0.277037 -6.9611e-23)
(0.807419 -0.339378 -3.36828e-23)
(0.805643 -0.37511 3.80044e-23)
(0.794261 -0.38267 -5.42202e-24)
(0.777906 -0.351472 -5.98347e-23)
(0.76337 -0.278392 -4.2437e-23)
(0.754259 -0.170396 -1.6547e-23)
(0.755197 -0.0402012 7.46481e-23)
(0.763148 0.084851 -5.09312e-23)
(0.774322 0.199823 2.46498e-23)
(0.779134 0.279742 3.02053e-23)
(0.779148 0.335042 6.93038e-23)
(0.772628 0.33818 2.23904e-24)
(0.766384 0.300949 6.13174e-23)
(0.758077 0.21819 6.4211e-23)
(0.755087 0.0959998 1.55914e-23)
(0.752967 -0.0217898 -1.11293e-23)
(0.755841 -0.164348 -4.07704e-23)
(0.753547 -0.2387 -2.65832e-23)
(0.755206 -0.316705 -1.42141e-23)
(0.749586 -0.298087 2.38697e-23)
(0.747607 -0.248489 -3.74431e-23)
(0.737954 -0.165955 2.28155e-23)
(0.732668 0.00417744 2.96999e-23)
(0.722189 0.0612061 2.42814e-23)
(0.720857 0.244149 -1.11419e-24)
(0.712667 0.215171 6.24252e-24)
(0.759849 -0.068354 4.83105e-24)
(0.778031 -0.188727 -2.2878e-22)
(0.796868 -0.277917 7.58192e-23)
(0.807787 -0.339636 1.34443e-22)
(0.805847 -0.374713 2.77457e-23)
(0.794258 -0.381868 -3.89413e-24)
(0.777762 -0.350605 1.65748e-22)
(0.763192 -0.277756 2.02903e-22)
(0.75416 -0.170205 1.5952e-22)
(0.755153 -0.040479 -9.70293e-23)
(0.763084 0.0843059 -1.2056e-22)
(0.774194 0.199374 1.47672e-22)
(0.779034 0.279595 -4.28129e-23)
(0.779213 0.335197 1.87225e-23)
(0.77283 0.338501 -1.18279e-22)
(0.766655 0.301322 -8.49972e-23)
(0.758282 0.218485 -6.71335e-23)
(0.755264 0.0961443 -6.15362e-23)
(0.75316 -0.0217896 1.82382e-22)
(0.75599 -0.164343 -6.2329e-23)
(0.75358 -0.238676 2.80368e-23)
(0.754958 -0.316606 1.45128e-22)
(0.749208 -0.297923 -7.43671e-23)
(0.7472 -0.248236 1.37143e-22)
(0.737528 -0.165648 5.39101e-23)
(0.732537 0.00451124 5.4338e-23)
(0.721931 0.0614364 2.59308e-23)
(0.721203 0.244344 5.79664e-23)
(0.712861 0.215335 4.69528e-24)
(0.76066 -0.0690653 1.16525e-22)
(0.778656 -0.189775 2.53714e-22)
(0.797394 -0.27876 5.78218e-23)
(0.80822 -0.339867 -1.52886e-22)
(0.806119 -0.374298 2.97647e-22)
(0.794326 -0.38106 1.40194e-22)
(0.77769 -0.349752 -7.55105e-23)
(0.763082 -0.27715 -4.42089e-22)
(0.754124 -0.170055 -2.22445e-22)
(0.755167 -0.0407946 -1.04296e-22)
(0.763075 0.0837302 1.71723e-22)
(0.774125 0.198902 -4.21245e-22)
(0.778996 0.279426 1.7374e-22)
(0.77934 0.335337 -1.27703e-22)
(0.773091 0.338821 3.50416e-22)
(0.766978 0.301706 -1.00591e-23)
(0.758535 0.218802 1.64983e-22)
(0.755488 0.0963086 9.96973e-23)
(0.753406 -0.0217697 -1.63563e-22)
(0.756198 -0.16432 -2.87386e-23)
(0.753674 -0.238634 -1.06942e-22)
(0.754768 -0.316494 -8.71295e-23)
(0.748881 -0.297758 8.6876e-23)
(0.746842 -0.247987 5.7872e-24)
(0.737152 -0.165355 -8.65823e-23)
(0.73246 0.00483569 -8.59367e-23)
(0.721733 0.0616533 -3.53309e-23)
(0.72161 0.244526 -7.44895e-23)
(0.713109 0.215503 -1.38642e-23)
(0.761553 -0.0697034 1.4838e-22)
(0.779352 -0.190768 -2.33093e-22)
(0.797983 -0.279566 2.92103e-22)
(0.808719 -0.340073 1.83782e-22)
(0.80646 -0.373865 -4.43278e-22)
(0.794464 -0.380247 -7.36197e-23)
(0.777688 -0.348912 1.61645e-22)
(0.763039 -0.276575 4.71577e-22)
(0.754151 -0.169944 -5.26332e-23)
(0.755238 -0.0411475 1.34945e-22)
(0.763122 0.0831242 1.37798e-22)
(0.774114 0.198405 2.06083e-22)
(0.779019 0.279236 6.54369e-23)
(0.779529 0.335462 7.46497e-23)
(0.773409 0.33914 -2.42899e-22)
(0.767354 0.302102 -5.37345e-23)
(0.758839 0.219139 1.3495e-22)
(0.755761 0.0964923 -9.77346e-23)
(0.753706 -0.0217306 9.23628e-23)
(0.756464 -0.16428 -1.89946e-22)
(0.75383 -0.238574 6.92349e-23)
(0.754637 -0.316369 1.45114e-22)
(0.748607 -0.297593 1.03821e-22)
(0.746532 -0.24774 -3.80818e-22)
(0.736825 -0.165076 -1.47595e-22)
(0.732438 0.0051507 -3.52443e-23)
(0.721595 0.0618566 -1.85314e-23)
(0.722077 0.244697 -3.64804e-23)
(0.713412 0.215674 -2.24597e-23)
(0.76253 -0.070267 -4.40512e-22)
(0.780118 -0.191706 1.36927e-22)
(0.798637 -0.280335 -4.47442e-22)
(0.809284 -0.340254 2.54929e-22)
(0.806871 -0.373416 7.13352e-23)
(0.794672 -0.37943 -8.07194e-23)
(0.777755 -0.348084 -1.58957e-22)
(0.763062 -0.276029 6.63889e-24)
(0.754239 -0.169872 1.50215e-22)
(0.755365 -0.0415372 -2.1883e-22)
(0.763223 0.0824877 -1.54596e-22)
(0.77416 0.197883 -1.3932e-22)
(0.779104 0.279025 5.76077e-24)
(0.779779 0.335573 -5.42956e-23)
(0.773784 0.339457 5.22596e-22)
(0.767783 0.302509 -1.32184e-22)
(0.759192 0.219496 2.32461e-23)
(0.756083 0.0966957 1.7089e-22)
(0.754058 -0.0216722 -3.75393e-22)
(0.75679 -0.164221 -7.31905e-23)
(0.754048 -0.238497 3.69367e-22)
(0.754566 -0.316231 3.87362e-23)
(0.748384 -0.297427 1.15056e-22)
(0.746272 -0.247498 4.93802e-22)
(0.736548 -0.164811 1.5394e-22)
(0.732471 0.00545596 1.02957e-22)
(0.721515 0.0620463 7.67101e-23)
(0.722604 0.244856 8.14832e-23)
(0.713769 0.21585 3.61512e-23)
(0.763591 -0.070755 1.8942e-22)
(0.780957 -0.192587 6.27139e-22)
(0.799356 -0.281068 -5.74953e-23)
(0.809915 -0.34041 -4.9868e-22)
(0.80735 -0.372949 6.75024e-22)
(0.79495 -0.378608 -6.80232e-22)
(0.777892 -0.347269 1.85524e-22)
(0.76315 -0.275512 -4.85662e-22)
(0.754386 -0.169838 -2.90736e-22)
(0.755546 -0.0419634 -7.86839e-23)
(0.763377 0.0818209 -1.90331e-22)
(0.774263 0.197336 -3.89914e-22)
(0.77925 0.278791 -5.57018e-22)
(0.78009 0.33567 -2.7095e-22)
(0.774218 0.339773 -4.08643e-22)
(0.768266 0.302929 4.24183e-22)
(0.759596 0.219875 -4.83647e-22)
(0.756454 0.0969185 -1.59217e-22)
(0.754464 -0.021595 4.12458e-22)
(0.757174 -0.164146 -7.76963e-23)
(0.754328 -0.238401 -4.31369e-22)
(0.754553 -0.31608 -2.06924e-23)
(0.748213 -0.29726 -3.45133e-22)
(0.74606 -0.247259 -2.57195e-22)
(0.73632 -0.164559 -1.54573e-22)
(0.732558 0.0057513 -4.03127e-23)
(0.721495 0.0622222 -7.83342e-23)
(0.72319 0.245004 -2.50153e-24)
(0.714179 0.216029 -1.20484e-23)
(0.764737 -0.0711661 -3.61743e-23)
(0.781868 -0.193411 -7.16941e-22)
(0.80014 -0.281765 -6.54621e-22)
(0.810611 -0.340543 7.82133e-22)
(0.807898 -0.372467 -1.14708e-21)
(0.795297 -0.377782 1.03199e-21)
(0.778096 -0.346467 -4.09003e-22)
(0.763303 -0.275024 5.85101e-22)
(0.754592 -0.169842 -8.54467e-24)
(0.75578 -0.0424256 6.86061e-23)
(0.763584 0.0811239 -3.38989e-22)
(0.774421 0.196764 -5.7931e-23)
(0.779456 0.278534 -9.13035e-23)
(0.780462 0.335751 1.50421e-22)
(0.774709 0.340088 -4.6454e-22)
(0.768802 0.30336 -5.82357e-22)
(0.760052 0.220275 2.38304e-22)
(0.756874 0.0971608 4.12131e-23)
(0.754923 -0.0214991 -1.71595e-22)
(0.757618 -0.164053 4.02904e-22)
(0.754671 -0.238288 -2.4474e-22)
(0.7546 -0.315915 -2.45701e-22)
(0.748094 -0.297092 1.60701e-22)
(0.745898 -0.247023 2.03428e-22)
(0.736142 -0.164322 4.11004e-22)
(0.732699 0.00603649 -1.57957e-22)
(0.721534 0.0623842 1.67835e-22)
(0.723835 0.24514 -1.53409e-24)
(0.714644 0.216213 1.14494e-23)
(0.76597 -0.0714991 -2.30949e-23)
(0.782853 -0.194177 2.47836e-22)
(0.800989 -0.282425 4.92792e-22)
(0.811374 -0.340652 -8.38209e-22)
(0.808514 -0.37197 8.22847e-22)
(0.795713 -0.376952 -5.54424e-22)
(0.778367 -0.345677 2.64969e-22)
(0.763517 -0.274564 -5.06815e-22)
(0.754855 -0.169883 6.49468e-22)
(0.756067 -0.0429233 5.79754e-22)
(0.763842 0.0803966 9.94149e-22)
(0.774635 0.196167 2.5781e-22)
(0.779722 0.278255 6.2446e-22)
(0.780894 0.335818 3.63988e-22)
(0.775258 0.340402 6.42048e-22)
(0.769392 0.303803 4.79467e-22)
(0.760559 0.220695 -1.70761e-22)
(0.757344 0.0974224 1.69717e-22)
(0.755436 -0.0213849 -6.47826e-23)
(0.758121 -0.163943 -9.05569e-22)
(0.755077 -0.238158 4.55742e-22)
(0.754708 -0.315736 -3.66403e-22)
(0.748027 -0.296922 -3.93722e-22)
(0.745784 -0.24679 -4.64646e-22)
(0.736012 -0.164099 -2.91403e-22)
(0.732893 0.00631133 2.38006e-22)
(0.72163 0.0625323 -2.32983e-22)
(0.724537 0.245265 2.34251e-23)
(0.715163 0.216401 2.8861e-23)
(0.76729 -0.0717527 -6.57215e-22)
(0.783912 -0.194883 -5.36328e-22)
(0.801903 -0.283049 -9.19742e-23)
(0.812202 -0.340739 3.64098e-22)
(0.809199 -0.371457 -1.68825e-22)
(0.796197 -0.376118 2.62251e-22)
(0.778705 -0.344899 -5.82404e-22)
(0.763794 -0.274132 6.54575e-22)
(0.755173 -0.169961 9.25472e-23)
(0.756405 -0.0434561 -3.50249e-22)
(0.764151 0.0796391 -6.13264e-22)
(0.774904 0.195543 1.35194e-22)
(0.780047 0.277954 -4.8398e-22)
(0.781386 0.335871 -2.44026e-22)
(0.775865 0.340715 -7.42207e-22)
(0.770035 0.304258 1.44131e-22)
(0.761118 0.221137 -9.00502e-23)
(0.757864 0.0977034 3.46004e-23)
(0.756002 -0.0212524 -3.68913e-22)
(0.758683 -0.163817 7.57682e-22)
(0.755545 -0.238009 2.90647e-22)
(0.754876 -0.315542 4.14571e-23)
(0.748011 -0.29675 4.26574e-22)
(0.745719 -0.246561 1.83658e-22)
(0.735931 -0.16389 1.20677e-22)
(0.73314 0.0065756 -1.94254e-22)
(0.721785 0.0626664 2.72307e-23)
(0.725296 0.245378 -7.60254e-23)
(0.715735 0.216592 -5.69024e-23)
(0.768698 -0.071926 -6.20015e-22)
(0.785046 -0.19553 -3.27363e-23)
(0.802883 -0.283635 3.89655e-22)
(0.813096 -0.340803 2.41779e-22)
(0.809952 -0.37093 -3.44794e-22)
(0.796749 -0.375279 1.70563e-22)
(0.779107 -0.344133 6.88162e-22)
(0.764131 -0.273727 -4.22605e-22)
(0.755546 -0.170074 -2.69004e-22)
(0.756792 -0.0440237 -1.94904e-22)
(0.76451 0.0788515 6.25261e-22)
(0.775226 0.194894 -2.4027e-22)
(0.780431 0.277629 3.3898e-22)
(0.781937 0.335908 1.05204e-22)
(0.776529 0.341026 -6.30133e-22)
(0.770734 0.304726 8.99525e-22)
(0.761729 0.2216 3.43946e-22)
(0.758434 0.0980037 -5.68138e-23)
(0.756623 -0.0211021 4.63119e-22)
(0.759306 -0.163674 -4.43899e-22)
(0.756077 -0.237844 -7.68213e-22)
(0.755105 -0.315335 7.52092e-22)
(0.748048 -0.296577 -1.98545e-22)
(0.745703 -0.246335 3.54584e-22)
(0.735898 -0.163695 1.27583e-22)
(0.73344 0.00682912 1.42086e-22)
(0.721996 0.0627864 3.73318e-23)
(0.726111 0.245481 -6.85957e-24)
(0.716361 0.216788 -1.66065e-24)
(0.770194 -0.0720176 -7.48967e-22)
(0.786256 -0.196116 6.7722e-22)
(0.803929 -0.284185 8.20873e-22)
(0.814054 -0.340846 1.47194e-22)
(0.810773 -0.370389 -7.35808e-22)
(0.797368 -0.374437 -1.70575e-22)
(0.779574 -0.343378 -1.04644e-22)
(0.764527 -0.273348 1.55585e-22)
(0.755972 -0.170222 -4.83924e-22)
(0.757228 -0.0446255 7.09975e-22)
(0.764918 0.0780336 1.5896e-22)
(0.775602 0.194218 1.2763e-21)
(0.780872 0.277281 5.1521e-22)
(0.782547 0.33593 1.00334e-22)
(0.777251 0.341337 4.66753e-22)
(0.771486 0.305205 -4.87418e-22)
(0.762394 0.222084 -9.96296e-22)
(0.759055 0.0983232 2.78052e-22)
(0.757297 -0.0209341 6.03952e-22)
(0.759988 -0.163515 1.33274e-21)
(0.756673 -0.237661 4.03456e-23)
(0.755395 -0.315113 -5.9372e-22)
(0.748136 -0.296401 2.90988e-22)
(0.745735 -0.246112 -6.78531e-22)
(0.735912 -0.163515 -2.51052e-22)
(0.733793 0.00707168 8.16778e-23)
(0.722265 0.0628923 -1.16446e-22)
(0.726981 0.245572 2.92584e-23)
(0.71704 0.216988 2.91011e-23)
(0.77178 -0.0720265 1.18367e-21)
(0.787542 -0.19664 -1.12066e-21)
(0.80504 -0.284698 -4.27238e-22)
(0.815078 -0.340868 -1.2038e-21)
(0.811661 -0.369835 1.19858e-21)
(0.798053 -0.373592 -4.57859e-22)
(0.780104 -0.342635 -4.24649e-22)
(0.764981 -0.272995 2.12011e-22)
(0.75645 -0.170405 4.1325e-22)
(0.757711 -0.0452612 -1.29128e-22)
(0.765374 0.0771856 -2.94689e-22)
(0.77603 0.193516 -1.23427e-21)
(0.78137 0.276909 -1.29612e-21)
(0.783216 0.335936 -5.02546e-22)
(0.77803 0.341647 -5.03452e-22)
(0.772294 0.305697 -1.76661e-22)
(0.763111 0.22259 -7.03129e-22)
(0.759726 0.0986619 1.07752e-21)
(0.758025 -0.0207487 6.49863e-23)
(0.760729 -0.163341 -2.89452e-22)
(0.757332 -0.23746 4.38429e-22)
(0.755746 -0.314877 2.39411e-22)
(0.748276 -0.296222 3.95544e-23)
(0.745816 -0.245892 5.11884e-22)
(0.735974 -0.163349 3.11604e-23)
(0.734196 0.0073031 -1.60201e-23)
(0.72259 0.062984 1.31527e-22)
(0.727906 0.245652 -1.91284e-23)
(0.717772 0.217193 -3.34823e-23)
(0.773455 -0.0719516 6.53282e-22)
(0.788905 -0.197101 -3.7767e-22)
(0.806217 -0.285174 1.5815e-21)
(0.816165 -0.340869 3.99103e-22)
(0.812617 -0.369267 -3.27855e-22)
(0.798805 -0.372742 9.96346e-22)
(0.780696 -0.341902 1.42573e-21)
(0.765492 -0.272667 -2.60389e-22)
(0.756978 -0.170622 -7.30228e-22)
(0.75824 -0.0459304 -4.60987e-22)
(0.765876 0.0763075 -6.74127e-22)
(0.776509 0.192787 9.88099e-22)
(0.781925 0.276513 1.2384e-21)
(0.783942 0.335928 -7.62901e-22)
(0.778866 0.341955 1.18277e-21)
(0.773156 0.3062 -2.31229e-22)
(0.763883 0.223116 6.36788e-22)
(0.760449 0.0990199 -1.12342e-21)
(0.758807 -0.0205461 -8.00249e-22)
(0.761531 -0.163151 -4.61118e-22)
(0.758054 -0.237242 -7.18246e-22)
(0.756159 -0.314625 -4.13678e-22)
(0.748468 -0.296041 -1.56958e-22)
(0.745946 -0.245675 -1.58806e-22)
(0.736083 -0.163197 1.92674e-22)
(0.734651 0.0075232 -1.45127e-22)
(0.72297 0.0630614 3.86182e-23)
(0.728885 0.245721 1.06686e-22)
(0.718557 0.217402 2.89826e-23)
(0.77522 -0.0717919 -1.72477e-21)
(0.790345 -0.197498 8.6048e-24)
(0.807459 -0.285612 -1.74206e-21)
(0.817317 -0.340849 -2.57305e-22)
(0.813639 -0.368687 6.35665e-22)
(0.799621 -0.371889 -1.76063e-21)
(0.78135 -0.341179 -1.62439e-21)
(0.766059 -0.272363 -1.49863e-22)
(0.757556 -0.170871 3.2214e-22)
(0.758813 -0.0466326 6.67868e-22)
(0.766425 0.0753992 4.68162e-22)
(0.777039 0.192031 -5.56028e-22)
(0.782536 0.276093 -4.98541e-23)
(0.784726 0.335903 1.13408e-21)
(0.77976 0.342262 -9.53785e-22)
(0.774073 0.306716 -3.35167e-22)
(0.764708 0.223664 2.81073e-22)
(0.761224 0.0993969 1.42266e-21)
(0.759644 -0.0203266 1.96946e-22)
(0.762392 -0.162945 9.26568e-22)
(0.75884 -0.237008 1.20326e-22)
(0.756633 -0.314358 2.47024e-22)
(0.748711 -0.295857 -2.4492e-22)
(0.746124 -0.245461 -1.391e-22)
(0.736239 -0.16306 -2.91657e-22)
(0.735157 0.00773179 2.15599e-22)
(0.723406 0.0631245 -1.02024e-22)
(0.729917 0.245779 -2.10465e-22)
(0.719394 0.217615 -5.48497e-23)
(0.777074 -0.0715464 -1.03157e-21)
(0.791864 -0.19783 -1.16567e-21)
(0.808768 -0.286013 -1.959e-21)
(0.818531 -0.34081 -2.16087e-22)
(0.814727 -0.368095 7.77649e-22)
(0.800502 -0.371031 1.03066e-21)
(0.782064 -0.340466 2.50755e-22)
(0.76668 -0.272083 -7.64918e-23)
(0.758181 -0.171153 -2.87362e-23)
(0.759431 -0.0473675 -6.30844e-22)
(0.767018 0.0744607 -5.60857e-22)
(0.777619 0.191247 6.99967e-22)
(0.783201 0.275648 -6.7297e-22)
(0.785566 0.335863 -2.66329e-22)
(0.78071 0.342568 4.13458e-22)
(0.775046 0.307243 1.38793e-21)
(0.765588 0.224233 2.8927e-22)
(0.76205 0.0997931 -1.78853e-21)
(0.760534 -0.0200903 -2.13974e-22)
(0.763313 -0.162725 -6.14749e-22)
(0.75969 -0.236756 -4.16381e-22)
(0.75717 -0.314076 3.6827e-23)
(0.749006 -0.295669 -1.34862e-22)
(0.746351 -0.24525 2.25978e-22)
(0.73644 -0.162938 3.0726e-22)
(0.735712 0.0079287 2.6157e-22)
(0.723897 0.0631734 6.83735e-24)
(0.731001 0.245826 2.38364e-22)
(0.720284 0.217832 1.35432e-23)
(0.779019 -0.0712142 3.1939e-21)
(0.79346 -0.198097 1.76767e-21)
(0.810142 -0.286375 2.49014e-21)
(0.819808 -0.340752 1.18815e-21)
(0.815881 -0.367491 8.90891e-23)
(0.801447 -0.37017 7.83178e-22)
(0.782836 -0.339762 -6.31826e-23)
(0.767355 -0.271826 6.24888e-23)
(0.758852 -0.171466 9.16599e-22)
(0.76009 -0.0481345 9.98965e-22)
(0.767654 0.0734921 4.73624e-22)
(0.778247 0.190436 -2.4865e-22)
(0.78392 0.275179 4.56744e-22)
(0.786462 0.335807 1.29942e-22)
(0.781717 0.342872 7.01105e-22)
(0.776074 0.307783 -5.91962e-22)
(0.766522 0.224824 4.2647e-22)
(0.762929 0.100208 2.23275e-22)
(0.761478 -0.0198376 -2.00465e-22)
(0.764294 -0.16249 5.29143e-22)
(0.760604 -0.236487 1.65836e-21)
(0.757769 -0.313778 4.8662e-22)
(0.749352 -0.295478 -3.48917e-22)
(0.746625 -0.245041 -4.21438e-22)
(0.736688 -0.16283 -9.54075e-23)
(0.736317 0.00811376 -8.34774e-22)
(0.724442 0.0632079 7.40291e-23)
(0.732137 0.245862 -1.67703e-22)
(0.721226 0.218053 5.12681e-23)
(0.781053 -0.0707943 5.01962e-22)
(0.795136 -0.198296 -2.87674e-21)
(0.811582 -0.286698 -3.91087e-22)
(0.821147 -0.340674 -4.40253e-21)
(0.817099 -0.366875 -1.24094e-21)
(0.802456 -0.369305 -4.44385e-23)
(0.783667 -0.339066 6.46532e-22)
(0.768081 -0.271591 -1.0388e-21)
(0.759569 -0.17181 -8.54701e-22)
(0.760791 -0.0489333 -7.86921e-23)
(0.768333 0.0724934 -4.31672e-22)
(0.778923 0.189597 -1.18221e-21)
(0.784692 0.274685 -2.42417e-22)
(0.787414 0.335734 4.70319e-22)
(0.782781 0.343174 -4.57509e-22)
(0.777158 0.308334 2.14079e-22)
(0.767511 0.225435 -8.42038e-22)
(0.76386 0.100643 1.5534e-21)
(0.762476 -0.0195685 -4.51643e-22)
(0.765334 -0.16224 -1.80997e-21)
(0.761581 -0.236202 -1.36773e-22)
(0.75843 -0.313464 -5.00138e-22)
(0.749749 -0.295282 2.46144e-22)
(0.746948 -0.244835 -2.92074e-22)
(0.73698 -0.162737 -7.95769e-23)
(0.736971 0.0082868 4.73918e-22)
(0.72504 0.0632281 -6.29222e-23)
(0.733323 0.245888 6.25775e-23)
(0.72222 0.218279 -2.50475e-23)
(0.783177 -0.0702859 -8.79063e-22)
(0.79689 -0.198428 3.3554e-21)
(0.813087 -0.286982 4.59722e-23)
(0.822547 -0.340577 9.39713e-22)
(0.818382 -0.366249 7.93803e-22)
(0.803527 -0.368435 -1.37035e-21)
(0.784554 -0.338379 1.08613e-22)
(0.768858 -0.271377 4.40744e-22)
(0.760329 -0.172184 -5.73052e-22)
(0.761532 -0.0497634 -9.43164e-22)
(0.769053 0.0714646 1.18167e-21)
(0.779645 0.188729 1.78698e-22)
(0.785516 0.274165 -6.57631e-22)
(0.788421 0.335645 4.47972e-23)
(0.7839 0.343474 -7.59682e-22)
(0.778297 0.308896 -4.79046e-22)
(0.768556 0.226068 3.34487e-22)
(0.764843 0.101096 2.16764e-22)
(0.763528 -0.0192834 -1.11373e-22)
(0.766433 -0.161977 2.74649e-21)
(0.762622 -0.2359 1.34036e-22)
(0.759154 -0.313133 -3.28658e-22)
(0.750197 -0.295082 2.24902e-22)
(0.747319 -0.244631 8.92302e-22)
(0.737318 -0.162658 -3.87903e-23)
(0.737673 0.00844767 -6.76218e-23)
(0.725692 0.0632339 3.56211e-23)
(0.73456 0.245902 -2.1812e-23)
(0.723266 0.218509 6.3733e-24)
(0.785391 -0.0696882 -1.06737e-21)
(0.798723 -0.19849 -1.82396e-21)
(0.814658 -0.287226 7.53251e-22)
(0.824007 -0.340462 1.97362e-21)
(0.819729 -0.365612 1.44583e-21)
(0.80466 -0.367561 -7.85682e-23)
(0.785498 -0.3377 1.18723e-21)
(0.769685 -0.271183 -3.3241e-22)
(0.761132 -0.172588 9.17511e-22)
(0.762311 -0.0506244 -4.35735e-22)
(0.769814 0.0704057 -1.92692e-22)
(0.780413 0.187834 -2.4088e-22)
(0.786392 0.273619 1.17675e-21)
(0.789481 0.335538 8.26145e-23)
(0.785075 0.343772 6.26322e-22)
(0.779492 0.30947 1.02406e-21)
(0.769656 0.226722 -8.65614e-22)
(0.76588 0.101569 -7.45038e-22)
(0.764633 -0.0189825 -1.25231e-21)
(0.767591 -0.1617 -5.37887e-22)
(0.763727 -0.235581 -2.61722e-21)
(0.759941 -0.312787 1.3248e-21)
(0.750696 -0.294877 -7.71699e-23)
(0.747737 -0.244429 -7.55149e-22)
(0.737699 -0.162593 -2.01999e-22)
(0.738422 0.00859621 -8.71055e-23)
(0.726396 0.0632254 1.30949e-23)
(0.735845 0.245906 1.01165e-24)
(0.724363 0.218743 8.03456e-24)
(0.787693 -0.0690006 4.0199e-22)
(0.800636 -0.198482 -7.80109e-22)
(0.816294 -0.28743 3.4878e-22)
(0.825527 -0.340328 -3.45245e-21)
(0.821138 -0.364964 -1.33645e-21)
(0.805855 -0.366683 8.41978e-22)
(0.786495 -0.337027 -1.28438e-21)
(0.77056 -0.27101 3.80481e-22)
(0.761977 -0.173019 -3.77117e-22)
(0.763127 -0.0515159 1.8121e-21)
(0.770613 0.0693167 -9.06616e-22)
(0.781225 0.186909 1.08352e-21)
(0.787318 0.273048 -1.05897e-21)
(0.790595 0.335415 -2.66954e-22)
(0.786306 0.344068 4.5341e-22)
(0.780743 0.310055 -2.40506e-22)
(0.770812 0.227397 1.19902e-21)
(0.766969 0.102061 -2.27201e-21)
(0.765792 -0.0186658 1.78624e-21)
(0.768809 -0.161409 -1.18852e-21)
(0.764894 -0.235247 3.15276e-21)
(0.76079 -0.312424 -3.14325e-22)
(0.751246 -0.294668 1.82349e-22)
(0.748203 -0.244229 1.28837e-21)
(0.738124 -0.162543 2.94352e-22)
(0.739218 0.00873226 1.70565e-22)
(0.727152 0.0632025 3.21723e-23)
(0.737178 0.2459 8.06493e-24)
(0.725511 0.218981 -1.06696e-23)
(0.790084 -0.0682223 3.08206e-21)
(0.802627 -0.198403 7.54667e-22)
(0.817996 -0.287593 -1.51781e-21)
(0.827106 -0.340177 2.06205e-21)
(0.822609 -0.364307 1.11997e-21)
(0.80711 -0.3658 2.83017e-22)
(0.787547 -0.336361 2.90877e-22)
(0.771482 -0.270855 -2.53074e-22)
(0.762862 -0.173479 -7.35243e-22)
(0.763979 -0.0524374 -1.23738e-21)
(0.771451 0.0681976 1.28346e-22)
(0.782081 0.185956 2.19843e-22)
(0.788293 0.27245 -5.93763e-22)
(0.791762 0.335274 -2.38311e-22)
(0.787592 0.34436 -8.76637e-22)
(0.78205 0.310651 -1.46595e-21)
(0.772024 0.228093 -3.01147e-21)
(0.768113 0.102572 2.32424e-21)
(0.767004 -0.0183336 -3.21261e-21)
(0.770085 -0.161105 -9.0102e-22)
(0.766125 -0.234896 2.03327e-22)
(0.761702 -0.312043 -1.34582e-21)
(0.751846 -0.294452 2.15987e-22)
(0.748716 -0.244031 -1.12656e-21)
(0.738593 -0.162507 -2.1164e-22)
(0.74006 0.00885568 4.99021e-23)
(0.72796 0.0631653 -8.28506e-23)
(0.738559 0.245882 3.49555e-23)
(0.72671 0.219222 1.97703e-23)
(0.792562 -0.0673527 -1.49628e-21)
(0.804698 -0.198252 -1.21445e-21)
(0.819762 -0.287714 5.99113e-22)
(0.828743 -0.340007 -1.59723e-21)
(0.82414 -0.363641 -1.58825e-21)
(0.808426 -0.364912 -2.62694e-22)
(0.788651 -0.3357 5.18369e-22)
(0.77245 -0.270718 -3.07089e-22)
(0.763786 -0.173965 8.95629e-22)
(0.764866 -0.0533883 1.35181e-21)
(0.772325 0.0670486 4.44803e-22)
(0.782979 0.184974 -3.39997e-22)
(0.789316 0.271826 6.25907e-22)
(0.79298 0.335115 8.30357e-23)
(0.788933 0.34465 -3.27019e-22)
(0.783412 0.311257 1.04441e-21)
(0.773293 0.22881 7.98906e-22)
(0.76931 0.103102 2.56458e-21)
(0.76827 -0.0179862 2.6188e-21)
(0.771419 -0.160788 9.72839e-22)
(0.767419 -0.234529 -1.76366e-21)
(0.762678 -0.311646 1.69929e-21)
(0.752497 -0.294231 3.37612e-23)
(0.749276 -0.243834 7.32748e-22)
(0.739104 -0.162485 4.50065e-23)
(0.740948 0.00896634 -3.57402e-22)
(0.728818 0.0631138 6.79627e-23)
(0.739986 0.245854 -9.29847e-23)
(0.727959 0.219468 -9.74118e-24)
(0.795127 -0.0663914 2.55284e-21)
(0.806848 -0.198027 1.1577e-21)
(0.821593 -0.287793 -2.55264e-21)
(0.830436 -0.339819 1.53897e-21)
(0.825732 -0.362965 1.36429e-22)
(0.809802 -0.36402 -1.3233e-21)
(0.789807 -0.335044 1.36544e-21)
(0.773462 -0.270598 -6.1451e-22)
(0.764747 -0.174477 -1.79548e-22)
(0.765787 -0.0543683 -8.92656e-22)
(0.773234 0.0658696 -1.20824e-21)
(0.783917 0.183962 1.17294e-22)
(0.790386 0.271175 2.00787e-24)
(0.794249 0.334938 6.98373e-22)
(0.790328 0.344936 2.99507e-22)
(0.784831 0.311874 -1.97251e-21)
(0.774618 0.229548 3.02122e-21)
(0.770561 0.103651 -7.18231e-22)
(0.769589 -0.0176235 1.92375e-21)
(0.772812 -0.160459 -1.0989e-21)
(0.768775 -0.234146 1.40123e-21)
(0.763716 -0.311231 -1.6113e-21)
(0.753198 -0.294004 -4.04747e-22)
(0.749883 -0.243639 -6.42431e-22)
(0.739657 -0.162477 6.11574e-23)
(0.74188 0.00906409 2.91449e-22)
(0.729726 0.0630479 -3.44651e-23)
(0.741459 0.245816 -3.50601e-23)
(0.729259 0.219718 2.88824e-24)
(0.797778 -0.0653378 -3.24301e-21)
(0.809076 -0.197728 -2.8216e-21)
(0.823489 -0.287828 1.97919e-21)
(0.832186 -0.339614 1.35603e-21)
(0.827382 -0.362281 9.67692e-23)
(0.811236 -0.363122 4.14505e-22)
(0.791013 -0.334393 -6.41847e-22)
(0.774517 -0.270495 5.74391e-22)
(0.765745 -0.175014 -1.30397e-23)
(0.766741 -0.0553768 3.59031e-22)
(0.774177 0.0646608 4.93991e-22)
(0.784896 0.18292 -5.25519e-22)
(0.791502 0.270497 4.09902e-22)
(0.795567 0.334743 -1.04179e-21)
(0.791777 0.345217 -3.03881e-22)
(0.786305 0.312501 4.0826e-21)
(0.776 0.230306 -2.18077e-21)
(0.771866 0.104219 -2.25151e-21)
(0.770961 -0.0172458 -3.02491e-21)
(0.774262 -0.160117 2.71566e-21)
(0.770193 -0.233748 -2.14367e-21)
(0.764818 -0.310799 6.5799e-22)
(0.753949 -0.293769 -3.72754e-22)
(0.750537 -0.243445 5.2748e-22)
(0.740251 -0.162484 -1.02497e-22)
(0.742857 0.0091488 5.02955e-24)
(0.730684 0.0629678 7.52643e-23)
(0.742977 0.245766 1.29087e-22)
(0.730608 0.219971 -1.86873e-23)
(0.800514 -0.0641916 5.44645e-21)
(0.811383 -0.197354 2.68537e-21)
(0.825449 -0.287819 7.76885e-22)
(0.833991 -0.339391 1.74285e-21)
(0.82909 -0.361589 -1.61701e-21)
(0.812729 -0.362219 -1.52486e-21)
(0.792268 -0.333744 -7.89602e-23)
(0.775614 -0.270406 8.95504e-22)
(0.766779 -0.175576 6.73185e-22)
(0.767725 -0.0564133 -3.22499e-22)
(0.775153 0.0634221 2.79935e-22)
(0.785912 0.181849 8.90831e-23)
(0.792663 0.269791 -7.03399e-22)
(0.796935 0.334529 2.75853e-22)
(0.79328 0.345495 1.49914e-21)
(0.787835 0.313138 -2.89609e-21)
(0.777438 0.231085 1.94977e-21)
(0.773227 0.104807 -1.19993e-21)
(0.772385 -0.0168533 -1.49953e-21)
(0.77577 -0.159764 -1.17559e-21)
(0.771673 -0.233335 1.61437e-21)
(0.765983 -0.310348 5.89457e-22)
(0.75475 -0.293528 7.53168e-22)
(0.751237 -0.243252 2.59368e-23)
(0.740886 -0.162504 1.81705e-22)
(0.743876 0.00922034 -5.44399e-23)
(0.73169 0.0628733 -1.73743e-22)
(0.744539 0.245707 8.28383e-23)
(0.732006 0.220227 5.07055e-24)
(0.803333 -0.0629526 -1.28128e-21)
(0.813768 -0.196903 -1.16379e-21)
(0.827473 -0.287766 -9.46246e-22)
(0.83585 -0.33915 4.11817e-22)
(0.830854 -0.360889 6.12127e-22)
(0.814279 -0.36131 -6.05288e-22)
(0.793573 -0.333099 -1.28668e-21)
(0.776751 -0.270333 -8.45126e-22)
(0.767847 -0.176161 -1.03196e-21)
(0.76874 -0.0574773 -1.87481e-22)
(0.776161 0.0621538 -3.877e-22)
(0.786966 0.180748 1.09089e-22)
(0.793868 0.269057 1.2567e-21)
(0.798352 0.334295 6.66494e-22)
(0.794835 0.345768 -1.34658e-21)
(0.789421 0.313785 1.00126e-22)
(0.778934 0.231885 -1.60766e-21)
(0.774642 0.105413 4.18347e-21)
(0.773863 -0.016446 2.39521e-21)
(0.777336 -0.159399 1.77784e-21)
(0.773214 -0.232906 1.05151e-21)
(0.767211 -0.30988 -1.27457e-21)
(0.7556 -0.29328 -7.71995e-23)
(0.751983 -0.243059 -7.03941e-22)
(0.741562 -0.162537 -2.06878e-22)
(0.744938 0.0092786 -1.38398e-23)
(0.732745 0.0627647 3.57771e-23)
(0.746144 0.245636 -1.81531e-22)
(0.733454 0.220487 2.80506e-24)
(0.806236 -0.0616204 2.25935e-22)
(0.816231 -0.196376 2.66508e-21)
(0.82956 -0.287666 2.08656e-21)
(0.837763 -0.338891 -4.67388e-23)
(0.832673 -0.360181 2.1517e-21)
(0.815885 -0.360396 1.901e-22)
(0.794925 -0.332456 2.03439e-21)
(0.777927 -0.270272 1.6742e-22)
(0.768948 -0.176768 5.00945e-23)
(0.769784 -0.0585683 1.043e-21)
(0.777199 0.0608559 8.2395e-22)
(0.788056 0.179616 -2.1664e-22)
(0.795115 0.268295 -1.44996e-21)
(0.799815 0.334041 -1.27233e-21)
(0.796443 0.346036 -1.06527e-21)
(0.791062 0.31444 -1.65217e-21)
(0.780487 0.232704 2.55857e-22)
(0.776112 0.106039 1.04418e-21)
(0.775393 -0.016024 2.45885e-24)
(0.778958 -0.159022 -7.68936e-23)
(0.774816 -0.232463 -1.37058e-21)
(0.768501 -0.309394 1.04887e-21)
(0.7565 -0.293023 6.52082e-22)
(0.752775 -0.242867 6.28662e-23)
(0.742277 -0.162584 1.27842e-22)
(0.746041 0.00932345 -1.44787e-23)
(0.733847 0.0626419 -8.19508e-23)
(0.747791 0.245555 -4.55884e-23)
(0.73495 0.220751 5.87528e-24)
(0.809219 -0.060195 -9.1128e-22)
(0.818771 -0.19577 -5.51987e-22)
(0.831711 -0.28752 3.20882e-22)
(0.839728 -0.338614 6.29264e-22)
(0.834546 -0.359466 7.7733e-22)
(0.817548 -0.359477 -1.59463e-22)
(0.796324 -0.331813 -2.692e-22)
(0.779141 -0.270224 5.13077e-22)
(0.770081 -0.177398 -2.49823e-22)
(0.770856 -0.0596857 -1.05678e-21)
(0.778266 0.0595285 -7.91266e-22)
(0.789181 0.178454 2.78552e-22)
(0.796403 0.267505 4.45949e-22)
(0.801325 0.333768 2.66067e-21)
(0.798103 0.346298 1.67403e-21)
(0.792759 0.315104 -3.05828e-22)
(0.782097 0.233544 -9.22565e-22)
(0.777638 0.106685 -4.50888e-21)
(0.776976 -0.0155875 -9.10482e-22)
(0.780637 -0.158634 -3.982e-21)
(0.776478 -0.232005 8.94506e-22)
(0.769855 -0.308889 6.67167e-22)
(0.75745 -0.292759 -7.17148e-22)
(0.753612 -0.242675 5.80455e-22)
(0.743032 -0.162644 2.0677e-23)
(0.747185 0.00935478 2.13936e-23)
(0.734995 0.0625048 1.52348e-22)
(0.749479 0.245463 1.19219e-22)
(0.736495 0.221017 5.93073e-26)
(0.812282 -0.0586763 4.44747e-21)
(0.821387 -0.195086 -2.36558e-21)
(0.833925 -0.287327 -7.17525e-22)
(0.841745 -0.338319 -6.30455e-23)
(0.836472 -0.358745 -1.99872e-21)
(0.819266 -0.358551 3.42012e-22)
(0.79777 -0.331171 -1.25063e-21)
(0.780392 -0.270188 -2.691e-22)
(0.771245 -0.178048 -9.08364e-22)
(0.771955 -0.060829 6.13648e-22)
(0.779362 0.0581719 2.45704e-22)
(0.790339 0.177261 -5.42427e-22)
(0.797732 0.266686 -4.80755e-22)
(0.80288 0.333473 -5.22466e-22)
(0.799813 0.346554 -4.99376e-22)
(0.794511 0.315777 -7.02114e-22)
(0.783765 0.234403 1.43246e-23)
(0.77922 0.107349 1.25465e-22)
(0.778611 -0.0151365 1.35002e-21)
(0.782372 -0.158236 4.88053e-21)
(0.7782 -0.231533 3.96611e-22)
(0.771272 -0.308365 -1.79826e-21)
(0.758448 -0.292485 6.20949e-23)
(0.754494 -0.242483 -6.43558e-22)
(0.743824 -0.162718 -2.92258e-23)
(0.748369 0.00937249 -1.42971e-23)
(0.73619 0.0623537 2.85008e-22)
(0.751209 0.245361 1.85852e-22)
(0.738087 0.221287 -1.25252e-24)
(0.815423 -0.0570644 -3.43638e-21)
(0.824079 -0.194322 5.83401e-21)
(0.836202 -0.287084 -8.20997e-22)
(0.843812 -0.338006 2.33746e-21)
(0.838449 -0.358017 -3.7236e-22)
(0.821038 -0.35762 8.58801e-22)
(0.799261 -0.330529 6.80956e-22)
(0.781677 -0.270163 7.72474e-22)
(0.772439 -0.178719 3.43859e-22)
(0.77308 -0.0619976 3.88298e-22)
(0.780484 0.0567861 3.69897e-23)
(0.791529 0.176038 6.71131e-22)
(0.799099 0.265837 4.74253e-22)
(0.804479 0.333158 -1.05268e-21)
(0.801575 0.346804 -7.42127e-22)
(0.796318 0.316457 1.00472e-21)
(0.78549 0.235283 8.41469e-22)
(0.780858 0.108033 3.09426e-21)
(0.780299 -0.0146711 -3.05343e-21)
(0.784162 -0.157826 -1.29398e-21)
(0.779982 -0.231046 -1.03275e-22)
(0.772751 -0.307822 1.06379e-21)
(0.759495 -0.292203 -1.7291e-22)
(0.755421 -0.242291 1.0583e-22)
(0.744655 -0.162804 -5.24744e-23)
(0.749592 0.00937646 3.5075e-23)
(0.73743 0.0621885 -2.27571e-22)
(0.752977 0.245248 -1.34365e-22)
(0.739727 0.221559 1.53256e-24)
(0.818641 -0.0553592 -5.14602e-21)
(0.826846 -0.193477 -4.06507e-21)
(0.83854 -0.286792 -1.68061e-21)
(0.845929 -0.337674 -2.73145e-21)
(0.840475 -0.357284 1.15675e-21)
(0.822864 -0.356682 -1.29205e-21)
(0.800797 -0.329885 1.93783e-22)
(0.782996 -0.270146 8.248e-23)
(0.773661 -0.179408 1.84725e-22)
(0.774231 -0.0631908 -2.06885e-23)
(0.781632 0.0553715 9.64696e-23)
(0.792749 0.174784 1.27767e-22)
(0.800504 0.26496 -1.40433e-21)
(0.806121 0.332821 5.37247e-22)
(0.803386 0.347046 1.99214e-22)
(0.79818 0.317144 2.47956e-21)
(0.787272 0.236181 2.27162e-21)
(0.782553 0.108737 -5.9051e-22)