/*--------------------------------*- C++ -*----------------------------------*\
  =========                 |
  \\      /  F ield         | OpenFOAM: The Open Source CFD Toolbox
   \\    /   O peration     | Website:  https://openfoam.org
    \\  /    A nd           | Version:  7
     \\/     M anipulation  |
\*---------------------------------------------------------------------------*/
FoamFile
{
    version     2.0;
    format      ascii;
    class       volScalarField;
    location    "20";
    object      p;
}
// * * * * * * * * * * * * * * * * * * * * * * * * * * * * * * * * * * * * * //

dimensions      [0 2 -2 0 0 0 0];

internalField   nonuniform List<scalar> 
4575
(
-0.253003
-0.253463
-0.25386
-0.25421
-0.254526
-0.254815
-0.255086
-0.255342
-0.255589
-0.255828
-0.256064
-0.256298
-0.256536
-0.256781
-0.257047
-0.257303
-0.257541
-0.253039
-0.253498
-0.253893
-0.254242
-0.254556
-0.254844
-0.255113
-0.255368
-0.255613
-0.255851
-0.256084
-0.256317
-0.256553
-0.256796
-0.257061
-0.257315
-0.25755
-0.253112
-0.253568
-0.25396
-0.254306
-0.254617
-0.254902
-0.255168
-0.25542
-0.255661
-0.255895
-0.256125
-0.256355
-0.256587
-0.256827
-0.257089
-0.25734
-0.257569
-0.253221
-0.253672
-0.25406
-0.254402
-0.254709
-0.254989
-0.25525
-0.255497
-0.255733
-0.255962
-0.256187
-0.25641
-0.256637
-0.256872
-0.257129
-0.257376
-0.257596
-0.253366
-0.253811
-0.254194
-0.254529
-0.25483
-0.255104
-0.255359
-0.255599
-0.255828
-0.25605
-0.256267
-0.256483
-0.256702
-0.25693
-0.257182
-0.257423
-0.257631
-0.253547
-0.253984
-0.254359
-0.254687
-0.25498
-0.255247
-0.255493
-0.255725
-0.255946
-0.256158
-0.256366
-0.256572
-0.256781
-0.257
-0.257245
-0.257478
-0.257671
-0.253762
-0.254191
-0.254557
-0.254876
-0.25516
-0.255417
-0.255653
-0.255875
-0.256084
-0.256286
-0.256482
-0.256676
-0.256873
-0.257081
-0.257317
-0.257541
-0.257715
-0.254012
-0.25443
-0.254785
-0.255094
-0.255367
-0.255613
-0.255837
-0.256047
-0.256244
-0.256431
-0.256613
-0.256794
-0.256977
-0.25717
-0.257395
-0.257609
-0.25776
-0.254701
-0.255045
-0.255341
-0.255601
-0.255834
-0.256045
-0.25624
-0.256422
-0.256594
-0.256759
-0.256923
-0.257089
-0.257266
-0.257478
-0.257679
-0.257804
-0.255003
-0.255333
-0.255616
-0.255862
-0.25608
-0.256275
-0.256454
-0.256618
-0.256772
-0.256918
-0.257062
-0.257208
-0.257366
-0.257563
-0.257749
-0.257843
-0.255336
-0.255651
-0.255918
-0.256148
-0.256349
-0.256527
-0.256686
-0.256831
-0.256964
-0.257088
-0.257209
-0.257332
-0.257467
-0.257646
-0.257816
-0.257874
-0.255699
-0.255997
-0.256247
-0.256459
-0.25664
-0.256798
-0.256937
-0.257059
-0.257169
-0.257268
-0.257363
-0.257459
-0.257568
-0.257725
-0.257877
-0.257893
-0.25609
-0.256371
-0.256601
-0.256793
-0.256954
-0.257089
-0.257204
-0.257302
-0.257384
-0.257455
-0.25752
-0.257586
-0.257665
-0.257797
-0.257929
-0.257894
-0.25651
-0.25677
-0.25698
-0.25715
-0.257287
-0.257399
-0.257488
-0.257557
-0.25761
-0.257649
-0.25768
-0.257712
-0.257756
-0.257859
-0.257967
-0.257872
-0.256957
-0.257196
-0.257383
-0.257529
-0.257641
-0.257725
-0.257785
-0.257824
-0.257844
-0.257848
-0.257841
-0.257833
-0.257837
-0.257906
-0.25799
-0.25782
-0.25743
-0.257646
-0.257809
-0.257929
-0.258013
-0.258068
-0.258097
-0.258102
-0.258086
-0.25805
-0.258001
-0.257949
-0.257907
-0.257935
-0.257994
-0.257732
-0.258121
-0.258257
-0.258349
-0.258404
-0.258427
-0.258422
-0.25839
-0.258334
-0.258255
-0.25816
-0.258058
-0.257964
-0.257944
-0.257978
-0.257599
-0.25862
-0.258727
-0.258789
-0.258811
-0.2588
-0.258759
-0.258688
-0.258588
-0.258462
-0.258315
-0.258158
-0.258005
-0.257929
-0.257941
-0.257403
-0.259141
-0.259219
-0.259248
-0.259236
-0.259189
-0.259108
-0.258995
-0.258849
-0.258672
-0.258468
-0.258249
-0.258029
-0.257888
-0.257883
-0.257095
-0.259686
-0.259731
-0.259726
-0.259678
-0.259591
-0.259469
-0.25931
-0.259115
-0.258883
-0.258618
-0.258332
-0.258037
-0.257821
-0.257807
-0.256666
-0.260264
-0.260222
-0.260135
-0.260008
-0.259841
-0.259635
-0.259387
-0.259097
-0.258766
-0.258406
-0.258029
-0.257725
-0.257668
-0.256489
-0.260817
-0.260736
-0.260609
-0.260438
-0.260225
-0.259969
-0.259666
-0.259314
-0.258913
-0.258472
-0.258007
-0.257612
-0.257425
-0.256247
-0.26139
-0.261269
-0.261098
-0.260882
-0.260621
-0.260313
-0.259953
-0.259536
-0.259061
-0.258534
-0.257969
-0.257476
-0.257155
-0.255881
-0.261983
-0.261819
-0.261603
-0.26134
-0.261029
-0.260667
-0.260248
-0.259764
-0.259211
-0.258592
-0.25792
-0.257312
-0.25686
-0.255416
-0.262387
-0.262124
-0.261811
-0.261449
-0.261032
-0.260553
-0.26
-0.259366
-0.258651
-0.257863
-0.257125
-0.256532
-0.25486
-0.262974
-0.262661
-0.262297
-0.261882
-0.261409
-0.260867
-0.260245
-0.259529
-0.258714
-0.257802
-0.256919
-0.256171
-0.254208
-0.263578
-0.263214
-0.262797
-0.262327
-0.261797
-0.261194
-0.260501
-0.259702
-0.258785
-0.257742
-0.256699
-0.255782
-0.253456
-0.263783
-0.263311
-0.262785
-0.262197
-0.261532
-0.260769
-0.259888
-0.258867
-0.257688
-0.256471
-0.25537
-0.252602
-0.264368
-0.26384
-0.263256
-0.262609
-0.261882
-0.261051
-0.260087
-0.258963
-0.257646
-0.256242
-0.254944
-0.251645
-0.264971
-0.264383
-0.26374
-0.263033
-0.262244
-0.261345
-0.260301
-0.259076
-0.257619
-0.256019
-0.254512
-0.250584
-0.26494
-0.264236
-0.263469
-0.262617
-0.261651
-0.26053
-0.259206
-0.257611
-0.255807
-0.254084
-0.249425
-0.265512
-0.264745
-0.263915
-0.263002
-0.26197
-0.260773
-0.259355
-0.257624
-0.255612
-0.253668
-0.248175
-0.265266
-0.264372
-0.263396
-0.262299
-0.261029
-0.259521
-0.25766
-0.255439
-0.253269
-0.246849
-0.2658
-0.26484
-0.263799
-0.262638
-0.261298
-0.259705
-0.257721
-0.255296
-0.252892
-0.245472
-0.266348
-0.265319
-0.264213
-0.262987
-0.26158
-0.259908
-0.257809
-0.255197
-0.252547
-0.244104
-0.26581
-0.264636
-0.263347
-0.261876
-0.260133
-0.257933
-0.255165
-0.252251
-0.24286
-0.266315
-0.265072
-0.263719
-0.262189
-0.260389
-0.258104
-0.255231
-0.251999
-0.241804
-0.265524
-0.264108
-0.262527
-0.260688
-0.258351
-0.255464
-0.251715
-0.240635
-0.265995
-0.26452
-0.262898
-0.261048
-0.258733
-0.256037
-0.251544
-0.239401
-0.264958
-0.263305
-0.261481
-0.259293
-0.257133
-0.252549
-0.243494
-0.265427
-0.26375
-0.261973
-0.259968
-0.258508
-0.255416
-0.265241
-0.264229
-0.262497
-0.260659
-0.259801
-0.257367
-0.270183
-0.263033
-0.261305
-0.260784
-0.258496
-0.270946
-0.263568
-0.261886
-0.261485
-0.259202
-0.27066
-0.262395
-0.261942
-0.259555
-0.26951
-0.262178
-0.259594
-0.267752
-0.262221
-0.259377
-0.265651
-0.258953
-0.263386
-0.261072
-0.261074
-0.258955
-0.263388
-0.262224
-0.259379
-0.265653
-0.26218
-0.259596
-0.267754
-0.262397
-0.261944
-0.259557
-0.269512
-0.263571
-0.261888
-0.261487
-0.259204
-0.270662
-0.263035
-0.261307
-0.260786
-0.258498
-0.270948
-0.264231
-0.262499
-0.260662
-0.259804
-0.257369
-0.270186
-0.265429
-0.263752
-0.261975
-0.25997
-0.258511
-0.255419
-0.265244
-0.26496
-0.263307
-0.261483
-0.259295
-0.257135
-0.252551
-0.243497
-0.265997
-0.264522
-0.2629
-0.261051
-0.258736
-0.25604
-0.251546
-0.239403
-0.265526
-0.264111
-0.26253
-0.26069
-0.258353
-0.255466
-0.251717
-0.240637
-0.266317
-0.265074
-0.263721
-0.262192
-0.260391
-0.258106
-0.255234
-0.252002
-0.241807
-0.265812
-0.264638
-0.263349
-0.261878
-0.260136
-0.257935
-0.255167
-0.252253
-0.242862
-0.26635
-0.265321
-0.264215
-0.262989
-0.261582
-0.25991
-0.257812
-0.255199
-0.252549
-0.244107
-0.265802
-0.264842
-0.263802
-0.26264
-0.261301
-0.259707
-0.257723
-0.255298
-0.252895
-0.245475
-0.266101
-0.265268
-0.264374
-0.263398
-0.262301
-0.261032
-0.259523
-0.257663
-0.255441
-0.253272
-0.246851
-0.265514
-0.264747
-0.263917
-0.263004
-0.261972
-0.260775
-0.259357
-0.257627
-0.255614
-0.25367
-0.248177
-0.264942
-0.264238
-0.263471
-0.262619
-0.261653
-0.260532
-0.259209
-0.257614
-0.25581
-0.254087
-0.249427
-0.264972
-0.264384
-0.263742
-0.263035
-0.262246
-0.261347
-0.260303
-0.259078
-0.257621
-0.256022
-0.254515
-0.250587
-0.26437
-0.263841
-0.263258
-0.262611
-0.261884
-0.261053
-0.260089
-0.258966
-0.257648
-0.256245
-0.254946
-0.251647
-0.263785
-0.263313
-0.262787
-0.262199
-0.261534
-0.260771
-0.25989
-0.258869
-0.257691
-0.256473
-0.255373
-0.252605
-0.26358
-0.263215
-0.262799
-0.262329
-0.261798
-0.261196
-0.260503
-0.259704
-0.258787
-0.257744
-0.256701
-0.255784
-0.253459
-0.262975
-0.262662
-0.262299
-0.261883
-0.26141
-0.260869
-0.260247
-0.259531
-0.258717
-0.257804
-0.256921
-0.256174
-0.25421
-0.262389
-0.262125
-0.261813
-0.261451
-0.261034
-0.260554
-0.260002
-0.259368
-0.258653
-0.257865
-0.257127
-0.256534
-0.254862
-0.261985
-0.26182
-0.261604
-0.261341
-0.26103
-0.260669
-0.26025
-0.259766
-0.259213
-0.258594
-0.257922
-0.257314
-0.256862
-0.255418
-0.261391
-0.26127
-0.261099
-0.260883
-0.260622
-0.260315
-0.259955
-0.259538
-0.259062
-0.258536
-0.257971
-0.257478
-0.257157
-0.255883
-0.260818
-0.260738
-0.26061
-0.260439
-0.260227
-0.259971
-0.259668
-0.259316
-0.258915
-0.258474
-0.258009
-0.257614
-0.257427
-0.256249
-0.260265
-0.260223
-0.260136
-0.260009
-0.259842
-0.259636
-0.259389
-0.259098
-0.258768
-0.258407
-0.258031
-0.257727
-0.25767
-0.25649
-0.259687
-0.259732
-0.259727
-0.259679
-0.259592
-0.25947
-0.259312
-0.259116
-0.258884
-0.25862
-0.258333
-0.258039
-0.257823
-0.257809
-0.256668
-0.259142
-0.25922
-0.259249
-0.259237
-0.25919
-0.259109
-0.258996
-0.25885
-0.258673
-0.25847
-0.258251
-0.258031
-0.257889
-0.257885
-0.257097
-0.258621
-0.258728
-0.25879
-0.258813
-0.258802
-0.25876
-0.258689
-0.25859
-0.258464
-0.258317
-0.258159
-0.258006
-0.25793
-0.257942
-0.257404
-0.258122
-0.258258
-0.25835
-0.258405
-0.258428
-0.258423
-0.258391
-0.258335
-0.258256
-0.258161
-0.258059
-0.257965
-0.257945
-0.25798
-0.2576
-0.257431
-0.257647
-0.25781
-0.25793
-0.258014
-0.258069
-0.258098
-0.258103
-0.258087
-0.258051
-0.258003
-0.25795
-0.257909
-0.257937
-0.257996
-0.257733
-0.256958
-0.257197
-0.257384
-0.25753
-0.257642
-0.257726
-0.257786
-0.257825
-0.257845
-0.257849
-0.257842
-0.257834
-0.257839
-0.257907
-0.257991
-0.257822
-0.256511
-0.256771
-0.256981
-0.257151
-0.257288
-0.257399
-0.257488
-0.257558
-0.257611
-0.25765
-0.257681
-0.257713
-0.257757
-0.25786
-0.257969
-0.257873
-0.256091
-0.256371
-0.256602
-0.256794
-0.256954
-0.25709
-0.257205
-0.257303
-0.257385
-0.257456
-0.257521
-0.257587
-0.257666
-0.257799
-0.25793
-0.257895
-0.255699
-0.255998
-0.256248
-0.256459
-0.256641
-0.256799
-0.256938
-0.25706
-0.257169
-0.257269
-0.257364
-0.25746
-0.257569
-0.257727
-0.257878
-0.257894
-0.255337
-0.255652
-0.255919
-0.256149
-0.256349
-0.256527
-0.256687
-0.256832
-0.256965
-0.257089
-0.25721
-0.257333
-0.257468
-0.257647
-0.257817
-0.257876
-0.255004
-0.255334
-0.255617
-0.255863
-0.25608
-0.256276
-0.256454
-0.256619
-0.256773
-0.256919
-0.257063
-0.257209
-0.257367
-0.257563
-0.25775
-0.257844
-0.254701
-0.255045
-0.255341
-0.255602
-0.255834
-0.256046
-0.256241
-0.256423
-0.256595
-0.25676
-0.256923
-0.25709
-0.257267
-0.257479
-0.25768
-0.257805
-0.254012
-0.25443
-0.254786
-0.255094
-0.255367
-0.255613
-0.255838
-0.256047
-0.256244
-0.256432
-0.256614
-0.256794
-0.256977
-0.257171
-0.257396
-0.257609
-0.257761
-0.253763
-0.254191
-0.254557
-0.254876
-0.25516
-0.255417
-0.255654
-0.255875
-0.256085
-0.256286
-0.256482
-0.256677
-0.256874
-0.257081
-0.257317
-0.257542
-0.257715
-0.253547
-0.253985
-0.25436
-0.254688
-0.254981
-0.255247
-0.255494
-0.255726
-0.255946
-0.256159
-0.256366
-0.256573
-0.256782
-0.257
-0.257245
-0.257479
-0.257671
-0.253367
-0.253812
-0.254194
-0.25453
-0.25483
-0.255104
-0.255359
-0.255599
-0.255829
-0.25605
-0.256267
-0.256483
-0.256702
-0.25693
-0.257182
-0.257423
-0.257631
-0.253222
-0.253673
-0.254061
-0.254402
-0.254709
-0.254989
-0.25525
-0.255497
-0.255733
-0.255962
-0.256187
-0.256411
-0.256637
-0.256872
-0.25713
-0.257377
-0.257596
-0.253112
-0.253568
-0.25396
-0.254306
-0.254618
-0.254903
-0.255168
-0.25542
-0.255661
-0.255896
-0.256126
-0.256355
-0.256587
-0.256827
-0.257089
-0.25734
-0.257569
-0.253039
-0.253498
-0.253893
-0.254242
-0.254556
-0.254844
-0.255113
-0.255368
-0.255613
-0.255851
-0.256084
-0.256317
-0.256553
-0.256797
-0.257061
-0.257316
-0.25755
-0.253003
-0.253463
-0.25386
-0.25421
-0.254526
-0.254815
-0.255086
-0.255342
-0.255589
-0.255828
-0.256064
-0.256298
-0.256536
-0.256781
-0.257047
-0.257303
-0.257541
-0.259424
-0.257774
-0.260843
-0.259901
-0.262304
-0.262463
-0.264557
-0.265799
-0.268258
-0.270724
-0.259459
-0.257773
-0.260861
-0.259906
-0.262313
-0.262467
-0.264559
-0.265799
-0.268257
-0.270722
-0.259531
-0.257772
-0.260899
-0.259915
-0.262329
-0.262475
-0.264564
-0.2658
-0.268253
-0.270716
-0.259637
-0.25777
-0.260954
-0.259928
-0.262353
-0.262486
-0.26457
-0.2658
-0.268246
-0.270706
-0.259777
-0.257766
-0.261027
-0.259944
-0.262385
-0.2625
-0.264578
-0.2658
-0.268237
-0.270693
-0.259951
-0.25776
-0.261116
-0.259964
-0.262423
-0.262517
-0.264587
-0.265799
-0.268224
-0.270675
-0.260157
-0.257749
-0.26122
-0.259987
-0.262467
-0.262537
-0.264596
-0.265796
-0.268208
-0.270651
-0.260394
-0.257734
-0.261339
-0.260012
-0.262515
-0.262557
-0.264604
-0.265791
-0.268186
-0.270621
-0.26066
-0.257712
-0.26147
-0.260038
-0.262567
-0.262579
-0.264611
-0.265783
-0.26816
-0.270584
-0.260954
-0.257683
-0.261612
-0.260065
-0.262622
-0.262601
-0.264616
-0.265772
-0.268127
-0.27054
-0.261276
-0.257645
-0.261764
-0.260092
-0.262677
-0.262622
-0.264619
-0.265757
-0.268087
-0.270487
-0.261622
-0.257596
-0.261922
-0.260118
-0.262732
-0.262642
-0.264618
-0.265736
-0.26804
-0.270425
-0.261992
-0.257535
-0.262086
-0.260143
-0.262786
-0.26266
-0.264612
-0.26571
-0.267985
-0.270352
-0.262385
-0.257461
-0.262252
-0.260166
-0.262836
-0.262676
-0.264601
-0.265679
-0.267922
-0.270269
-0.2628
-0.257372
-0.262419
-0.260187
-0.262882
-0.262688
-0.264584
-0.26564
-0.267849
-0.270175
-0.263236
-0.257267
-0.262584
-0.260204
-0.262922
-0.262696
-0.26456
-0.265595
-0.267767
-0.270069
-0.26369
-0.257147
-0.262744
-0.260219
-0.262956
-0.262699
-0.264529
-0.265542
-0.267675
-0.269951
-0.264165
-0.257011
-0.262897
-0.26023
-0.26298
-0.262697
-0.26449
-0.265481
-0.267573
-0.269822
-0.264673
-0.256854
-0.26304
-0.260237
-0.262995
-0.26269
-0.264443
-0.265412
-0.267461
-0.269681
-0.265212
-0.256666
-0.26318
-0.260237
-0.262998
-0.262677
-0.264387
-0.265335
-0.267339
-0.269528
-0.265652
-0.256476
-0.263315
-0.260229
-0.262994
-0.262654
-0.264322
-0.26525
-0.267208
-0.269363
-0.26607
-0.256372
-0.263366
-0.260229
-0.262982
-0.262619
-0.264248
-0.265155
-0.267067
-0.269188
-0.266524
-0.256248
-0.26339
-0.260246
-0.262926
-0.262594
-0.264162
-0.265053
-0.266915
-0.269001
-0.267002
-0.256098
-0.263406
-0.260249
-0.262865
-0.262555
-0.264066
-0.264942
-0.266755
-0.268805
-0.267491
-0.25594
-0.263401
-0.260239
-0.262793
-0.262503
-0.26396
-0.264822
-0.266585
-0.268598
-0.267989
-0.255786
-0.263367
-0.260222
-0.262704
-0.262439
-0.263844
-0.264692
-0.266407
-0.268381
-0.27124
-0.26849
-0.255639
-0.2633
-0.260196
-0.262597
-0.262365
-0.263716
-0.264553
-0.266219
-0.268155
-0.270959
-0.268988
-0.255507
-0.263199
-0.260161
-0.262472
-0.262277
-0.263576
-0.264404
-0.266022
-0.26792
-0.270667
-0.269472
-0.255398
-0.263062
-0.260114
-0.262326
-0.262176
-0.263423
-0.264243
-0.265815
-0.267676
-0.270366
-0.269924
-0.255321
-0.262888
-0.260054
-0.26216
-0.262059
-0.263257
-0.264072
-0.265599
-0.267423
-0.270055
-0.270322
-0.255283
-0.262674
-0.259978
-0.261971
-0.261924
-0.263077
-0.263888
-0.265373
-0.26716
-0.269734
-0.270633
-0.255293
-0.262423
-0.259884
-0.261759
-0.261771
-0.26288
-0.263691
-0.265135
-0.266887
-0.269404
-0.270811
-0.255355
-0.262134
-0.259768
-0.261521
-0.261597
-0.262667
-0.263479
-0.264886
-0.266604
-0.269064
-0.270797
-0.255471
-0.26181
-0.259628
-0.261257
-0.2614
-0.262436
-0.263251
-0.264623
-0.266309
-0.268713
-0.270509
-0.25563
-0.261453
-0.259459
-0.260962
-0.261176
-0.262183
-0.263005
-0.264346
-0.266002
-0.268352
-0.269841
-0.25581
-0.261064
-0.259259
-0.260636
-0.260925
-0.261908
-0.262741
-0.264054
-0.265682
-0.26798
-0.268688
-0.255998
-0.260662
-0.259035
-0.260284
-0.26065
-0.261616
-0.26246
-0.263748
-0.265351
-0.267599
-0.267039
-0.256205
-0.260261
-0.258794
-0.259909
-0.260348
-0.261299
-0.262156
-0.263421
-0.264998
-0.267194
-0.270079
-0.264532
-0.256235
-0.25977
-0.258472
-0.259441
-0.259962
-0.26091
-0.261788
-0.263035
-0.264589
-0.266735
-0.269553
-0.259318
-0.255487
-0.259047
-0.257956
-0.258804
-0.259449
-0.26043
-0.26136
-0.262619
-0.264185
-0.266315
-0.269104
-0.242343
-0.253224
-0.258094
-0.25733
-0.257943
-0.258794
-0.259822
-0.260839
-0.26213
-0.263743
-0.26589
-0.268693
-0.237545
-0.250944
-0.256236
-0.255371
-0.255762
-0.256897
-0.258138
-0.259344
-0.260766
-0.262506
-0.264737
-0.267584
-0.235701
-0.247164
-0.252686
-0.252298
-0.252742
-0.254176
-0.255725
-0.257187
-0.258804
-0.260715
-0.263068
-0.26598
-0.234052
-0.242168
-0.247438
-0.247978
-0.248761
-0.250513
-0.252421
-0.254203
-0.256068
-0.258186
-0.260688
-0.263676
-0.230672
-0.236255
-0.240855
-0.242392
-0.24376
-0.245866
-0.248142
-0.250281
-0.252435
-0.254784
-0.25745
-0.26052
-0.225282
-0.22959
-0.233403
-0.235756
-0.237844
-0.240343
-0.242963
-0.24545
-0.247902
-0.250485
-0.253313
-0.256459
-0.218307
-0.222287
-0.225511
-0.228435
-0.231235
-0.23415
-0.237072
-0.239862
-0.242585
-0.24538
-0.248345
-0.25154
-0.210326
-0.214504
-0.217464
-0.220775
-0.224178
-0.227496
-0.230684
-0.23372
-0.236667
-0.239631
-0.242695
-0.245904
-0.201815
-0.206439
-0.209426
-0.213012
-0.216877
-0.220558
-0.223983
-0.227214
-0.230333
-0.233423
-0.236544
-0.23973
-0.193127
-0.198266
-0.201473
-0.205278
-0.209477
-0.213465
-0.217103
-0.220492
-0.223738
-0.226912
-0.230056
-0.23319
-0.184497
-0.190114
-0.193635
-0.197639
-0.202074
-0.20631
-0.210136
-0.213656
-0.216996
-0.220222
-0.223362
-0.226423
-0.176062
-0.182072
-0.185933
-0.190123
-0.194728
-0.199153
-0.203142
-0.206773
-0.21018
-0.213434
-0.216551
-0.219529
-0.1679
-0.174203
-0.178384
-0.182746
-0.187474
-0.19204
-0.196161
-0.199884
-0.203341
-0.206604
-0.209686
-0.212576
-0.16005
-0.166552
-0.171006
-0.17552
-0.180336
-0.185
-0.189222
-0.193019
-0.19651
-0.199769
-0.202809
-0.205611
-0.152531
-0.159148
-0.163818
-0.168456
-0.173333
-0.178057
-0.18235
-0.1862
-0.189712
-0.192958
-0.195949
-0.198664
-0.14535
-0.152011
-0.156838
-0.161567
-0.166477
-0.171232
-0.175565
-0.179449
-0.182969
-0.186192
-0.18913
-0.191761
-0.13851
-0.145153
-0.15008
-0.154866
-0.159782
-0.164539
-0.168887
-0.172784
-0.176298
-0.179491
-0.182373
-0.184922
-0.132007
-0.13858
-0.143557
-0.148362
-0.15326
-0.157995
-0.162333
-0.166223
-0.169718
-0.172873
-0.175697
-0.178168
-0.125833
-0.132294
-0.137275
-0.142067
-0.146922
-0.151611
-0.155917
-0.159782
-0.163246
-0.166355
-0.169118
-0.171514
-0.11998
-0.126294
-0.13124
-0.135988
-0.140775
-0.145399
-0.149653
-0.153476
-0.156896
-0.159953
-0.162653
-0.164976
-0.114436
-0.120575
-0.125452
-0.130129
-0.134829
-0.139368
-0.143553
-0.147318
-0.150684
-0.153682
-0.156317
-0.15857
-0.109189
-0.115132
-0.119913
-0.124495
-0.129088
-0.133526
-0.137626
-0.141321
-0.144622
-0.147555
-0.150123
-0.152307
-0.104227
-0.109957
-0.114618
-0.119086
-0.123557
-0.12788
-0.131882
-0.135494
-0.138721
-0.141583
-0.144083
-0.146199
-0.0995361
-0.105042
-0.109565
-0.113903
-0.118238
-0.122433
-0.126326
-0.129845
-0.13299
-0.135777
-0.138206
-0.140256
-0.0951033
-0.100377
-0.104748
-0.108943
-0.113132
-0.11719
-0.120963
-0.124381
-0.127438
-0.130145
-0.132501
-0.134487
-0.0909155
-0.095953
-0.100161
-0.104204
-0.108239
-0.112151
-0.115798
-0.119107
-0.12207
-0.124694
-0.126976
-0.128898
-0.08696
-0.0917599
-0.0957983
-0.0996812
-0.103556
-0.107318
-0.110832
-0.114027
-0.116891
-0.119429
-0.121636
-0.123496
-0.0832248
-0.087788
-0.0916523
-0.0953711
-0.099082
-0.102689
-0.106066
-0.109143
-0.111905
-0.114355
-0.116486
-0.118283
-0.0796981
-0.0840276
-0.0877157
-0.0912683
-0.0948132
-0.0982637
-0.1015
-0.104457
-0.107114
-0.109474
-0.111529
-0.113264
-0.0763689
-0.0804691
-0.0839812
-0.0873669
-0.0907457
-0.0940385
-0.097134
-0.0999673
-0.102519
-0.104788
-0.106766
-0.10844
-0.0732269
-0.0771036
-0.0804412
-0.0836613
-0.0868749
-0.0900107
-0.0929647
-0.0956745
-0.0981199
-0.100297
-0.102199
-0.103812
-0.0702623
-0.0739222
-0.0770883
-0.0801451
-0.083196
-0.0861763
-0.0889898
-0.0915764
-0.0939152
-0.0960012
-0.0978275
-0.0993797
-0.067466
-0.0709164
-0.0739151
-0.0768121
-0.0797036
-0.0825313
-0.0852059
-0.0876705
-0.0899036
-0.0918991
-0.0936501
-0.0951428
-0.0648293
-0.0680783
-0.0709145
-0.073656
-0.0763923
-0.0790708
-0.0816093
-0.0839537
-0.0860824
-0.0879886
-0.0896652
-0.0910992
-0.0623444
-0.0654003
-0.0680794
-0.0706706
-0.0732564
-0.0757901
-0.0781957
-0.0804223
-0.0824485
-0.0842669
-0.0858704
-0.0872466
-0.0600037
-0.0628751
-0.0654032
-0.0678496
-0.0702904
-0.0726838
-0.0749604
-0.0770722
-0.0789983
-0.0807308
-0.0822627
-0.0835822
-0.0578003
-0.0604959
-0.0628794
-0.0651869
-0.0674884
-0.0697468
-0.0718986
-0.0738991
-0.0757278
-0.0773767
-0.0788385
-0.0801025
-0.0557278
-0.0582564
-0.0605018
-0.0626765
-0.0648448
-0.0669737
-0.0690054
-0.0708983
-0.0726327
-0.0742003
-0.0755941
-0.0768038
-0.0537802
-0.0561504
-0.0582644
-0.0603128
-0.062354
-0.0643591
-0.0662756
-0.068065
-0.0697084
-0.0711974
-0.0725252
-0.073682
-0.0519517
-0.0541722
-0.0561616
-0.05809
-0.0600106
-0.0618978
-0.0637042
-0.0653944
-0.0669502
-0.0683635
-0.0696275
-0.070733
-0.0502372
-0.0523165
-0.054188
-0.0560029
-0.0578092
-0.0595845
-0.0612861
-0.0628814
-0.0643534
-0.0656939
-0.0668964
-0.0679522
-0.0486319
-0.0505783
-0.0523386
-0.0540463
-0.0557447
-0.057414
-0.0590161
-0.0605212
-0.0619131
-0.0631841
-0.0643275
-0.0653353
-0.0471312
-0.0489528
-0.0506084
-0.0522153
-0.0538121
-0.0553815
-0.0568894
-0.0583089
-0.0596247
-0.0608292
-0.0619161
-0.0628778
-0.0457308
-0.0474357
-0.0489929
-0.0505053
-0.0520067
-0.0534821
-0.0549013
-0.0562397
-0.0574834
-0.0586247
-0.0596577
-0.0605751
-0.044427
-0.0460227
-0.0474881
-0.048912
-0.0503241
-0.0517114
-0.0530472
-0.0543093
-0.0554847
-0.0565662
-0.057548
-0.0584231
-0.0432161
-0.0447102
-0.0460897
-0.0474311
-0.04876
-0.050065
-0.0513227
-0.0525131
-0.0536244
-0.0546494
-0.0555826
-0.0564175
-0.0420949
-0.0434947
-0.0447944
-0.046059
-0.0473105
-0.048539
-0.0497237
-0.0508472
-0.0518983
-0.0528702
-0.0537577
-0.0545544
-0.0410602
-0.0423728
-0.0435986
-0.0447922
-0.0459721
-0.0471295
-0.0482466
-0.0493077
-0.0503026
-0.0512249
-0.0520694
-0.0528302
-0.0401095
-0.0413418
-0.0424994
-0.0436275
-0.0447414
-0.0458333
-0.0468879
-0.0478912
-0.0488339
-0.04971
-0.0505143
-0.0512414
-0.0392404
-0.0403992
-0.0414941
-0.0425622
-0.0436155
-0.0446474
-0.0456445
-0.0465945
-0.0474891
-0.0483224
-0.0490895
-0.0497852
-0.0384508
-0.0395426
-0.0405805
-0.0415939
-0.0425921
-0.0435692
-0.0445138
-0.0454151
-0.0462655
-0.0470596
-0.0477924
-0.048459
-0.037739
-0.0387704
-0.0397567
-0.0407206
-0.041669
-0.0425966
-0.0434936
-0.0443508
-0.0451611
-0.0459193
-0.0466208
-0.0472607
-0.0371038
-0.0380812
-0.0390212
-0.0399408
-0.0408446
-0.041728
-0.0425824
-0.0433999
-0.0441741
-0.0449001
-0.0455733
-0.0461891
-0.0365443
-0.037474
-0.0383731
-0.0392536
-0.0401181
-0.0409624
-0.0417792
-0.0425616
-0.0433038
-0.0440011
-0.0446491
-0.0452433
-0.0360601
-0.0369485
-0.0378122
-0.0386587
-0.0394891
-0.0402995
-0.0410836
-0.0418355
-0.0425498
-0.0432221
-0.0438481
-0.0444234
-0.0356515
-0.036505
-0.0373386
-0.0381564
-0.0389581
-0.0397398
-0.0404962
-0.0412222
-0.0419129
-0.0425639
-0.0431712
-0.0437304
-0.0353194
-0.0361445
-0.0369535
-0.0377479
-0.0385261
-0.0392845
-0.0400184
-0.0407233
-0.0413947
-0.0420284
-0.0426203
-0.0431662
-0.0350652
-0.0358686
-0.0366588
-0.0374352
-0.0381955
-0.0389361
-0.0396528
-0.0403414
-0.0409979
-0.0416183
-0.0421984
-0.0427342
-0.0348919
-0.0356803
-0.0364577
-0.0372219
-0.0379699
-0.0386982
-0.0394031
-0.0400807
-0.0407271
-0.0413383
-0.0419103
-0.0424391
-0.0348021
-0.0355832
-0.0363539
-0.0371118
-0.0378535
-0.0385757
-0.0392745
-0.0399465
-0.0405876
-0.0411941
-0.041762
-0.0422871
-0.243461
-0.245129
-0.247014
-0.249215
-0.251866
-0.255143
-0.259278
-0.264576
-0.271821
-0.282063
-0.240664
-0.243471
-0.246446
-0.249606
-0.252959
-0.256513
-0.260269
-0.264242
-0.268364
-0.275008
-0.230603
-0.233115
-0.235662
-0.238264
-0.240945
-0.243747
-0.246715
-0.249993
-0.253291
-0.259244
-0.219854
-0.222401
-0.224997
-0.227661
-0.23041
-0.233263
-0.236214
-0.239365
-0.242292
-0.247059
-0.209988
-0.212569
-0.215163
-0.217774
-0.220406
-0.223069
-0.225751
-0.228549
-0.231145
-0.234964
-0.199966
-0.202501
-0.205036
-0.207576
-0.210124
-0.212691
-0.215268
-0.21792
-0.220438
-0.223632
-0.190282
-0.192797
-0.19531
-0.197821
-0.200333
-0.202849
-0.205362
-0.207905
-0.210366
-0.213132
-0.181018
-0.183496
-0.185968
-0.188437
-0.190901
-0.193364
-0.195822
-0.19829
-0.200717
-0.203235
-0.172142
-0.17457
-0.176995
-0.179416
-0.181835
-0.184251
-0.186663
-0.189075
-0.19147
-0.193843
-0.163688
-0.166058
-0.168425
-0.17079
-0.173154
-0.175516
-0.177876
-0.180233
-0.182585
-0.184865
-0.155655
-0.157954
-0.160253
-0.162552
-0.164851
-0.16715
-0.16945
-0.171747
-0.174044
-0.176251
-0.148037
-0.150257
-0.152479
-0.154702
-0.156928
-0.159155
-0.161385
-0.163613
-0.165846
-0.167983
-0.140827
-0.142961
-0.145099
-0.14724
-0.149384
-0.151532
-0.153683
-0.155834
-0.157992
-0.160055
-0.134014
-0.136058
-0.138107
-0.14016
-0.142217
-0.144278
-0.146344
-0.148412
-0.150487
-0.152471
-0.127585
-0.129536
-0.131493
-0.133454
-0.13542
-0.137391
-0.139368
-0.141348
-0.143334
-0.145234
-0.121524
-0.123382
-0.125245
-0.127112
-0.128986
-0.130865
-0.132749
-0.134637
-0.136533
-0.138345
-0.115816
-0.11758
-0.119348
-0.121123
-0.122903
-0.124688
-0.12648
-0.128275
-0.130078
-0.131802
-0.110442
-0.112113
-0.113789
-0.11547
-0.117158
-0.11885
-0.120549
-0.122252
-0.123962
-0.125597
-0.105385
-0.106964
-0.108549
-0.11014
-0.111736
-0.113337
-0.114945
-0.116556
-0.118175
-0.119722
-0.100626
-0.102117
-0.103614
-0.105115
-0.106622
-0.108134
-0.109652
-0.111174
-0.112703
-0.114164
-0.0961477
-0.0975536
-0.0989644
-0.10038
-0.101801
-0.103226
-0.104657
-0.106092
-0.107534
-0.108912
-0.0932573
-0.0945855
-0.0959183
-0.0972558
-0.098598
-0.0999451
-0.101296
-0.102653
-0.10395
-0.089212
-0.0904611
-0.0917143
-0.0929719
-0.0942339
-0.0955003
-0.0967701
-0.098046
-0.0992663
-0.0854024
-0.0865758
-0.087753
-0.0889342
-0.0901193
-0.0913086
-0.0925009
-0.0936988
-0.0948452
-0.0818139
-0.0829151
-0.0840199
-0.0851281
-0.08624
-0.0873556
-0.0884739
-0.0895974
-0.0906734
-0.0784329
-0.0794656
-0.0805013
-0.0815402
-0.0825824
-0.0836278
-0.0846758
-0.0857284
-0.0867372
-0.0752467
-0.0762142
-0.0771845
-0.0781576
-0.0791335
-0.0801124
-0.0810935
-0.0820787
-0.0830239
-0.0722433
-0.0731491
-0.0740574
-0.0749682
-0.0758814
-0.0767971
-0.0777148
-0.0786362
-0.0795212
-0.0694116
-0.0702592
-0.0711088
-0.0719606
-0.0728145
-0.0736705
-0.0745283
-0.0753893
-0.0762173
-0.0667417
-0.0675341
-0.0683284
-0.0691244
-0.0699223
-0.070722
-0.0715232
-0.0723272
-0.0731013
-0.0642238
-0.0649644
-0.0657064
-0.0664499
-0.0671949
-0.0679415
-0.0686894
-0.0694395
-0.0701629
-0.0618495
-0.0625411
-0.0632339
-0.0639279
-0.0646232
-0.0653198
-0.0660174
-0.0667169
-0.0673924
-0.0596107
-0.0602562
-0.0609027
-0.0615502
-0.0621987
-0.0628482
-0.0634985
-0.0641504
-0.0647809
-0.0574999
-0.0581021
-0.0587051
-0.0593089
-0.0599134
-0.0605187
-0.0611246
-0.0617318
-0.06232
-0.0555105
-0.0560721
-0.0566342
-0.0571968
-0.0577601
-0.0583239
-0.0588882
-0.0594534
-0.0600019
-0.0536362