/*--------------------------------*- C++ -*----------------------------------*\
  =========                 |
  \\      /  F ield         | OpenFOAM: The Open Source CFD Toolbox
   \\    /   O peration     | Website:  https://openfoam.org
    \\  /    A nd           | Version:  7
     \\/     M anipulation  |
\*---------------------------------------------------------------------------*/
FoamFile
{
    version     2.0;
    format      ascii;
    class       surfaceScalarField;
    location    "20";
    object      phi;
}
// * * * * * * * * * * * * * * * * * * * * * * * * * * * * * * * * * * * * * //

dimensions      [0 3 -1 0 0 0 0];

internalField   nonuniform List<scalar> 
8899
(
-1.15868e-05
4.85418e-06
-5.10365e-10
-1.75534e-05
5.96748e-06
-8.83262e-10
-2.45227e-05
6.97068e-06
-1.32963e-09
-3.23909e-05
7.87001e-06
-1.83591e-09
-4.10628e-05
8.67427e-06
-2.39021e-09
-5.04549e-05
9.39505e-06
-2.98329e-09
-6.04983e-05
1.0047e-05
-3.60913e-09
-7.11421e-05
1.06481e-05
-4.26536e-09
-8.23567e-05
1.12195e-05
-4.95371e-09
-9.41367e-05
1.17857e-05
-5.67976e-09
-0.000106504
1.2374e-05
-6.45299e-09
-0.000119511
1.30139e-05
-7.28639e-09
-0.000133238
1.3735e-05
-8.19649e-09
-0.000147794
1.45658e-05
-9.20308e-09
-0.000163314
1.55302e-05
-1.03292e-08
-0.000179944
1.66411e-05
-1.16008e-08
1.79098e-05
-1.30471e-08
-0.00019784
-1.15548e-05
9.69442e-06
-1.75045e-05
1.19171e-05
-2.44532e-05
1.39194e-05
-3.22968e-05
1.57136e-05
-4.09397e-05
1.73171e-05
-5.02976e-05
1.8753e-05
-6.0301e-05
2.00504e-05
-7.08978e-05
2.1245e-05
-8.20574e-05
2.2379e-05
-9.37732e-05
2.35015e-05
-0.000106066
2.4667e-05
-0.000118987
2.59343e-05
-0.000132615
2.73635e-05
-0.000147061
2.90116e-05
-0.000162458
3.0927e-05
-0.000178953
3.3136e-05
3.56614e-05
-0.000196704
-1.14912e-05
1.4508e-05
-1.74071e-05
1.78331e-05
-2.43149e-05
2.08272e-05
-3.21095e-05
2.35083e-05
-4.06946e-05
2.59021e-05
-4.99845e-05
2.80429e-05
-5.99081e-05
2.9974e-05
-7.04114e-05
3.17483e-05
-8.14614e-05
3.3429e-05
-9.30491e-05
3.50892e-05
-0.000105193
3.6811e-05
-0.000117942
3.86829e-05
-0.000131374
4.07956e-05
-0.000145598
4.32358e-05
-0.000160749
4.60778e-05
-0.000176975
4.93621e-05
5.31231e-05
-0.000194436
-1.13966e-05
1.92818e-05
-1.72624e-05
2.36989e-05
-2.41091e-05
2.76739e-05
-3.18309e-05
3.12301e-05
-4.03297e-05
3.4401e-05
-4.95184e-05
3.72316e-05
-5.9323e-05
3.97786e-05
-6.96868e-05
4.2112e-05
-8.05732e-05
4.43154e-05
-9.19698e-05
4.64858e-05
-0.000103891
4.87325e-05
-0.000116383
5.11743e-05
-0.000129521
5.39336e-05
-0.000143413
5.71282e-05
-0.000158195
6.08597e-05
-0.000174018
6.5185e-05
7.01505e-05
-0.000191045
-1.1272e-05
2.40032e-05
-1.70717e-05
2.94986e-05
-2.38379e-05
3.444e-05
-3.14634e-05
3.88556e-05
-3.98485e-05
4.27861e-05
-4.89032e-05
4.62863e-05
-5.85506e-05
4.9426e-05
-6.87298e-05
5.22913e-05
-7.93999e-05
5.49855e-05
-9.05432e-05
5.76291e-05
-0.00010217
6.0359e-05
-0.00011432
6.33244e-05
-0.000127067
6.66807e-05
-0.000140517
7.05788e-05
-0.000154808
7.51503e-05
-0.000170094
8.04707e-05
8.65994e-05
-0.000186543
-1.11189e-05
2.86602e-05
-1.68371e-05
3.52168e-05
-2.35038e-05
4.11067e-05
-3.10105e-05
4.63622e-05
-3.92549e-05
5.10306e-05
-4.81442e-05
5.51755e-05
-5.75972e-05
5.8879e-05
-6.75481e-05
6.22422e-05
-7.79503e-05
6.53876e-05
-8.87798e-05
6.84587e-05
-0.00010004
7.16193e-05
-0.000111766
7.50502e-05
-0.000124026
7.8941e-05
-0.000136926
8.34782e-05
-0.000150602
8.8827e-05
-0.000165217
9.50851e-05
0.000102326
-0.000180944
-1.09388e-05
3.32412e-05
-1.65607e-05
4.08387e-05
-2.311e-05
4.7656e-05
-3.04761e-05
5.37284e-05
-3.85543e-05
5.91088e-05
-4.72477e-05
6.38689e-05
-5.64704e-05
6.81017e-05
-6.61509e-05
7.19227e-05
-7.62352e-05
7.5472e-05
-8.66921e-05
7.89155e-05
-9.75168e-05
8.24441e-05
-0.000108737
8.62702e-05
-0.000120416
9.06198e-05
-0.000132655
9.5718e-05
-0.000145596
0.000101768
-0.000159405
0.000108894
0.000117188
-0.000174266
-1.07334e-05
-1.62453e-05
4.63505e-05
-2.26599e-05
5.40707e-05
-2.9865e-05
6.09334e-05
-3.77523e-05
6.69961e-05
-4.62208e-05
7.23375e-05
-5.51791e-05
7.706e-05
-6.45486e-05
8.12921e-05
-7.42673e-05
8.51908e-05
-8.42947e-05
8.89429e-05
-9.46166e-05
9.2766e-05
-0.000105251
9.6905e-05
-0.000116256
0.000101624
-0.000127728
0.00010719
-0.00013981
0.00011385
-0.000152679
0.000121762
0.00013104
-0.00016653
-1.58936e-05
5.17393e-05
-2.21576e-05
6.03347e-05
-2.91821e-05
6.79579e-05
-3.68553e-05
7.46694e-05
-4.50715e-05
8.05536e-05
-5.37328e-05
8.57213e-05
-6.27528e-05
9.03122e-05
-7.20603e-05
9.44982e-05
-8.16039e-05
9.84864e-05
-9.13581e-05
0.00010252
-0.00010133
0.000106877
-0.000111568
0.000111862
-0.000122166
0.000117788
-0.000133268
0.000124952
-0.000145061
0.000133555
0.000143736
-0.000157757
-1.55088e-05
5.69929e-05
-2.16072e-05
6.6433e-05
-2.84328e-05
7.47834e-05
-3.58701e-05
8.21067e-05
-4.3808e-05
8.84915e-05
-5.21417e-05
9.4055e-05
-6.07759e-05
9.89464e-05
-6.96289e-05
0.000103351
-7.86369e-05
0.000107494
-8.77613e-05
0.000111645
-9.69963e-05
0.000116112
-0.000106379
0.000121244
-0.000115996
0.000127406
-0.000125996
0.000134951
-0.000136575
0.000144135
0.00015513
-0.000147969
-1.50941e-05
6.21003e-05
-2.10128e-05
7.23518e-05
-2.76225e-05
8.13931e-05
-3.48036e-05
8.92877e-05
-4.24389e-05
9.61268e-05
-5.04162e-05
0.000102032
-5.86306e-05
0.000107161
-6.69883e-05
0.000111709
-7.54119e-05
0.000115918
-8.38473e-05
0.00012008
-9.22733e-05
0.000124538
-0.000100713
0.000129684
-0.000109246
0.000135939
-0.00011802
0.000143725
-0.000127248
0.000153363
0.00016507
-0.000137188
-1.46526e-05
6.70514e-05
-2.03788e-05
7.8078e-05
-2.67568e-05
8.77711e-05
-3.36624e-05
9.61934e-05
-4.09725e-05
0.000103437
-4.85666e-05
0.000109626
-5.63293e-05
0.000114924
-6.41538e-05
0.000119533
-7.1947e-05
0.000123711
-7.96375e-05
0.00012777
-8.71857e-05
0.000132087
-9.45984e-05
0.000137097
-0.000101944
0.000143284
-0.00010937
0.000151151
-0.000117105
0.000161098
0.000173399
-0.000125433
-1.41873e-05
7.18369e-05
-1.97092e-05
8.35999e-05
-2.58408e-05
9.39027e-05
-3.24532e-05
0.000102806
-3.94169e-05
0.000110401
-4.66027e-05
0.000116812
-5.38839e-05
0.000122205
-6.11397e-05
0.000126789
-6.82597e-05
0.000130831
-7.51527e-05
0.000134663
-8.17579e-05
0.000138692
-8.80621e-05
0.000143401
-9.41193e-05
0.000149341
-0.000100074
0.000157105
-0.000106172
0.000167196
0.000179953
-0.000112726
-1.37012e-05
7.64485e-05
-1.90078e-05
8.89066e-05
-2.48793e-05
9.97742e-05
-3.11819e-05
0.000109108
-3.77792e-05
0.000116998
-4.45331e-05
0.000123566
-5.13051e-05
0.000128977
-5.7959e-05
0.000133443
-6.43659e-05
0.000137238
-7.0412e-05
0.000140709
-7.60125e-05
0.000144292
-8.113e-05
0.000148518
-8.57996e-05
0.000154011
-9.01599e-05
0.000161466
-9.44752e-05
0.000171511
0.00018456
-9.90826e-05
-1.31968e-05
8.08786e-05
-1.8278e-05
9.39877e-05
-2.38764e-05
0.000105373
-2.98534e-05
0.000115085
-3.60655e-05
0.00012321
-4.23653e-05
0.000129866
-4.86018e-05
0.000135213
-5.46228e-05
0.000139464
-6.0279e-05
0.000142894
-6.54321e-05
0.000145863
-6.99695e-05
0.00014883
-7.38252e-05
0.000152374
-7.70105e-05
0.000157196
-7.96542e-05
0.000164109
-8.20384e-05
0.000173895
0.00018704
-8.45183e-05
-1.26764e-05
-1.75225e-05
9.88338e-05
-2.28356e-05
0.000110686
-2.84717e-05
0.000120721
-3.42803e-05
0.000129019
-4.01044e-05
0.00013569
-4.57802e-05
0.000140889
-5.11387e-05
0.000144823
-5.60088e-05
0.000147764
-6.02255e-05
0.000150079
-6.36444e-05
0.000152248
-6.61665e-05
0.000154896
-6.77731e-05
0.000158803
-6.85781e-05
0.000164914
-6.88819e-05
0.000174199
0.000187205
-6.9047e-05
-1.67435e-05
0.000103436
-2.17591e-05
0.000115701
-2.70393e-05
0.000126002
-3.24262e-05
0.000134406
-3.77532e-05
0.000141017
-4.28436e-05
0.000145979
-4.75106e-05
0.00014949
-5.15605e-05
0.000151814
-5.4799e-05
0.000153318
-5.70468e-05
0.000154496
-5.81658e-05
0.000156015
-5.81013e-05
0.000158739
-5.69461e-05
0.000163759
-5.50189e-05
0.000172272
0.000184871
-5.26844e-05
-1.59422e-05
0.000107784
-2.06482e-05
0.000120407
-2.5557e-05
0.00013091
-3.05036e-05
0.000139352
-3.53117e-05
0.000145825
-3.97911e-05
0.000150459
-4.37375e-05
0.000153436
-4.69331e-05
0.00015501
-4.91527e-05
0.000155537
-5.01778e-05
0.000155521
-4.98261e-05
0.000155663
-4.79989e-05
0.000156911
-4.47609e-05
0.000160521
-4.04529e-05
0.000167964
0.000179871
-3.54537e-05
-1.51191e-05
0.000111869
-1.95026e-05
0.000124791
-2.40238e-05
0.000135432
-2.85104e-05
0.000143839
-3.2776e-05
0.00015009
-3.66174e-05
0.0001543
-3.98123e-05
0.000156631
-4.21184e-05
0.000157316
-4.32774e-05
0.000156696
-4.30286e-05
0.000155273
-4.11383e-05
0.000153773
-3.74554e-05
0.000153228
-3.20026e-05
0.000155068
-2.51568e-05
0.000161118
0.000172142
-1.74274e-05
-1.42735e-05
-1.83209e-05
0.000128838
-2.24368e-05
0.000139548
-2.64414e-05
0.000147843
-3.01386e-05
0.000153788
-3.33122e-05
0.000157474
-3.57216e-05
0.00015904
-3.70996e-05
0.000158694
-3.71539e-05
0.000156751
-3.55778e-05
0.000153696
-3.20796e-05
0.000150275
-2.64439e-05
0.000147593
-1.86194e-05
0.000147244
-8.90413e-06
0.000151403
0.000162453
7.84615e-07
-1.70999e-05
0.000132534
-2.07908e-05
0.000143238
-2.42888e-05
0.000151341
-2.7388e-05
0.000156887
-2.98592e-05
0.000159945
-3.1444e-05
0.000160625
-3.18503e-05
0.0001591
-3.07508e-05
0.000155651
-2.779e-05
0.000150736
-2.26113e-05
0.000145096
-1.49217e-05
0.000139903
-4.61019e-06
0.000136932
8.241e-06
0.000138552
0.000148445
2.22492e-05
-1.58351e-05
0.000135862
-1.90782e-05
0.000146481
-2.20412e-05
0.000154304
-2.4508e-05
0.000159354
-2.62363e-05
0.000161673
-2.69503e-05
0.000161339
-2.63333e-05
0.000158483
-2.40228e-05
0.000153341
-1.96133e-05
0.000146326
-1.26777e-05
0.00013816
-2.82728e-06
0.000130053
1.01538e-05
0.000123951
2.60806e-05
0.000122625
0.000130422
4.41041e-05
-1.45201e-05
0.000138801
-1.72895e-05
0.000149251
-1.96843e-05
0.000156699
-2.14779e-05
0.000161147
-2.24151e-05
0.00016261
-2.22026e-05
0.000161127
-2.04999e-05
0.000156781
-1.69101e-05
0.000149751
-1.09772e-05
0.000140393
-2.20016e-06
0.000129383
9.91108e-06
0.000117942
2.56996e-05
0.000108162
4.50573e-05
0.000103267
0.000108301
6.71777e-05
-1.31475e-05
-1.54129e-05
0.000151516
-1.72005e-05
0.000158487
-1.82728e-05
0.00016222
-1.83609e-05
0.000162698
-1.71543e-05
0.00015992
-1.42895e-05
0.000153916
-9.33661e-06
0.000144798
-1.79039e-06
0.000132847
8.92375e-06
0.000118669
2.3406e-05
0.000103459
4.21402e-05
8.94282e-05
6.51539e-05
8.02537e-05
8.18112e-05
9.16439e-05
-1.34344e-05
0.000153243
-1.45695e-05
0.000159622
-1.48635e-05
0.000162514
-1.4033e-05
0.000161868
-1.17504e-05
0.000157638
-7.62962e-06
0.000149795
-1.20977e-06
0.000138378
8.06053e-06
0.000123577
2.08277e-05
0.000105902
3.78028e-05
8.64842e-05
5.96274e-05
6.76035e-05
8.65022e-05
5.33789e-05
5.06438e-05
0.00011767
-1.13383e-05
0.000154389
-1.17682e-05
0.000160052
-1.12169e-05
0.000161962
-9.38545e-06
0.000160037
-5.92799e-06
0.00015418
-4.36523e-07
0.000144304
7.57879e-06
0.000130363
1.87112e-05
0.000112444
3.36733e-05
9.09401e-05
5.3284e-05
6.68735e-05
7.83522e-05
4.25353e-05
0.000109288
2.24433e-05
1.44786e-05
0.000145453
-9.10726e-06
-8.77108e-06
0.000159716
-7.29685e-06
0.000160488
-4.36754e-06
0.000157107
3.82363e-07
0.00014943
7.38325e-06
0.000137303
1.71518e-05
0.000120594
3.03181e-05
9.92781e-05
4.7652e-05
7.36061e-05
7.00712e-05
4.44543e-05
9.85529e-05
1.40536e-05
0.000133746
-1.27499e-05
-2.70001e-05
0.000175225
-5.55102e-06
0.000158544
-3.06452e-06
0.000158002
1.07498e-06
0.000152968
7.25542e-06
0.00014325
1.59308e-05
0.000128627
2.76437e-05
0.000108881
4.30552e-05
8.38665e-05
6.29816e-05
5.36797e-05
8.84231e-05
1.90128e-05
0.000120515
-1.80378e-05
0.000160163
-5.2398e-05
-7.40848e-05
0.000207247
-2.07935e-06
0.000156459
1.52066e-06
0.000154402
6.99876e-06
0.00014749
1.47691e-05
0.000135479
2.53122e-05
0.000118084
3.91964e-05
9.49972e-05
5.71094e-05
6.59536e-05
7.99005e-05
3.08886e-05
0.00010863
-9.71689e-06
0.000144566
-5.39735e-05
0.000188872
-9.67042e-05
-0.000127028
0.000241815
1.67354e-06
6.50033e-06
0.000149575
1.34615e-05
0.000140528
2.30027e-05
0.000125938
3.56351e-05
0.000105452
5.19552e-05
7.86771e-05
7.26732e-05
4.52355e-05
9.86589e-05
4.90294e-06
0.000131005
-4.2063e-05
0.00017107
-9.40389e-05
0.000220253
-0.000145887
-0.000186024
0.00027925
1.19165e-05
0.000143396
2.05209e-05
0.000131924
3.20346e-05
0.000114425
4.70057e-05
9.04808e-05
6.60626e-05
5.96203e-05
8.99376e-05
2.13605e-05
0.000119508
-2.46678e-05
0.000155869
-7.84239e-05
0.000200414
-0.000138583
0.000254722
-0.000200195
-0.000251193
0.000319891
1.78109e-05
2.82333e-05
0.000121501
4.19404e-05
0.000100718
5.95248e-05
7.28964e-05
8.16535e-05
3.74916e-05
0.000109082
-6.06844e-06
0.000142689
-5.82739e-05
0.000183537
-0.000119272
0.000232985
-0.000188032
0.000292714
-0.000259924
-0.000322563
0.000364084
3.66531e-05
0.000109073
5.27911e-05
8.45795e-05
7.32853e-05
5.24022e-05
9.88494e-05
1.19276e-05
0.000130269
-3.74877e-05
0.000168415
-9.64199e-05
0.000214296
-0.000165153
0.000269156
-0.000242892
0.000334673
-0.000325441
-0.000400054
0.000412164
4.58319e-05
9.44392e-05
6.46522e-05
6.57592e-05
8.83693e-05
2.86852e-05
0.000117754
-1.74573e-05
0.00015363
-7.33634e-05
0.000196864
-0.000139654
0.000248389
-0.000216678
0.000309255
-0.000303759
0.000381025
-0.00039721
-0.000483465
0.000464435
5.58183e-05
7.75823e-05
4.39952e-05
0.000104846
1.42125e-06
0.00013845
-5.10608e-05
0.000179265
-0.000114179
0.000228165
-0.000188554
0.000285997
-0.00027451
0.00035355
-0.000371312
0.000432164
-0.000475824
-0.000572451
0.000521149
9.16325e-05
1.90204e-05
0.000122771
-2.97176e-05
0.000160993
-8.92828e-05
0.000207233
-0.000160419
0.000262383
-0.000243704
0.000327213
-0.00033934
0.000402215
-0.000446314
0.000488428
-0.000562036
-0.000666505
0.000582482
0.000106846
0.000142184
-6.50555e-05
0.000185414
-0.000132512
0.000237547
-0.000212552
0.000299514
-0.000305671
0.000372031
-0.000411857
0.000455302
-0.000529585
0.000550025
-0.00065676
-0.000765037
0.000648557
0.000163107
-0.000104904
0.000211709
-0.000181114
0.000270164
-0.000271008
0.000339475
-0.000374981
0.000420353
-0.000492735
0.000512782
-0.000622013
0.000616922
-0.0007609
-0.000867752
0.000719637
0.000185543
0.000239838
-0.000235409
0.000304979
-0.000336148
0.000382076
-0.000452078
0.000471984
-0.000582644
0.000574792
-0.000724821
0.00068931
-0.000875418
-0.00097461
0.000796169
0.000269722
-0.000295657
0.000341799
-0.000408225
0.000426949
-0.000537228
0.000526369
-0.000682063
0.000641199
-0.000839652
0.000769843
-0.00100406
-0.00108201
0.000877238
0.000301242
0.000380354
-0.000487338
0.000473521
-0.000630395
0.000582185
-0.000790727
0.000708493
-0.00096596
0.00085799
-0.00115356
-0.00130337
0.00107936
0.000420333
0.000521161
-0.000731223
0.00063809
-0.000907657
0.000773425
-0.00110129
0.000930853
-0.00131099
-0.00150463
0.00113211
0.000569371
-0.000839158
0.000693321
-0.00103161
0.000834738
-0.00124271
0.000994582
-0.00147083
-0.00169389
0.00118385
0.000617745
0.000747528
-0.00116139
0.000893095
-0.00138828
0.00105362
-0.00163136
-0.00187405
0.00123378
0.000800366
0.00094858
-0.00153649
0.00110848
-0.00179125
-0.00204673
0.00128115
0.0010009
-0.00168599
0.00115898
-0.00194934
-0.00221256
0.00132481
0.00104961
0.00120476
-0.0021045
-0.00237153
0.00136373
0.00124537
-0.00252328
0.00139712
0.00142446
0.00252329
0.00142446
0.00124537
0.00210451
0.00237154
0.00139712
0.00104961
0.001686
0.00120476
0.00194935
0.00221257
0.00136373
0.0010009
0.0015365
0.00115899
0.00179127
0.00204674
0.00132482
0.000800369
0.0011614
0.000948583
0.00138829
0.00110848
0.00163137
0.00187407
0.00128115
0.000617748
0.000839167
0.000747532
0.00103162
0.000893098
0.00124272
0.00105362
0.00147084
0.00169391
0.00123378
0.000569374
0.000731232
0.000693325
0.000907667
0.000834742
0.00110131
0.000994586
0.001311
0.00150464
0.00118385
0.000420336
0.000487344
0.000521165
0.000630403
0.000638094
0.000790737
0.000773429
0.000965971
0.000930857
0.00115357
0.00130339
0.00113211
0.000301244
0.000295663
0.000380357
0.000408232
0.000473525
0.000537236
0.000582189
0.000682073
0.000708497
0.000839663
0.000857995
0.00100407
0.00108202
0.00107936
0.000269725
0.000235414
0.000341802
0.000336155
0.000426953
0.000452086
0.000526373
0.000582653
0.000641204
0.000724832
0.000769848
0.00087543
0.000974624
0.000877243
0.000185546
0.000104908
0.000239841
0.000181118
0.000304982
0.000271014
0.00038208
0.000374988
0.000471988
0.000492744
0.000574797
0.000622023
0.000689315
0.000760912
0.000867765
0.000796174
0.000163109
6.50589e-05
0.000211711
0.000132517
0.000270167
0.000212557
0.000339478
0.000305678
0.000420357
0.000411865
0.000512786
0.000529594
0.000616927
0.000656771
0.000765049
0.000719643
0.000106848
-1.90181e-05
0.000142186
2.97207e-05
0.000185416
8.92868e-05
0.00023755
0.000160424
0.000299517
0.00024371
0.000372035
0.000339347
0.000455306
0.000446323
0.00055003
0.000562047
0.000666517
0.000648563
9.16342e-05
-4.39932e-05
0.000122773
-1.41837e-06
0.000160996
5.10646e-05
0.000207236
0.000114184
0.000262386
0.00018856
0.000327216
0.000274517
0.000402219
0.00037132
0.000488432
0.000475834
0.000572462
0.000582487
5.58196e-05
-9.4438e-05
7.75838e-05
-6.57574e-05
0.000104848
-2.86825e-05
0.000138452
1.74608e-05
0.000179268
7.33679e-05
0.000228168
0.00013966
0.000286
0.000216685
0.000353554
0.000303767
0.000432168
0.00039722
0.000483476
0.000521154
4.5833e-05
-0.000109072
6.46535e-05
-8.45778e-05
8.83707e-05
-5.23997e-05
0.000117756
-1.19243e-05
0.000153632
3.74919e-05
0.000196866
9.64252e-05
0.000248392
0.000165159
0.000309258
0.0002429
0.000381028
0.00032545
0.000400065
0.000464439
2.42254e-05
-0.000135729
3.6654e-05
-0.000121501
5.27921e-05
-0.000100716
7.32864e-05
-7.2894e-05
9.88507e-05
-3.74885e-05
0.00013027
6.07247e-06
0.000168416
5.82789e-05
0.000214298
0.000119278
0.000269158
0.000188039
0.000334676
0.000259932
0.000322573
0.000412168
1.78114e-05
-0.000143396
2.8234e-05
-0.000131923
4.19411e-05
-0.000114423
5.95256e-05
-9.04786e-05
8.16544e-05
-5.96172e-05
0.000109083
-2.13566e-05
0.00014269
2.46726e-05
0.000183538
7.84297e-05
0.000232987
0.00013859
0.000292716
0.000200203
0.000251203
0.000364087
1.19168e-05
-0.000149575
2.05213e-05
-0.000140528
3.2035e-05
-0.000125937
4.70061e-05
-0.00010545
6.60631e-05
-7.86742e-05
8.99381e-05
-4.52317e-05
0.000119509
-4.89823e-06
0.00015587
4.20687e-05
0.000200415
9.40456e-05
0.000254723
0.000145895
0.000186033
0.000319893
1.67367e-06
-0.000156459
6.50044e-06
-0.000154401
1.34616e-05
-0.000147489
2.30028e-05
-0.000135478
3.56352e-05
-0.000118082
5.19552e-05
-9.49942e-05
7.26733e-05
-6.59498e-05
9.8659e-05
-3.08839e-05
0.000131005
9.72248e-06
0.000171071
5.39801e-05
0.000220254
9.67118e-05
0.000127037
0.00027925
-2.0794e-06
-0.000158544
1.52055e-06
-0.000158001
6.99857e-06
-0.000152967
1.47688e-05
-0.000143248
2.53118e-05
-0.000128625
3.9196e-05
-0.000108878
5.71089e-05
-8.38627e-05
7.99e-05
-5.3675e-05
0.00010863
-1.90072e-05
0.000144565
1.80443e-05
0.000188872
5.24055e-05
7.40934e-05
0.000241815
-5.55126e-06
-0.000159716
-3.06486e-06
-0.000160488
1.07452e-06
-0.000157106
7.25483e-06
-0.000149428
1.59301e-05
-0.0001373
2.76428e-05
-0.000120591
4.30543e-05
-9.92741e-05
6.29806e-05
-7.36013e-05
8.8422e-05
-4.44487e-05
0.000120513
-1.40471e-05
0.000160162
1.27574e-05
2.70086e-05
0.000207246
-9.10755e-06
-0.00015439
-8.7715e-06
-0.000160052
-7.29741e-06
-0.000161962
-4.36826e-06
-0.000160035
3.81466e-07
-0.000154178
7.38216e-06
-0.000144301
1.71506e-05
-0.000130359
3.03166e-05
-0.00011244
4.76504e-05
-9.09351e-05
7.00694e-05
-6.68677e-05
9.8551e-05
-4.25286e-05
0.000133744
-2.24357e-05
-1.44701e-05
0.000175223
-1.13387e-05
-0.000153243
-1.17688e-05
-0.000159622
-1.12177e-05
-0.000162513
-9.38643e-06
-0.000161867
-5.92919e-06
-0.000157635
-4.37961e-07
-0.000149792
7.57711e-06
-0.000138375
1.87093e-05
-0.000123572
3.36711e-05
-0.000105897
5.32816e-05
-8.64781e-05
7.83496e-05
-6.75967e-05
0.000109285
-5.33712e-05
-5.06353e-05
0.00014545
-1.34349e-05
-0.000151516
-1.45703e-05
-0.000158486
-1.48645e-05
-0.000162219
-1.40342e-05
-0.000162697
-1.17519e-05
-0.000159918
-7.63139e-06
-0.000153913
-1.21184e-06
-0.000144794
8.05814e-06
-0.000132842
2.0825e-05
-0.000118664
3.77998e-05
-0.000103453
5.96241e-05
-8.9421e-05
8.64987e-05
-8.02457e-05
-8.18025e-05
0.000117666
-1.3148e-05
-0.000138802
-1.54136e-05
-0.000149251
-1.72015e-05
-0.000156699
-1.8274e-05
-0.000161146
-1.83623e-05
-0.000162609
-1.71561e-05
-0.000161124
-1.42916e-05
-0.000156777
-9.33904e-06
-0.000149747
-1.79319e-06
-0.000140388
8.92056e-06
-0.000129377
2.34025e-05
-0.000117935
4.21363e-05
-0.000108155
6.51496e-05
-0.000103259
-0.000108292
9.16393e-05
-1.45208e-05
-0.000135862
-1.72903e-05
-0.000146481
-1.96853e-05
-0.000154304
-2.14793e-05
-0.000159352
-2.24167e-05
-0.000161671
-2.22046e-05
-0.000161336
-2.05023e-05
-0.00015848
-1.69129e-05
-0.000153336
-1.09804e-05
-0.000146321
-2.20377e-06
-0.000138154
9.907e-06
-0.000130046
2.56951e-05
-0.000123943
4.50522e-05
-0.000122616
-0.000130412
6.71723e-05
-1.58358e-05
-0.000132534
-1.90791e-05
-0.000143238
-2.20424e-05
-0.00015134
-2.45095e-05
-0.000156885
-2.62381e-05
-0.000159942
-2.69525e-05
-0.000160622
-2.63359e-05
-0.000159096
-2.40259e-05
-0.000155646
-1.96168e-05
-0.00015073
-1.26817e-05
-0.000145089
-2.83181e-06
-0.000139896
1.01487e-05
-0.000136923
2.60749e-05
-0.000138542
-0.000148435
4.40979e-05
-1.71007e-05
-0.000128838
-2.07918e-05
-0.000139547
-2.42901e-05
-0.000147842
-2.73897e-05
-0.000153785
-2.98612e-05
-0.000157471
-3.14464e-05
-0.000159037
-3.18531e-05
-0.000158689
-3.0754e-05
-0.000156745
-2.77938e-05
-0.00015369
-2.26156e-05
-0.000150267
-1.49266e-05
-0.000147584
-4.61574e-06
-0.000147234
8.23484e-06
-0.000151393
-0.000162443
2.22423e-05
-1.42741e-05
-0.000111869
-1.83218e-05
-0.000124791
-2.24379e-05
-0.000135431
-2.64428e-05
-0.000143837
-3.01404e-05
-0.000150088
-3.33143e-05
-0.000154297
-3.57241e-05
-0.000156627
-3.71026e-05
-0.000157311
-3.71574e-05
-0.00015669
-3.55819e-05
-0.000155266
-3.20842e-05
-0.000153765
-2.64491e-05
-0.00015322
-1.86254e-05
-0.000155058
-8.91118e-06
-0.000161107
-0.000172129
7.74882e-07
-1.51198e-05
-0.000107784
-1.95035e-05
-0.000120407
-2.4025e-05
-0.000130909
-2.85119e-05
-0.00013935
-3.27778e-05
-0.000145822
-3.66196e-05
-0.000150455
-3.9815e-05
-0.000153431
-4.21215e-05
-0.000155004
-4.32811e-05
-0.000155531
-4.30328e-05
-0.000155514
-4.11431e-05
-0.000155655
-3.74608e-05
-0.000156902
-3.20088e-05
-0.00016051
-2.51639e-05
-0.000167952
-0.000179858
-1.74348e-05
-1.59429e-05
-0.000103435
-2.06491e-05
-0.000115701
-2.55582e-05
-0.000126
-3.05052e-05
-0.000134403
-3.53136e-05
-0.000141014
-3.97934e-05
-0.000145975
-4.37402e-05
-0.000149485
-4.69363e-05
-0.000151808
-4.91564e-05
-0.000153311
-5.01821e-05
-0.000154488
-4.9831e-05
-0.000156006
-4.80045e-05
-0.000158728
-4.47672e-05
-0.000163747
-4.046e-05
-0.000172259
-0.000184856
-3.54615e-05
-1.67442e-05
-9.88334e-05
-2.17601e-05
-0.000110685
-2.70405e-05
-0.00012072
-3.24278e-05
-0.000129016
-3.77552e-05
-0.000135686
-4.28459e-05
-0.000140885
-4.75134e-05
-0.000144817
-5.15638e-05
-0.000147758
-5.48028e-05
-0.000150072
-5.70511e-05
-0.00015224
-5.81708e-05
-0.000154886
-5.8107e-05
-0.000158792
-5.69525e-05
-0.000164902
-5.50261e-05
-0.000174186
-0.00018719
-5.26924e-05
-1.26769e-05
-8.08786e-05
-1.75232e-05
-9.39871e-05
-2.28366e-05
-0.000105371
-2.8473e-05
-0.000115083
-3.42819e-05
-0.000123207
-4.01064e-05
-0.000129862
-4.57826e-05
-0.000135208
-5.11415e-05
-0.000139458
-5.60121e-05
-0.000142887
-6.02293e-05
-0.000145855
-6.36488e-05
-0.00014882
-6.61715e-05
-0.000152364
-6.77788e-05
-0.000157185
-6.85846e-05
-0.000164096
-6.88892e-05
-0.000173881
-0.000187024
-6.90552e-05
-1.31973e-05
-7.64483e-05
-1.82787e-05
-8.89057e-05
-2.38774e-05
-9.97726e-05
-2.98547e-05
-0.000109106
-3.60671e-05
-0.000116995
-4.23672e-05
-0.000123562
-4.86041e-05
-0.000128971
-5.46256e-05
-0.000133437
-6.02822e-05
-0.000137231
-6.54359e-05
-0.000140701
-6.99738e-05
-0.000144282
-7.38302e-05
-0.000148507
-7.70162e-05
-0.000153999
-7.96606e-05
-0.000161452
-8.20457e-05
-0.000171496
-0.000184543
-8.45265e-05
-1.37017e-05
-7.18365e-05
-1.90085e-05
-8.35989e-05
-2.48803e-05
-9.39009e-05
-3.11832e-05
-0.000102803
-3.77808e-05
-0.000110397
-4.45351e-05
-0.000116807
-5.13074e-05
-0.000122199
-5.79618e-05
-0.000126782
-6.43691e-05
-0.000130823
-7.04157e-05
-0.000134654
-7.60168e-05
-0.000138681
-8.11349e-05
-0.000143389
-8.58052e-05
-0.000149328
-9.01662e-05
-0.000157091
-9.44824e-05
-0.00016718
-0.000179935
-9.90908e-05
-1.41878e-05
-6.70508e-05
-1.97099e-05
-7.80768e-05
-2.58418e-05
-8.77691e-05
-3.24545e-05
-9.61904e-05
-3.94184e-05
-0.000103433
-4.66045e-05
-0.000109621
-5.38862e-05
-0.000114917
-6.11423e-05
-0.000119526
-6.82628e-05
-0.000123703
-7.51563e-05
-0.000127761
-8.17621e-05
-0.000132076
-8.80669e-05
-0.000137084
-9.41247e-05
-0.000143271
-0.00010008
-0.000151135
-0.000106179
-0.000161081
-0.00017338
-0.000112734
-1.46531e-05
-6.20995e-05
-2.03795e-05
-7.23503e-05
-2.67577e-05
-8.13909e-05
-3.36636e-05
-8.92845e-05
-4.0974e-05
-9.61226e-05
-4.85684e-05
-0.000102027
-5.63315e-05
-0.000107154
-6.41563e-05
-0.000111701
-7.195e-05
-0.000115909
-7.9641e-05
-0.00012007
-8.71897e-05
-0.000124527
-9.4603e-05
-0.000129671
-0.000101949
-0.000135924
-0.000109376
-0.000143709
-0.000117111
-0.000153345
-0.00016505
-0.000125441
-1.50946e-05
-5.6992e-05
-2.10135e-05
-6.64314e-05
-2.76234e-05
-7.47809e-05
-3.48047e-05
-8.21033e-05
-4.24403e-05
-8.8487e-05
-5.04179e-05
-9.40494e-05
-5.86327e-05
-9.89397e-05
-6.69908e-05
-0.000103343
-7.54148e-05
-0.000107485
-8.38506e-05
-0.000111634
-9.2277e-05
-0.0001161
-0.000100717
-0.000121231
-0.000109251
-0.000127391
-0.000118026
-0.000134935
-0.000127254
-0.000144116
-0.000155109
-0.000137195
-1.55093e-05
-5.17382e-05
-2.16078e-05
-6.03329e-05
-2.84336e-05
-6.79552e-05
-3.58712e-05
-7.46657e-05
-4.38093e-05
-8.05488e-05
-5.21433e-05
-8.57154e-05
-6.07779e-05
-9.03051e-05
-6.96312e-05
-9.44899e-05
-7.86396e-05
-9.84768e-05
-8.77643e-05
-0.000102509
-9.69998e-05
-0.000106865
-0.000106383
-0.000111848
-0.000116001
-0.000117772
-0.000126001
-0.000124935
-0.000136581
-0.000133536
-0.000143714
-0.000147976
-1.5894e-05
-4.63493e-05
-2.21582e-05
-5.40687e-05
-2.91828e-05
-6.09305e-05
-3.68563e-05
-6.69922e-05
-4.50727e-05
-7.23325e-05
-5.37343e-05
-7.70538e-05
-6.27546e-05
-8.12848e-05
-7.20624e-05
-8.51821e-05
-8.16063e-05
-8.89329e-05
-9.13609e-05
-9.27546e-05
-0.000101334
-9.68922e-05
-0.000111572
-0.000101609
-0.00012217
-0.000107174
-0.000133273
-0.000113832
-0.000145066
-0.000121742
-0.000131017
-0.000157764
-1.07337e-05
-3.32405e-05
-1.62456e-05
-4.08374e-05
-2.26605e-05
-4.76538e-05
-2.98657e-05
-5.37253e-05
-3.77532e-05
-5.91047e-05
-4.62219e-05
-6.38637e-05
-5.51805e-05
-6.80953e-05
-6.45502e-05
-7.1915e-05
-7.42692e-05
-7.54631e-05
-8.42969e-05
-7.89052e-05
-9.46192e-05
-8.24324e-05
-0.000105254
-8.6257e-05
-0.000116259
-9.06049e-05
-0.000127732
-9.57013e-05
-0.000139815
-0.000101749
-0.000152684
-0.000108873
-0.000117164
-0.000166536
-1.0939e-05
-2.86594e-05
-1.6561e-05
-3.52153e-05
-2.31104e-05
-4.11044e-05
-3.04767e-05
-4.6359e-05
-3.85551e-05
-5.10263e-05
-4.72487e-05
-5.51701e-05
-5.64716e-05
-5.88723e-05
-6.61523e-05
-6.22344e-05
-7.62369e-05
-6.53784e-05
-8.6694e-05
-6.84481e-05
-9.75191e-05
-7.16073e-05
-0.00010874
-7.50366e-05
-0.000120419
-7.89257e-05
-0.000132659
-8.34611e-05
-0.0001456
-8.88078e-05
-0.000159409
-9.50636e-05
-0.000102302
-0.000174272
-1.11191e-05
-2.40024e-05
-1.68374e-05
-2.94971e-05
-2.35042e-05
-3.44376e-05
-3.1011e-05
-3.88522e-05
-3.92556e-05
-4.27817e-05
-4.81451e-05
-4.62807e-05
-5.75982e-05
-4.94192e-05
-6.75494e-05
-5.22832e-05
-7.79517e-05
-5.49761e-05
-8.87815e-05
-5.76183e-05
-0.000100042
-6.03467e-05
-0.000111768
-6.33105e-05
-0.000124029
-6.66651e-05
-0.000136929
-7.05613e-05
-0.000150606
-7.51306e-05
-0.000165221
-8.04487e-05
-8.65748e-05
-0.000180948
-1.12722e-05
-1.92809e-05
-1.7072e-05
-2.36973e-05
-2.38382e-05
-2.76714e-05
-3.14638e-05
-3.12266e-05
-3.9849e-05
-3.43965e-05
-4.89039e-05
-3.72259e-05
-5.85514e-05
-3.97717e-05
-6.87308e-05
-4.21038e-05
-7.94011e-05
-4.43059e-05
-9.05446e-05
-4.64748e-05
-0.000102171
-4.872e-05
-0.000114322
-5.11602e-05
-0.000127069
-5.39177e-05
-0.00014052
-5.71104e-05
-0.000154811
-6.08397e-05
-0.000170097
-6.51626e-05
-7.01253e-05
-0.000186546
-1.13967e-05
-1.4507e-05
-1.72626e-05
-1.78314e-05
-2.41094e-05
-2.08246e-05
-3.18312e-05
-2.35047e-05
-4.03302e-05
-2.58975e-05
-4.95189e-05
-2.80371e-05
-5.93237e-05
-2.99669e-05
-6.96876e-05
-3.17399e-05
-8.05742e-05
-3.34193e-05
-9.19709e-05
-3.50781e-05
-0.000103893
-3.67983e-05
-0.000116384
-3.86685e-05
-0.000129522
-4.07795e-05
-0.000143415
-4.32178e-05
-0.000158197
-4.60575e-05
-0.000174021
-4.93394e-05
-5.30975e-05
-0.000191048
-1.14912e-05
-9.69343e-06
-1.74073e-05
-1.19154e-05
-2.43151e-05
-1.39168e-05
-3.21098e-05
-1.571e-05
-4.06949e-05
-1.73124e-05
-4.99849e-05
-1.87471e-05
-5.99086e-05
-2.00432e-05
-7.0412e-05
-2.12365e-05
-8.1462e-05
-2.23692e-05
-9.30499e-05
-2.34902e-05
-0.000105194
-2.46542e-05
-0.000117943
-2.59199e-05
-0.000131375
-2.73472e-05
-0.000145599
-2.89933e-05
-0.00016075
-3.09065e-05
-0.000176977
-3.3113e-05
-3.56356e-05
-0.000194439
-1.15549e-05
-4.85317e-06
-1.75046e-05
-5.96572e-06
-2.44533e-05
-6.96803e-06
-3.2297e-05
-7.86635e-06
-4.09399e-05
-8.6695e-06
-5.02979e-05
-9.3891e-06
-6.03013e-05
-1.00398e-05
-7.08982e-05
-1.06396e-05
-8.20578e-05
-1.12096e-05
-9.37737e-05
-1.17744e-05
-0.000106067
-1.23612e-05
-0.000118987
-1.29993e-05
-0.000132616
-1.37187e-05
-0.000147062
-1.45475e-05
-0.000162459
-1.55096e-05
-0.000178954
-1.66179e-05
-1.78837e-05
-0.000196706
-1.15868e-05
-1.75534e-05
-2.45228e-05
-3.2391e-05
-4.10629e-05
-5.0455e-05
-6.04984e-05
-7.11422e-05
-8.23568e-05
-9.41368e-05
-0.000106504
-0.000119511
-0.000133238
-0.000147795
-0.000163314
-0.000179944
-0.000197841
-0.000235457
3.76655e-05
-4.86343e-08
-0.000264845
2.94524e-05
-6.47417e-08
-0.000297731
3.29677e-05
-8.14356e-08
-0.0003271
2.94707e-05
-1.02107e-07
-0.000358107
3.11291e-05
-1.22398e-07
-0.000388683
3.07196e-05
-1.42866e-07
-0.000420637
3.21131e-05
-1.59006e-07
-0.000453956
3.34878e-05
-1.69002e-07
-0.000489311
3.55232e-05
-1.68487e-07
3.7893e-05
-1.54257e-07
-0.000234189
7.51505e-05
-0.000263419
5.86821e-05
-0.000296153