/*--------------------------------*- C++ -*----------------------------------*\
  =========                 |
  \\      /  F ield         | OpenFOAM: The Open Source CFD Toolbox
   \\    /   O peration     | Website:  https://openfoam.org
    \\  /    A nd           | Version:  7
     \\/     M anipulation  |
\*---------------------------------------------------------------------------*/
FoamFile
{
    version     2.0;
    format      ascii;
    class       volVectorField;
    location    "20";
    object      U;
}
// * * * * * * * * * * * * * * * * * * * * * * * * * * * * * * * * * * * * * //

dimensions      [0 1 -1 0 0 0 0];

internalField   nonuniform List<vector> 
4575
(
(-0.00811566 0.00117943 3.59987e-22)
(-0.0126103 0.0013687 6.23064e-22)
(-0.0176833 0.00150744 -4.47674e-21)
(-0.0231689 0.0016026 7.50029e-22)
(-0.0289274 0.00166098 -2.88172e-21)
(-0.034842 0.00168925 -6.0475e-21)
(-0.0408183 0.00169394 5.04695e-21)
(-0.0467843 0.00168141 1.46581e-21)
(-0.0526898 0.00165779 -1.71847e-21)
(-0.0585054 0.00162892 2.06324e-21)
(-0.064222 0.00160024 2.76146e-21)
(-0.0698491 0.00157661 -1.70728e-21)
(-0.0754117 0.00156213 -2.25764e-21)
(-0.0809483 0.00155981 -5.3055e-21)
(-0.0865179 0.00157125 -4.03101e-22)
(-0.0921358 0.00159641 -8.67183e-22)
(-0.0977441 0.00163559 -1.67028e-21)
(-0.00818897 0.00353351 -6.96784e-21)
(-0.0126876 0.00410032 3.14807e-21)
(-0.0177588 0.00451565 1.86511e-20)
(-0.0232372 0.0048003 -1.12084e-20)
(-0.0289837 0.00497465 1.85883e-21)
(-0.0348817 0.00505869 8.7094e-21)
(-0.0408371 0.00507201 -3.21353e-24)
(-0.046778 0.00503366 4.9266e-21)
(-0.0526543 0.00496202 -6.38258e-21)
(-0.0584368 0.00487463 6.53647e-21)
(-0.0641165 0.00478782 -5.5067e-21)
(-0.069703 0.00471622 -2.09527e-21)
(-0.0752217 0.00467212 1.03315e-20)
(-0.0807116 0.00466469 -3.17566e-21)
(-0.0862327 0.00469873 4.83267e-22)
(-0.0918005 0.00477416 -5.73732e-21)
(-0.0973543 0.00489198 -6.04988e-22)
(-0.00833528 0.00587486 1.76028e-20)
(-0.012842 0.00681732 -1.37657e-20)
(-0.0179095 0.00750773 -2.09119e-20)
(-0.0233737 0.00798066 1.85772e-20)
(-0.0290961 0.00826992 -4.95614e-21)
(-0.034961 0.00840877 -2.43123e-21)
(-0.0408746 0.00842974 -1.20111e-20)
(-0.0467655 0.00836453 3.20756e-21)
(-0.0525836 0.00824378 1.12521e-20)
(-0.0583 0.00809673 -2.25831e-21)
(-0.0639058 0.00795066 8.83176e-21)
(-0.0694111 0.00783011 -7.13556e-21)
(-0.074842 0.00775576 -2.12076e-21)
(-0.0802383 0.00774312 1.62785e-20)
(-0.0856622 0.00780038 -9.92224e-22)
(-0.0911298 0.00792756 2.45317e-20)
(-0.0965748 0.00812661 -5.69519e-21)
(-0.00855397 0.00819513 -1.64197e-20)
(-0.0130728 0.00951006 9.68176e-21)
(-0.018135 0.0104731 -1.77862e-21)
(-0.0235779 0.0111322 -3.10555e-20)
(-0.0292645 0.0115347 -3.20805e-21)
(-0.0350798 0.0117267 -6.49787e-21)
(-0.040931 0.0117537 -1.00276e-21)
(-0.0467469 0.0116599 -1.08396e-20)
(-0.0524779 0.0114882 1.19953e-20)
(-0.0580952 0.0112796 -1.7362e-20)
(-0.0635903 0.0110723 -5.18646e-22)
(-0.0689739 0.0109012 4.53563e-21)
(-0.0742729 0.0107955 -3.44439e-20)
(-0.0795287 0.0107774 -2.71993e-20)
(-0.0848065 0.0108589 1.445e-20)
(-0.0901237 0.0110403 -1.90089e-20)
(-0.0954052 0.011325 4.66418e-22)
(-0.00884409 0.0104861 -8.15406e-22)
(-0.0133793 0.0121691 4.92294e-21)
(-0.0184345 0.0134012 7.33224e-22)
(-0.0238492 0.0142438 1.58943e-20)
(-0.0294882 0.0147569 1.83595e-20)
(-0.0352378 0.0149998 7.61366e-21)
(-0.041006 0.0150305 2.6306e-20)
(-0.0467223 0.0149058 -2.95872e-20)
(-0.0523374 0.0146805 -6.10058e-21)
(-0.0578229 0.0144076 1.25502e-20)
(-0.0631706 0.0141365 -2.1371e-20)
(-0.0683918 0.0139124 9.54155e-21)
(-0.0735148 0.0137736 2.16577e-20)
(-0.078583 0.0137497 5.10129e-21)
(-0.0836655 0.0138567 7.151e-21)
(-0.0887817 0.0140959 -1.12285e-20)
(-0.093845 0.0144725 1.21042e-21)
(-0.00920439 0.0127399 1.42274e-20)
(-0.01376 0.0147853 1.21789e-20)
(-0.0188067 0.016282 5.42314e-21)
(-0.0241867 0.0173043 9.98089e-21)
(-0.0297667 0.0179249 -6.83767e-21)
(-0.0354346 0.0182158 -4.11989e-20)
(-0.0410996 0.0182473 -3.59847e-20)
(-0.0466918 0.0180884 -2.28314e-20)
(-0.0521626 0.0178063 8.45335e-21)
(-0.0574836 0.0174655 -4.71854e-21)
(-0.0626472 0.0171269 3.51672e-20)
(-0.0676655 0.0168466 -1.23842e-20)
(-0.0725682 0.0166725 9.89571e-21)
(-0.0774012 0.0166421 1.41029e-20)
(-0.0822389 0.0167763 -7.76908e-21)
(-0.0871032 0.0170777 6.64632e-20)
(-0.0918932 0.0175546 -2.4365e-20)
(-0.00963332 0.0149489 -8.92215e-21)
(-0.0142136 0.0173497 3.92406e-21)
(-0.0192505 0.0191056 5.90402e-21)
(-0.0245892 0.0203031 1.92763e-20)
(-0.030099 0.0210274 4.16323e-21)
(-0.0356695 0.0213626 1.37448e-21)
(-0.0412113 0.0213913 6.46173e-20)
(-0.0466555 0.0211945 4.74299e-20)
(-0.0519536 0.0208513 -2.77768e-20)
(-0.0570778 0.0204381 -4.00409e-21)
(-0.0620208 0.0200276 -1.05672e-20)
(-0.0667955 0.0196869 1.02184e-20)
(-0.0714334 0.0194744 -5.29336e-20)
(-0.0759833 0.0194364 -1.08381e-20)
(-0.0805259 0.0195995 -1.59394e-20)
(-0.085087 0.0199687 -3.77995e-20)
(-0.0895478 0.0205564 2.01464e-20)
(-0.0101291 0.0171057 -1.18299e-20)
(-0.0147383 0.0198538 -1.0502e-20)
(-0.0197641 0.0218624 1.63105e-20)
(-0.0250553 0.0232298 -2.69732e-20)
(-0.0304838 0.0240533 -3.60292e-21)
(-0.0359416 0.0244285 4.8733e-20)
(-0.0413407 0.0244502 -3.04462e-20)
(-0.0466129 0.0242109 -1.22395e-20)
(-0.0517105 0.0238017 1.41275e-20)
(-0.0566058 0.0233108 -3.64385e-21)
(-0.0612918 0.0228228 -1.84981e-21)
(-0.0657823 0.0224164 1.49183e-20)
(-0.0701106 0.0221616 -3.88177e-20)
(-0.074329 0.0221142 1.32768e-20)
(-0.0785256 0.022308 -9.88074e-21)
(-0.082731 0.0227515 -2.17583e-20)
(-0.0868062 0.0234629 7.66905e-21)
(-0.0153318 0.0222897 3.7963e-20)
(-0.0203455 0.0245435 -3.85549e-20)
(-0.0255831 0.0260748 -1.85121e-20)
(-0.0309197 0.026992 -3.14534e-20)
(-0.0362497 0.0274025 -3.36402e-20)
(-0.0414867 0.0274121 -2.16807e-20)
(-0.0465636 0.0271252 -2.86622e-20)
(-0.0514331 0.0266442 5.10002e-20)
(-0.0560676 0.0260692 -5.52961e-21)
(-0.0604604 0.0254971 -1.13851e-20)
(-0.064626 0.0250188 -5.82774e-20)
(-0.0685996 0.0247163 3.20255e-20)
(-0.0724373 0.0246571 7.79651e-21)
(-0.0762358 0.0248831 1.92203e-20)
(-0.0800325 0.0254081 1.2786e-20)
(-0.0836641 0.0262588 -3.35035e-20)
(-0.0159918 0.0246496 3.38265e-20)
(-0.0209922 0.0271403 -2.58455e-20)
(-0.0261704 0.0288285 5.46441e-20)
(-0.0314046 0.0298336 2.99923e-21)
(-0.036592 0.0302738 4.82968e-20)
(-0.0416479 0.030266 -2.75328e-20)
(-0.0465064 0.0299254 4.33623e-20)
(-0.0511204 0.0293661 -4.20013e-20)
(-0.0554626 0.0286997 -3.70295e-20)
(-0.0595261 0.0280356 3.09484e-20)
(-0.063326 0.0274776 1.0753e-19)
(-0.0668995 0.0271211 -5.81791e-20)
(-0.0703065 0.0270463 4.69204e-20)
(-0.0736539 0.0273057 1.06147e-20)
(-0.0769874 0.0279201 -3.91314e-20)
(-0.0801155 0.028928 3.2106e-20)
(-0.0167154 0.0269266 -2.62597e-20)
(-0.0217016 0.0296447 6.01509e-20)
(-0.0268144 0.0314822 -1.0679e-20)
(-0.031936 0.0325686 1.30774e-21)
(-0.0369661 0.0330324 -6.67254e-20)
(-0.0418222 0.033001 4.12731e-20)
(-0.0464395 0.0326003 9.30576e-21)
(-0.0507712 0.0319552 -1.19912e-20)
(-0.0547896 0.0311892 1.47464e-20)
(-0.0584878 0.030424 -5.71253e-20)
(-0.061881 0.0297772 -3.12109e-20)
(-0.0650084 0.0293586 6.4478e-20)
(-0.067934 0.0292632 -3.53593e-20)
(-0.0707754 0.0295562 -4.96026e-20)
(-0.0735898 0.0302684 9.04156e-20)
(-0.0761522 0.0314538 -1.22625e-22)
(-0.0174994 0.029114 -1.70927e-20)
(-0.0224702 0.0320493 -1.95604e-20)
(-0.0275119 0.0340276 -8.07601e-20)
(-0.0325106 0.035188 9.71573e-21)
(-0.0373691 0.0356689 -3.27888e-20)
(-0.0420068 0.0356073 1.12368e-19)
(-0.0463602 0.0351394 -6.39206e-20)
(-0.0503827 0.0344005 3.84408e-20)
(-0.0540463 0.0335257 -1.15194e-20)
(-0.0573431 0.0326491 6.21097e-20)
(-0.0602886 0.0319028 5.00577e-21)
(-0.0629233 0.0314121 -5.12565e-20)
(-0.0653154 0.0312893 -9.02692e-21)
(-0.0675947 0.0316149 2.16526e-21)
(-0.0698322 0.032433 -3.72256e-21)
(-0.0717633 0.0338187 5.99456e-20)
(-0.0183402 0.0312059 -4.07754e-21)
(-0.0232944 0.0343473 -3.26964e-20)
(-0.0282591 0.0364572 7.10994e-20)
(-0.0331246 0.0376838 -7.81362e-21)
(-0.0377969 0.0381746 8.26497e-20)
(-0.0421978 0.0380758 -8.99625e-20)
(-0.0462648 0.0375331 2.32223e-20)
(-0.0499514 0.0366917 2.69218e-20)
(-0.0532288 0.0356979 -7.98734e-22)
(-0.0560883 0.0346985 -4.34351e-22)
(-0.0585446 0.0338402 -4.8235e-20)
(-0.0606394 0.0332656 6.42471e-21)
(-0.0624447 0.0331063 6.21733e-20)
(-0.0641034 0.0334618 7.85412e-20)
(-0.0657047 0.0343933 -9.15782e-20)
(-0.0669345 0.0360039 -5.75842e-20)
(-0.0192339 0.0331968 6.30022e-20)
(-0.0241698 0.0365322 6.2745e-20)
(-0.0290513 0.0387639 -2.39786e-20)
(-0.0337731 0.0400485 1.02511e-19)
(-0.0382447 0.0405417 -1.01549e-19)
(-0.0423901 0.0403983 4.40437e-20)
(-0.0461479 0.0397728 4.38816e-20)
(-0.0494718 0.0388198 -3.34669e-21)
(-0.0523318 0.0376961 5.34434e-22)
(-0.0547176 0.0365612 5.40899e-21)
(-0.0566427 0.0355768 -3.77562e-20)
(-0.0581494 0.0349042 3.66927e-20)
(-0.0593132 0.034697 -1.85496e-20)
(-0.0602909 0.0350773 -4.08856e-20)
(-0.0611945 0.0361286 5.19053e-20)
(-0.0616479 0.0379891 1.06414e-20)
(-0.0201761 0.0350819 -4.2022e-20)
(-0.0250915 0.0385984 -4.30018e-20)
(-0.0298833 0.0409414 6.83845e-20)
(-0.0344505 0.0422751 -3.39125e-20)
(-0.0387062 0.042763 2.64504e-20)
(-0.0425771 0.0425675 2.83633e-21)
(-0.0460027 0.041851 -6.88153e-21)
(-0.0489366 0.040777 1.68049e-20)
(-0.0513475 0.039512 -3.21041e-20)
(-0.0532228 0.0382277 1.64659e-20)
(-0.0545741 0.0371015 5.2026e-20)
(-0.0554435 0.0363146 -7.45265e-20)
(-0.0559092 0.036045 -4.67622e-20)
(-0.0561423 0.0364424 6.03207e-20)
(-0.0562855 0.0376176 -3.47267e-20)
(-0.0558809 0.0397533 -5.2723e-20)
(-0.0211618 0.0368567 -1.02657e-20)
(-0.026054 0.0405407 -3.6827e-20)
(-0.0307486 0.042984 -6.72508e-20)
(-0.0351496 0.0443577 -4.99822e-20)
(-0.0391738 0.0448322 -9.8295e-20)
(-0.0427504 0.044577 9.74546e-21)
(-0.0458201 0.0437615 -8.3692e-21)
(-0.0483361 0.0425568 -6.52626e-20)
(-0.0502654 0.0411388 5.53163e-20)
(-0.0515926 0.0396907 6.63908e-20)
(-0.0523264 0.0384056 -3.2921e-21)
(-0.0525076 0.0374855 3.9034e-20)
(-0.0522164 0.0371361 -1.93601e-20)
(-0.0516384 0.0375398 3.03412e-21)
(-0.0509572 0.0388403 5.24652e-20)
(-0.0496058 0.041274 1.23381e-19)
(-0.0270508 0.0423547 5.00418e-20)
(-0.03164 0.0448866 -1.78479e-20)
(-0.0358623 0.0462908 -5.0445e-20)
(-0.0396382 0.046744 8.00351e-20)
(-0.0428996 0.0464216 -2.10094e-20)
(-0.0455885 0.0454992 1.49863e-20)
(-0.0476576 0.0441546 7.95345e-20)
(-0.0490717 0.0425718 -1.08088e-19)
(-0.0498118 0.040945 -2.8948e-20)
(-0.0498827 0.0394824 -5.57603e-20)
(-0.049323 0.0384082 1.109e-19)
(-0.0482134 0.0379586 3.39521e-21)
(-0.0467536 0.0383545 5.87665e-20)
(-0.0451837 0.0397775 -2.08972e-20)
(-0.0427879 0.042527 -1.16833e-19)
(-0.0280748 0.0440361 3.07517e-20)
(-0.0325492 0.0466447 -1.67445e-21)
(-0.0365787 0.0480698 1.3061e-19)
(-0.0400881 0.0484936 4.88602e-20)
(-0.0430121 0.0480969 -8.77371e-20)
(-0.0452937 0.0470603 4.06732e-21)
(-0.0468851 0.0455672 -2.89385e-21)
(-0.0477485 0.0438084 1.14403e-19)
(-0.0478607 0.0419879 -1.25211e-19)
(-0.0472213 0.0403287 3.38355e-20)
(-0.0458653 0.0390775 1.22203e-21)
(-0.0438722 0.0385041 -8.30452e-20)
(-0.0414546 0.0388749 -8.45514e-20)
(-0.0389327 0.0404133 -1.00194e-20)
(-0.0353867 0.0434959 1.18565e-19)
(-0.0291179 0.0455815 -1.16374e-19)
(-0.0334663 0.0482543 -3.13659e-20)
(-0.0372875 0.0496905 -6.82896e-20)
(-0.0405103 0.0500772 -3.1425e-20)
(-0.0430724 0.0495997 5.4686e-20)
(-0.0449181 0.0484424 1.08959e-19)
(-0.0459987 0.0467932 -1.19362e-19)
(-0.0462734 0.0448483 -4.36453e-20)
(-0.0457141 0.0428198 1.54863e-19)
(-0.044314 0.0409446 -5.49858e-20)
(-0.0421027 0.0394919 -7.7554e-20)
(-0.0391562 0.0387684 9.63649e-20)
(-0.0356977 0.0390931 1.99107e-20)
(-0.0321585 0.0407366 1.86317e-20)
(-0.0273675 0.0442189 -7.63108e-20)
(-0.0301711 0.0469877 2.05008e-20)
(-0.0343804 0.0497119 1.34074e-19)
(-0.0379754 0.0511495 -8.25622e-20)
(-0.0408892 0.0514919 1.94572e-20)
(-0.0430623 0.0509276 -3.7807e-20)
(-0.0444403 0.0496445 -1.49048e-19)
(-0.0449738 0.0478331 8.81778e-20)
(-0.0446186 0.0456934 6.95582e-20)
(-0.0433407 0.0434441 -1.2062e-19)
(-0.0411256 0.0413341 2.76534e-20)
(-0.0379953 0.0396544 1.07938e-19)
(-0.0340199 0.0387514 4.14798e-20)
(-0.0294263 0.0390025 1.43068e-20)
(-0.0247692 0.0407347 -8.22966e-20)
(-0.0186985 0.0448209 -3.92917e-20)
(-0.0352791 0.0510144 -1.84486e-20)
(-0.0386273 0.0524438 1.22975e-20)
(-0.0412065 0.052735 7.68057e-20)
(-0.0429601 0.0520794 9.49314e-20)
(-0.0438352 0.0506667 -4.27659e-21)
(-0.043781 0.048689 -2.00511e-20)
(-0.0427502 0.0463483 -1.14843e-19)
(-0.0407019 0.0438677 8.41935e-20)
(-0.0376126 0.0415056 -7.29467e-21)
(-0.033494 0.0395736 -4.82544e-20)
(-0.0284082 0.0384579 -2.36629e-19)
(-0.02258 0.0386005 8.21779e-20)
(-0.0166057 0.0403993 4.32328e-21)
(-0.00919238 0.0451678 -4.87757e-20)
(-0.0361482 0.0521593 -1.12144e-19)
(-0.0392258 0.0535709 6.85493e-20)
(-0.0414413 0.0538047 -7.68899e-21)
(-0.0427408 0.0530542 -1.49952e-19)
(-0.0430728 0.0515102 2.80974e-20)
(-0.0423855 0.0493649 1.54456e-20)
(-0.0406276 0.0468202 -2.62762e-20)
(-0.0377512 0.0441011 6.78928e-20)
(-0.0337222 0.0414727 1.29392e-19)
(-0.0285396 0.039264 -8.24793e-20)
(-0.0222539 0.0378998 6.56379e-20)
(-0.0150958 0.0378882 1.56498e-20)
(-0.00764181 0.0397277 8.81917e-20)
(0.00132176 0.0450583 3.88822e-20)
(-0.0369721 0.053144 1.27913e-19)
(-0.0397516 0.0545287 -9.04717e-20)
(-0.0415696 0.0546997 2.68976e-20)
(-0.0423755 0.0538523 1.0886e-19)
(-0.0421186 0.0521774 1.01927e-19)
(-0.0407462 0.0498661 3.87928e-20)
(-0.0382028 0.0471185 1.65929e-19)
(-0.034433 0.0441584 -2.23505e-20)
(-0.0293913 0.0412542 -1.68224e-19)
(-0.0230615 0.0387478 8.10168e-20)
(-0.0154784 0.037099 -4.23571e-20)
(-0.00687754 0.0368835 -9.66952e-20)
(0.00217379 0.0387385 -6.7235e-20)
(0.012898 0.0445603 -6.64067e-20)
(-0.0377332 0.0539663 -1.63395e-19)
(-0.0401826 0.0553151 6.16686e-20)
(-0.0415645 0.0554189 -5.54208e-20)
(-0.0418312 0.0544742 -9.13922e-20)
(-0.0409329 0.0526714 3.16377e-21)
(-0.0388157 0.0501994 -2.21118e-19)
(-0.0354199 0.0472548 -1.67724e-19)
(-0.0306823 0.0440574 5.18476e-20)
(-0.0245453 0.0408745 2.56823e-20)
(-0.0169759 0.0380555 -5.39327e-20)
(-0.00798949 0.0360897 2.04884e-19)
(0.00218007 0.0356185 -3.15248e-20)
(0.0129537 0.0374327 8.41793e-20)
(0.0256284 0.0437375 7.42633e-20)
(-0.0404945 0.0559284 8.56045e-20)
(-0.0413958 0.0559614 -4.97937e-21)
(-0.0410709 0.0549207 3.81714e-20)
(-0.0394708 0.0529958 1.13285e-19)
(-0.03654 0.0503726 2.31538e-19)
(-0.0322147 0.0472425 1.81695e-20)
(-0.0264237 0.0438189 -9.80888e-20)
(-0.0190972 0.0403632 1.74444e-20)
(-0.0101845 0.0372262 1.66156e-19)
(0.00032138 0.0349182 -1.10473e-19)
(0.0121952 0.0341416 4.72562e-22)
(0.024831 0.0358404 8.19194e-20)
(0.0396541 0.0426219 -4.99006e-20)
(-0.0406604 0.0563671 -2.19087e-20)
(-0.0410299 0.0563265 -4.76656e-20)
(-0.0400533 0.0551928 7.6168e-20)
(-0.0376818 0.0531546 -8.62946e-20)
(-0.0338582 0.050394 -2.71854e-20)
(-0.0285143 0.0470963 -2.96467e-21)
(-0.0215712 0.0434659 6.8848e-20)
(-0.0129468 0.0397545 -6.09341e-20)
(-0.00257323 0.0363066 -1.12731e-19)
(0.00958077 0.0336434 -3.38394e-20)
(0.0233048 0.0325188 -4.80182e-20)
(0.037954 0.0340212 -1.43812e-19)
(0.055143 0.0412549 -4.22087e-20)
(-0.0406509 0.0566295 -1.02993e-19)
(-0.04043 0.0565137 5.79586e-20)
(-0.0387328 0.0552918 -1.69403e-19)
(-0.0355102 0.0531517 -8.30397e-20)
(-0.0307027 0.0502721 1.32899e-21)
(-0.0242374 0.0468314 7.02408e-20)
(-0.0160282 0.0430235 -4.50355e-20)
(-0.00598127 0.0390862 1.1243e-19)
(0.00598744 0.0353506 -2.69611e-20)
(0.0199336 0.0323366 3.4369e-20)
(0.0356667 0.0308348 1.27145e-19)
(0.0524904 0.0320596 1.64534e-20)
(0.0722828 0.039703 7.84669e-20)
(-0.0395557 0.0565222 -1.13636e-19)
(-0.0370595 0.0552186 3.21817e-20)
(-0.0328948 0.0529911 3.05958e-21)
(-0.026999 0.0500155 -8.0288e-20)
(-0.0192944 0.0464632 5.84318e-20)
(-0.00968756 0.042517 -4.48223e-20)
(0.00192526 0.0383981 -7.97603e-20)
(0.0156425 0.0344168 -1.01938e-19)
(0.0315426 0.0310792 2.44781e-20)
(0.0494583 0.0291929 3.33539e-20)
(0.0686266 0.0300666 -3.13619e-20)
(0.0912775 0.0380637 1.29753e-19)
(-0.0383635 0.0563515 -3.23022e-20)
(-0.0349794 0.0549743 2.64009e-19)
(-0.0297693 0.0526765 1.87989e-20)
(-0.0226665 0.0496319 -2.82239e-20)
(-0.0135878 0.0460063 -1.8178e-19)
(-0.00243311 0.0419713 3.43284e-20)
(0.01091 0.03773 -8.59771e-20)
(0.026551 0.0335668 5.57019e-20)
(0.044587 0.0299606 5.00371e-20)
(0.0648753 0.027713 -1.86689e-19)
(0.0865658 0.0281795 -5.70079e-20)
(0.112343 0.0364702 -1.93962e-19)
(-0.0368062 0.0560011 1.12009e-20)
(-0.0324343 0.0545598 -7.95027e-20)
(-0.0260624 0.0522112 1.12837e-19)
(-0.0176186 0.0491287 6.36349e-22)
(-0.00701342 0.0454741 1.36325e-19)
(0.0058598 0.0414095 9.04812e-20)
(0.0211201 0.0371203 1.48565e-20)
(0.0388834 0.0328614 1.82853e-19)
(0.0592596 0.0290731 -1.626e-19)
(0.0821278 0.026527 7.38545e-20)
(0.106524 0.0265611 5.66287e-20)
(0.135702 0.0350965 4.80556e-20)
(-0.0293621 0.0539764 -1.31889e-19)
(-0.0216985 0.0515985 -9.93778e-20)
(-0.0117636 0.0485126 4.60864e-20)
(0.000538945 0.0448788 -1.29587e-19)
(0.0153224 0.0408526 8.64165e-21)
(0.0327102 0.0366039 4.82843e-20)
(0.0528193 0.0323577 3.62753e-20)
(0.075763 0.028508 1.09631e-19)
(0.101436 0.0257734 2.2559e-20)
(0.128726 0.0253951 -7.95422e-20)
(0.16157 0.0341602 8.39525e-20)
(-0.0256968 0.0532258 1.13987e-19)
(-0.0165973 0.0508421 -5.76286e-20)
(-0.00500532 0.0477899 1.76449e-21)
(0.00918419 0.0442311 3.11973e-20)
(0.0260906 0.0403184 6.47732e-20)
(0.0458395 0.0362109 -7.69369e-21)
(0.0685426 0.0321065 -1.74753e-20)
(0.0943049 0.0283496 -8.82287e-20)
(0.123023 0.0255887 -5.79448e-20)
(0.153399 0.0248784 -5.37504e-20)
(0.19015 0.0339222 8.48145e-20)
(-0.010675 0.0499465 4.01424e-20)
(0.00275647 0.0469674 1.40229e-20)
(0.0190406 0.043541 -6.24179e-20)
(0.0383032 0.0398223 -1.42202e-19)
(0.0606691 0.0359658 7.05333e-20)
(0.0862377 0.032149 -3.45118e-20)
(0.115092 0.0286702 -8.31665e-21)
(0.14711 0.0260989 1.4014e-19)
(0.180769 0.0252116 1.4372e-19)
(0.22161 0.0346846 -2.16477e-19)
(-0.00384435 0.0489175 4.06778e-21)
(0.0116248 0.0460529 -9.68554e-20)
(0.0302286 0.0428187 1.27008e-19)
(0.052099 0.0393777 8.17424e-20)
(0.0773581 0.0358878 -1.56286e-19)
(0.106085 0.0325162 -1.30275e-19)
(0.138325 0.0295258 2.94451e-20)
(0.173906 0.0274096 1.68014e-19)
(0.211057 0.0265872 7.58917e-20)
(0.256068 0.0367847 4.01797e-20)
(0.00398512 0.0477637 -1.8861e-19)
(0.0217049 0.0450563 -1.69656e-19)
(0.0428689 0.0420752 -1.65895e-20)
(0.0676152 0.0389969 -8.44177e-21)
(0.0960598 0.0359913 5.527e-20)
(0.128254 0.0332279 3.54975e-20)
(0.164192 0.0309529 4.51252e-20)
(0.203604 0.0295961 -2.07734e-19)
(0.244481 0.0291746 -5.62175e-20)
(0.29358 0.0405735 1.44921e-19)
(0.0331031 0.0439908 7.46801e-20)
(0.0570811 0.0413247 -6.82453e-20)
(0.0849837 0.0386933 -9.36046e-20)
(0.116918 0.0362876 -1.17672e-20)
(0.152899 0.0342935 9.21885e-20)
(0.19286 0.0329671 -6.02803e-20)
(0.236369 0.0326936 2.25241e-20)
(0.281264 0.0330998 4.96746e-20)
(0.334142 0.0463713 1.22594e-19)
(0.0459259 0.0428744 3.42421e-20)
(0.0729817 0.0405851 -4.59209e-20)
(0.104329 0.0384827 1.08073e-19)
(0.140062 0.0367864 -9.30122e-21)
(0.180154 0.0357132 -2.38768e-20)
(0.224467 0.035564 -3.73268e-20)
(0.272323 0.0366921 5.74728e-20)
(0.321607 0.0384514 -1.41885e-19)
(0.377626 0.0544947 -1.88166e-19)
(0.0906812 0.0398804 1.7137e-19)
(0.125762 0.0383851 -1.52554e-20)
(0.1656 0.0374972 -3.28589e-20)
(0.210121 0.0374781 -4.48602e-21)
(0.259114 0.0387145 7.92504e-20)
(0.311548 0.0415287 1.37934e-19)
(0.365651 0.0453764 -3.79445e-20)
(0.423474 0.065561 1.36779e-19)
(0.110282 0.0392412 -5.79547e-20)
(0.149379 0.0384261 -4.20649e-20)
(0.193612 0.0384306 -1.36235e-19)
(0.242864 0.0395668 -3.63247e-20)
(0.296872 0.0423424 2.9554e-21)
(0.354186 0.0470441 -9.47366e-20)
(0.413728 0.0541492 4.60961e-20)
(0.470613 0.0804905 -9.6878e-20)
(0.17525 0.0386396 -6.82076e-20)
(0.224137 0.0396011 1.64337e-19)
(0.278376 0.041944 9.94001e-20)
(0.337709 0.046297 2.42652e-20)
(0.400433 0.0529043 -1.02399e-19)
(0.46702 0.0646781 -5.46075e-21)
(0.520554 0.0972316 -1.61133e-19)
(0.203418 0.0390704 -3.21332e-20)
(0.25716 0.0410355 2.95282e-20)
(0.316545 0.0445815 -5.20095e-20)
(0.381353 0.0503984 -5.91565e-20)
(0.449919 0.0586037 1.2316e-19)
(0.525946 0.0751893 -3.92441e-20)
(0.583444 0.104665 3.04898e-21)
(0.292615 0.0427833 -6.53915e-20)
(0.357171 0.0475012 1.84265e-20)
(0.427327 0.0545911 -2.29763e-20)
(0.501346 0.0636886 -1.25217e-20)
(0.584313 0.0813676 2.71012e-20)
(0.650589 0.0983493 2.97527e-19)
(0.400004 0.0507844 2.74286e-21)
(0.475138 0.0589964 -1.22637e-19)
(0.553872 0.0686267 -3.23452e-20)
(0.641171 0.086225 1.52552e-19)
(0.712154 0.095862 -1.72556e-19)
(0.444774 0.0545394 1.25088e-19)
(0.524356 0.0637981 3.89737e-20)
(0.606934 0.0739261 2.20052e-19)
(0.696681 0.0912964 -1.39187e-19)
(0.769813 0.0972762 2.3009e-19)
(0.574572 0.0691394 4.86084e-20)
(0.660066 0.0798295 2.84468e-20)
(0.750812 0.0969477 -2.39253e-19)
(0.824793 0.101207 -1.35189e-19)
(0.712807 0.086425 4.04864e-20)
(0.803308 0.103285 1.87588e-19)
(0.877088 0.106993 -1.29649e-19)
(0.764679 0.0937157 -1.40775e-19)
(0.853826 0.110304 8.96875e-20)
(0.926414 0.114136 4.18317e-20)
(0.901997 0.117923 -1.41739e-19)
(0.972469 0.122202 1.98959e-19)
(1.01498 0.130833 -9.96326e-20)
(1.01498 -0.130832 -7.54857e-20)
(0.902 -0.117922 -2.27298e-19)
(0.972472 -0.122201 1.34254e-19)
(0.764683 -0.0937148 -1.52317e-19)
(0.853829 -0.110303 1.20863e-19)
(0.926418 -0.114135 -3.9863e-20)
(0.71281 -0.0864241 -8.62221e-20)
(0.803312 -0.103283 2.57432e-19)
(0.877091 -0.106992 -6.09856e-20)
(0.574576 -0.0691387 3.35894e-21)
(0.660069 -0.0798286 -2.27338e-20)
(0.750816 -0.0969466 -2.50064e-19)
(0.824797 -0.101206 -1.36358e-19)
(0.444777 -0.0545389 -1.33006e-20)
(0.524359 -0.0637974 3.77835e-20)
(0.606938 -0.0739253 1.54732e-19)
(0.696685 -0.0912953 -5.1749e-20)
(0.769817 -0.0972749 1.60888e-19)
(0.400008 -0.050784 8.13643e-20)
(0.475142 -0.0589958 -8.00708e-20)
(0.553876 -0.0686258 -1.40614e-19)
(0.641175 -0.086224 2.37841e-19)
(0.712158 -0.0958607 -1.54057e-19)
(0.292618 -0.042783 -1.17055e-20)
(0.357174 -0.0475008 -1.45343e-19)
(0.427331 -0.0545905 5.39679e-20)
(0.50135 -0.0636878 9.65965e-20)
(0.584317 -0.0813666 2.69874e-21)
(0.650593 -0.098348 2.04943e-19)
(0.203421 -0.0390703 1.40717e-19)
(0.257163 -0.0410352 -3.504e-20)
(0.316548 -0.044581 -9.95778e-20)
(0.381357 -0.0503978 -2.41253e-20)
(0.449923 -0.058603 1.54778e-19)
(0.52595 -0.0751883 5.39857e-21)
(0.583449 -0.104664 -7.27829e-20)
(0.175253 -0.0386395 3.19171e-20)
(0.22414 -0.0396008 9.98794e-20)
(0.278379 -0.0419435 5.19369e-20)
(0.337713 -0.0462964 5.9235e-20)
(0.400437 -0.0529035 -1.75083e-19)
(0.467025 -0.0646771 3.88603e-20)
(0.520559 -0.0972305 -1.4343e-19)
(0.110284 -0.0392411 8.89049e-21)
(0.149381 -0.038426 -7.82874e-20)
(0.193615 -0.0384303 -3.55137e-20)
(0.242867 -0.0395664 -7.90194e-20)
(0.296875 -0.0423419 -3.34736e-20)
(0.35419 -0.0470434 1.2475e-20)
(0.413732 -0.0541482 -7.53711e-20)
(0.470618 -0.0804896 -4.93321e-21)
(0.0906832 -0.0398803 1.23852e-19)
(0.125764 -0.0383849 1.16155e-20)
(0.165603 -0.0374969 5.38133e-20)
(0.210124 -0.0374777 -7.90898e-20)
(0.259117 -0.038714 1.21147e-19)
(0.311552 -0.041528 3.18474e-20)
(0.365656 -0.0453755 4.43466e-20)
(0.423479 -0.0655601 1.5387e-19)
(0.0459274 -0.0428744 9.70946e-20)
(0.0729835 -0.0405851 9.44489e-21)
(0.104331 -0.0384825 4.09519e-20)
(0.140064 -0.0367861 5.55168e-20)
(0.180157 -0.0357127 -2.39292e-20)
(0.22447 -0.0355634 -9.43882e-20)
(0.272326 -0.0366914 4.61145e-20)
(0.321611 -0.0384504 -5.84296e-20)
(0.377631 -0.0544938 -1.62959e-19)
(0.0331045 -0.0439909 1.01062e-19)
(0.0570827 -0.0413246 -3.19275e-20)
(0.0849857 -0.0386931 -3.45184e-20)
(0.11692 -0.0362873 -1.09922e-19)
(0.152902 -0.034293 1.48997e-19)
(0.192863 -0.0329665 -4.24767e-20)
(0.236373 -0.0326928 -2.76661e-20)
(0.281268 -0.0330988 3.90471e-20)
(0.334146 -0.0463703 1.21524e-19)
(0.00398609 -0.0477638 2.1767e-19)
(0.0217061 -0.0450563 -1.60139e-19)
(0.0428703 -0.0420751 -1.20731e-19)
(0.0676169 -0.0389966 -7.9911e-20)
(0.0960618 -0.0359909 1.72384e-19)
(0.128256 -0.0332273 -9.63596e-22)
(0.164195 -0.0309522 4.47994e-20)
(0.203607 -0.0295952 -1.64482e-19)
(0.244485 -0.0291736 1.02559e-20)
(0.293584 -0.0405724 7.57951e-20)
(-0.00384352 -0.0489176 -1.69967e-20)
(0.0116258 -0.0460529 -4.30364e-20)
(0.0302299 -0.0428184 6.76131e-20)
(0.0521006 -0.0393773 8.68079e-20)
(0.0773598 -0.0358873 -2.09467e-19)
(0.106087 -0.0325155 -8.19751e-20)
(0.138328 -0.029525 8.05535e-20)
(0.173909 -0.0274086 9.82069e-20)
(0.21106 -0.0265861 1.06246e-19)
(0.256071 -0.0367835 5.68765e-21)
(-0.0213683 -0.0523111 -3.63071e-20)
(-0.0106743 -0.0499465 -2.36468e-20)
(0.00275735 -0.0469673 1.23303e-19)
(0.0190417 -0.0435407 -1.24687e-19)
(0.0383045 -0.0398219 -7.05886e-20)
(0.0606707 -0.0359652 3.15654e-20)
(0.0862395 -0.0321482 5.53314e-20)
(0.115094 -0.0286692 -4.82993e-20)
(0.147113 -0.0260978 7.40763e-20)
(0.180772 -0.0252103 1.01838e-19)
(0.221613 -0.0346832 -9.73602e-20)
(-0.0256964 -0.0532259 1.41461e-19)
(-0.0165967 -0.0508421 -1.09026e-19)
(-0.00500461 -0.0477897 1.25098e-19)
(0.00918508 -0.0442307 -1.58117e-20)
(0.0260917 -0.0403178 5.08284e-20)
(0.0458408 -0.0362101 -3.0747e-20)
(0.0685441 -0.0321055 -2.8066e-20)
(0.0943066 -0.0283485 1.76307e-20)
(0.123025 -0.0255874 -1.83361e-19)
(0.153401 -0.024877 1.79933e-20)
(0.190153 -0.0339206 8.21334e-20)
(-0.0293618 -0.0539764 -2.26893e-19)
(-0.0216981 -0.0515984 2.71165e-20)
(-0.0117631 -0.0485122 -5.25518e-20)
(0.000539625 -0.0448782 -5.52725e-20)
(0.0153232 -0.0408518 -2.13569e-20)
(0.0327112 -0.036603 1.5417e-19)
(0.0528205 -0.0323566 -3.05439e-20)
(0.0757644 -0.0285067 -3.30537e-20)
(0.101437 -0.0257719 1.0378e-19)
(0.128728 -0.0253935 -4.27673e-20)
(0.161573 -0.0341585 -1.58017e-20)
(-0.0368061 -0.0560013 4.02704e-20)
(-0.0324342 -0.0545597 -2.23009e-20)
(-0.0260622 -0.0522109 5.20286e-20)
(-0.0176182 -0.0491282 3.36043e-21)
(-0.00701295 -0.0454734 1.71759e-19)
(0.0058604 -0.0414087 1.27693e-19)
(0.0211209 -0.0371192 1.89274e-20)
(0.0388843 -0.0328601 1.86391e-20)
(0.0592606 -0.0290716 1.91122e-20)
(0.082129 -0.0265254 3.73077e-20)
(0.106525 -0.0265593 4.30357e-20)
(0.135704 -0.0350946 5.8927e-20)
(-0.0383635 -0.0563515 1.26143e-20)
(-0.0349794 -0.0549742 1.56144e-19)
(-0.0297692 -0.0526761 1.44038e-19)
(-0.0226663 -0.0496313 -2.80073e-20)
(-0.0135875 -0.0460055 -2.20407e-19)
(-0.00243274 -0.0419703 -3.67203e-20)
(0.0109105 -0.0377287 -8.89772e-20)
(0.0265515 -0.0335653 1.31519e-19)
(0.0445877 -0.0299589 3.19016e-20)
(0.0648762 -0.0277111 -1.57533e-19)
(0.0865668 -0.0281775 -7.26181e-20)
(0.112345 -0.036468 -2.82796e-19)
(-0.0395559 -0.0565221 -5.8938e-20)
(-0.0370596 -0.0552184 5.54758e-20)
(-0.0328948 -0.0529907 -4.63565e-20)
(-0.026999 -0.0500147 -9.98816e-20)
(-0.0192943 -0.0464623 7.36083e-20)
(-0.00968742 -0.0425158 -2.0064e-20)
(0.00192547 -0.0383966 -8.09009e-20)
(0.0156428 -0.0344152 -1.05419e-19)
(0.031543 -0.0310774 5.25018e-20)
(0.0494588 -0.0291908 3.32614e-20)
(0.0686272 -0.0300643 -4.78301e-20)
(0.0912783 -0.0380613 1.38533e-19)
(-0.0406512 -0.0566296 1.40138e-20)
(-0.0404303 -0.0565135 9.45916e-20)
(-0.038733 -0.0552914 -2.17527e-19)
(-0.0355104 -0.0531511 -8.66309e-20)
(-0.0307028 -0.0502713 3.20581e-20)
(-0.0242375 -0.0468303 1.12324e-20)
(-0.0160282 -0.0430221 -3.89036e-20)
(-0.00598131 -0.0390846 1.05888e-19)
(0.00598745 -0.0353487 -8.07374e-21)
(0.0199336 -0.0323345 6.44731e-20)
(0.0356668 -0.0308325 2.98891e-20)
(0.0524906 -0.0320572 1.3192e-19)
(0.0722832 -0.0397004 5.73525e-20)
(-0.0406608 -0.0563671 -4.29501e-20)
(-0.0410303 -0.0563263 2.44039e-20)
(-0.0400536 -0.0551923 7.43645e-20)
(-0.0376821 -0.0531538 -7.36052e-20)
(-0.0338585 -0.0503929 -7.99708e-20)
(-0.0285146 -0.047095 1.03925e-21)
(-0.0215715 -0.0434644 1.84024e-20)
(-0.0129471 -0.0397527 9.81995e-21)
(-0.0025735 -0.0363046 -7.61657e-20)
(0.00958052 -0.0336411 -7.33235e-20)
(0.0233046 -0.0325162 -2.01717e-20)
(0.0379538 -0.0340185 -1.36013e-19)
(0.055143 -0.0412521 -4.47016e-20)
(-0.0404949 -0.0559284 2.67116e-20)
(-0.0413962 -0.055961 1.67835e-20)
(-0.0410713 -0.05492 6.71321e-22)
(-0.0394712 -0.0529949 1.68588e-19)
(-0.0365404 -0.0503714 2.07129e-19)
(-0.0322151 -0.047241 3.20517e-20)
(-0.0264242 -0.0438171 -7.09751e-20)
(-0.0190977 -0.0403612 2.76952e-20)
(-0.010185 -0.0372239 1.44979e-19)
(0.000320838 -0.0349157 -1.34837e-19)
(0.0121946 -0.0341389 -1.96991e-20)
(0.0248304 -0.0358375 5.56226e-20)
(0.0396536 -0.0426189 -8.68278e-20)
(-0.0377337 -0.0539664 5.59962e-20)
(-0.040183 -0.0553149 3.47888e-20)
(-0.041565 -0.0554184 -5.0915e-20)
(-0.0418316 -0.0544734 -9.80196e-20)
(-0.0409334 -0.0526704 -5.21506e-20)
(-0.0388162 -0.050198 -2.22286e-19)
(-0.0354205 -0.0472531 -9.9204e-20)
(-0.030683 -0.0440555 9.89151e-21)
(-0.024546 -0.0408723 3.90594e-21)
(-0.0169766 -0.038053 -1.83581e-20)
(-0.00799029 -0.036087 1.43944e-19)
(0.00217921 -0.0356155 7.79623e-20)
(0.0129528 -0.0374295 -3.43079e-20)
(0.0256275 -0.0437342 1.17066e-19)
(-0.0369725 -0.053144 1.16355e-19)
(-0.0397521 -0.0545284 -9.18559e-20)
(-0.0415701 -0.0546991 4.38388e-20)
(-0.042376 -0.0538514 9.62182e-20)
(-0.0421192 -0.0521762 2.30841e-20)
(-0.0407468 -0.0498645 9.01644e-20)
(-0.0382035 -0.0471166 1.8492e-19)
(-0.0344338 -0.0441563 -1.46007e-20)
(-0.0293922 -0.0412518 -1.44796e-19)
(-0.0230624 -0.0387451 6.31736e-20)
(-0.0154794 -0.037096 -8.09174e-20)
(-0.00687868 -0.0368803 -1.06132e-19)
(0.00217253 -0.038735 -6.97768e-20)
(0.0128967 -0.0445568 -5.29322e-20)
(-0.0361487 -0.0521592 -1.33602e-19)
(-0.0392264 -0.0535706 1.51117e-19)
(-0.0414418 -0.053804 -1.15228e-19)
(-0.0427414 -0.0530532 -9.24384e-20)
(-0.0430735 -0.0515089 2.52089e-20)
(-0.0423863 -0.0493632 1.47551e-20)
(-0.0406284 -0.0468182 -5.24753e-20)
(-0.0377521 -0.0440987 8.93453e-20)
(-0.0337233 -0.0414701 1.21453e-19)
(-0.0285407 -0.039261 -4.68242e-20)
(-0.0222551 -0.0378966 4.52024e-20)
(-0.0150972 -0.0378848 5.85791e-20)
(-0.00764339 -0.039724 5.01332e-20)
(0.0013201 -0.0450545 -4.87933e-21)
(-0.0352796 -0.0510143 1.97118e-20)
(-0.0386278 -0.0524433 -8.83768e-21)
(-0.0412071 -0.0527341 1.38634e-20)
(-0.0429608 -0.0520782 1.12444e-19)
(-0.0438359 -0.0506652 2.88173e-21)
(-0.0437819 -0.0486871 1.8464e-20)