/*--------------------------------*- C++ -*----------------------------------*\
  =========                 |
  \\      /  F ield         | OpenFOAM: The Open Source CFD Toolbox
   \\    /   O peration     | Website:  https://openfoam.org
    \\  /    A nd           | Version:  7
     \\/     M anipulation  |
\*---------------------------------------------------------------------------*/
FoamFile
{
    version     2.0;
    format      ascii;
    class       surfaceScalarField;
    location    "200";
    object      phi;
}
// * * * * * * * * * * * * * * * * * * * * * * * * * * * * * * * * * * * * * //

dimensions      [0 3 -1 0 0 0 0];

internalField   nonuniform List<scalar> 
8927
(
0.00147877
0.0111244
-0.0110874
0.00144779
0.0105362
-0.0105052
0.00143758
0.00812406
-0.00811385
0.00144896
0.00429696
-0.00430833
0.0014682
-0.000293058
0.000273813
0.00147589
-0.00445738
0.00444969
0.00146644
-0.00838778
0.00839722
0.00145132
-0.0105919
0.010607
0.00144195
-0.0112668
0.0112762
0.00143907
-0.00936549
0.00936837
0.00143823
-0.00535266
0.0053535
0.00143336
-0.000737756
0.000742633
0.00142265
0.00538514
-0.00537443
0.00141188
0.00882449
-0.00881373
0.00140592
0.0118535
-0.0118476
0.00140069
0.0106224
-0.0106172
0.00139138
0.00652074
-0.00651144
0.00137437
0.00236687
-0.00234986
0.00135505
-0.0062733
0.00629263
0.00134249
-0.00816216
0.00817472
0.00133457
-0.0116282
0.0116361
0.00132111
-0.00955218
0.00956564
8.8557e-05
-6.79464e-05
0.00148399
0.0111614
0.0014519
0.0105683
0.00143978
0.00813618
0.0014492
0.00428753
0.00146708
-0.000310929
0.00147366
-0.00446396
0.00146317
-0.00837729
0.00144745
-0.0105762
0.00143834
-0.0112577
0.00143659
-0.00936374
0.00143703
-0.0053531
0.0014336
-0.000734332
0.00142425
0.00539448
0.00141454
0.00883421
0.00140898
0.0118591
0.00140308
0.0106283
0.00139294
0.00653089
0.00137452
0.00238528
0.00135403
-0.00625281
0.00134094
-0.00814907
0.00133282
-0.0116201
0.00132071
-0.00954007
0.000108048
0.00148916
0.0111984
0.00145593
0.0106015
0.00144187
0.00815024
0.00144933
0.00428007
0.00146584
-0.000327446
0.00147137
-0.00446949
0.00145987
-0.00836579
0.00144353
-0.0105598
0.00143466
-0.0112488
0.00143405
-0.00936313
0.00143577
-0.00535482
0.00143383
-0.000732398
0.00142587
0.00540244
0.00141721
0.00884288
0.00141206
0.0118642
0.00140549
0.0106349
0.00139454
0.00654184
0.00137475
0.00240507
0.00135311
-0.00623116
0.00133948
-0.00813545
0.00133117
-0.0116118
0.00132043
-0.00952933
0.000126403
0.00149429
0.0112353
0.0014599
0.0106359
0.00144386
0.00816628
0.00144933
0.0042746
0.00146451
-0.000342626
0.00146903
-0.00447402
0.00145654
-0.00835329
0.00143957
-0.0105429
0.00143091
-0.0112402
0.00143142
-0.00936364
0.00143446
-0.00535785
0.00143405
-0.000731991
0.0014275
0.00540899
0.00141989
0.00885049
0.00141514
0.011869
0.00140792
0.0106421
0.00139619
0.00655358
0.00137505
0.0024262
0.00135227
-0.00620838
0.00133812
-0.0081213
0.00132962
-0.0116033
0.00132026
-0.00951997
0.000143606
0.00149937
0.0112722
0.00146381
0.0106714
0.00144576
0.00818434
0.00144921
0.00427114
0.00146307
-0.000356482
0.00146663
-0.00447757
0.00145317
-0.00833984
0.00143556
-0.0105253
0.00142709
-0.0112317
0.00142872
-0.00936527
0.00143309
-0.00536223
0.00143425
-0.000733145
0.00142913
0.00541411
0.00142258
0.00885705
0.00141823
0.0118733
0.00141037
0.0106499
0.00139788
0.00656607
0.00137543
0.00244865
0.00135154
-0.00618449
0.00133686
-0.00810663
0.00132818
-0.0115946
0.00132022
-0.009512
0.000159642
0.0015044
0.011309
0.00146766
0.0107082
0.00144757
0.00820443
0.00144899
0.00426973
0.00146153
-0.000369029
0.00146417
-0.00448021
0.00144979
-0.00832545
0.00143152
-0.010507
0.0014232
-0.0112234
0.00142594
-0.00936801
0.00143167
-0.00536797
0.00143442
-0.000735894
0.00143077
0.00541776
0.00142528
0.00886254
0.00142132
0.0118773
0.00141283
0.0106584
0.00139961
0.0065793
0.00137589
0.00247237
0.00135089
-0.00615949
0.0013357
-0.00809143
0.00132685
-0.0115858
0.00132029
-0.00950544
0.000174494
0.00150939
0.0113456
0.00147146
0.0107461
0.0014493
0.00822659
0.00144865
0.00427038
0.0014599
-0.000380275
0.00146166
-0.00448198
0.00144638
-0.00831017
0.00142744
-0.0104881
0.00141924
-0.0112152
0.00142308
-0.00937185
0.0014302
-0.00537509
0.00143458
-0.000740271
0.0014324
0.00541994
0.00142798
0.00886696
0.00142441
0.0118809
0.00141531
0.0106675
0.00140139
0.00659322
0.00137642
0.00249734
0.00135035
-0.00613342
0.00133464
-0.00807572
0.00132562
-0.0115767
0.00132047
-0.00950028
0.000188149
0.00151433
0.0113821
0.00147522
0.0107852
0.00145096
0.00825085
0.00144822
0.00427311
0.00145817
-0.000390228
0.0014591
-0.00448291
0.00144295
-0.00829401
0.00142333
-0.0104684
0.00141521
-0.0112071
0.00142014
-0.00937677
0.00142867
-0.00538362
0.0014347
-0.000746309
0.00143403
0.00542061
0.00143067
0.00887032
0.0014275
0.011884
0.0014178
0.0106772
0.00140321
0.00660781
0.00137704
0.00252351
0.00134989
-0.00610627
0.00133368
-0.00805951
0.0013245
-0.0115676
0.00132077
-0.00949655
0.000200592
0.00151922
0.0114185
0.00147892
0.0108255
0.00145254
0.00827723
0.00144768
0.00427797
0.00145635
-0.000398893
0.00145649
-0.00448305
0.0014395
-0.00827702
0.00141918
-0.0104481
0.00141112
-0.011199
0.00141712
-0.00938278
0.00142707
-0.00539357
0.0014348
-0.000754036
0.00143565
0.00541976
0.00143337
0.00887261
0.00143059
0.0118868
0.00142029
0.0106875
0.00140507
0.00662303
0.00137773
0.00255085
0.00134954
-0.00607809
0.00133282
-0.00804279
0.00132348
-0.0115582
0.00132117
-0.00949424
0.000211808
0.00152407
0.0114546
0.00148259
0.010867
0.00145406
0.00830576
0.00144705
0.00428498
0.00145443
-0.00040627
0.00145383
-0.00448244
0.00143603
-0.00825922
0.00141501
-0.0104271
0.00140697
-0.011191
0.00141403
-0.00938984
0.00142542
-0.00540496
0.00143487
-0.000763482
0.00143726
0.00541736
0.00143605
0.00887382
0.00143368
0.0118892
0.0014228
0.0106984
0.00140697
0.00663886
0.0013785
0.00257931
0.00134929
-0.00604887
0.00133207
-0.00802556
0.00132257
-0.0115487
0.00132169
-0.00949336
0.000221783
0.00152887
0.0114905
0.00148621
0.0109096
0.00145552
0.00833645
0.00144633
0.00429416
0.00145242
-0.000412358
0.00145111
-0.00448113
0.00143254
-0.00824065
0.00141081
-0.0104054
0.00140275
-0.0111829
0.00141085
-0.00939795
0.00142371
-0.00541781
0.0014349
-0.000774676
0.00143886
0.0054134
0.00143873
0.00887395
0.00143675
0.0118912
0.00142531
0.0107099
0.00140891
0.00665527
0.00137936
0.00260886
0.00134914
-0.00601865
0.00133142
-0.00800785
0.00132177
-0.0115391
0.00132233
-0.00949392
0.000230505
0.00153362
0.0115261
0.0014898
0.0109535
0.00145692
0.00836933
0.00144553
0.00430556
0.00145032
-0.000417154
0.00144834
-0.00447915
0.00142904
-0.00822136
0.00140658
-0.0103829
0.00139847
-0.0111748
0.0014076
-0.00940708
0.00142193
-0.00543214
0.0014349
-0.000787643
0.00144044
0.00540785
0.00144139
0.008873
0.00143981
0.0118927
0.00142782
0.0107218
0.00141088
0.00667221
0.00138029
0.00263946
0.00134908
-0.00598744
0.00133088
-0.00798964
0.00132108
-0.0115293
0.00132306
-0.0094959
0.000237959
0.00153831
0.0115613
0.00149336
0.0109984
0.00145828
0.0084044
0.00144464
0.0043192
0.00144813
-0.000420648
0.00144552
-0.00447654
0.00142553
-0.00820136
0.00140233
-0.0103597
0.00139413
-0.0111666
0.00140427
-0.00941722
0.00142009
-0.00544796
0.00143485
-0.00080241
0.001442
0.00540071
0.00144403
0.00887097
0.00144286
0.0118939
0.00143034
0.0107344
0.00141289
0.00668966
0.0013813
0.00267105
0.00134913
-0.00595527
0.00133044
-0.00797095
0.00132049
-0.0115193
0.00132391
-0.00949932
0.000244133
0.00154295
0.0115961
0.00149688
0.0110445
0.00145959
0.00844169
0.00144367
0.00433511
0.00144586
-0.000422832
0.00144265
-0.00447333
0.00142201
-0.00818072
0.00139806
-0.0103358
0.00138973
-0.0111582
0.00140085
-0.00942834
0.00141817
-0.00546528
0.00143476
-0.000818999
0.00144353
0.00539194
0.00144665
0.00886786
0.00144589
0.0118947
0.00143286
0.0107474
0.00141494
0.00670757
0.0013824
0.00270359
0.00134928
-0.00592216
0.00133011
-0.00795179
0.00132001
-0.0115092
0.00132486
-0.00950417
0.000249014
0.00154752
0.0116305
0.00150037
0.0110916
0.00146086
0.00848121
0.00144263
0.00435334
0.00144349
-0.000423691
0.00143973
-0.00446957
0.00141847
-0.00815946
0.00139378
-0.0103111
0.00138528
-0.0111498
0.00139736
-0.00944042
0.00141619
-0.00548411
0.00143463
-0.000837435
0.00144504
0.00538153
0.00144924
0.00886365
0.0014489
0.011895
0.00143537
0.0107609
0.00141702
0.00672593
0.00138357
0.00273705
0.00134953
-0.00588812
0.00132989
-0.00793214
0.00131964
-0.011499
0.00132592
-0.00951045
0.00025259
0.00155204
0.0116643
0.00150383
0.0111398
0.00146209
0.00852295
0.00144152
0.0043739
0.00144104
-0.000423207
0.00143675
-0.00446528
0.00141492
-0.00813763
0.00138947
-0.0102856
0.00138077
-0.011141
0.00139379
-0.00945344
0.00141414
-0.00550447
0.00143444
-0.000857738
0.00144651
0.00536946
0.00145181
0.00885835
0.00145188
0.0118949
0.00143788
0.0107749
0.00141913
0.00674468
0.00138482
0.00277136
0.00134989
-0.00585319
0.00132978
-0.00791203
0.00131937
-0.0114886
0.00132708
-0.00951815
0.000254849
0.00155648
0.0116975
0.00150727
0.0111891
0.00146329
0.00856692
0.00144035
0.00439685
0.00143851
-0.000421362
0.00143372
-0.00446049
0.00141135
-0.00811526
0.00138516
-0.0102594
0.0013762
-0.0111321
0.00139013
-0.00946736
0.00141202
-0.00552635
0.00143421
-0.000879929
0.00144795
0.00535572
0.00145434
0.00885196
0.00145484
0.0118944
0.00144039
0.0107894
0.00142127
0.00676381
0.00138615
0.00280647
0.00135034
-0.00581739
0.00132977
-0.00789146
0.00131922
-0.011478
0.00132834
-0.00952727
0.000255778
0.00156086
0.0117301
0.00151067
0.0112392
0.00146447
0.00861312
0.00143911
0.0044222
0.00143588
-0.000418132
0.00143063
-0.00445523
0.00140778
-0.00809242
0.00138083
-0.0102325
0.00137159
-0.0111229
0.00138639
-0.00948217
0.00140982
-0.00554977
0.00143391
-0.000904026
0.00144934
0.00534029
0.00145683
0.00884447
0.00145777
0.0118935
0.00144288
0.0108042
0.00142343
0.00678326
0.00138755
0.00284235
0.00135091
-0.00578074
0.00132987
-0.00787043
0.00131916
-0.0114673
0.0013297
-0.0095378
0.000255367
0.00156515
0.0117619
0.00151404
0.0112904
0.00146562
0.00866155
0.00143782
0.00444999
0.00143318
-0.00041349
0.00142748
-0.00444953
0.00140419
-0.00806913
0.00137649
-0.0102048
0.00136692
-0.0111133
0.00138258
-0.00949783
0.00140754
-0.00557473
0.00143356
-0.000930045
0.00145069
0.00532316
0.00145929
0.00883587
0.00146066
0.0118921
0.00144536
0.0108195
0.00142562
0.00680301
0.00138904
0.00287893
0.00135157
-0.00574327
0.00133009
-0.00784895
0.00131922
-0.0114564
0.00133115
-0.00954974
0.000253604
0.00156936
0.0117929
0.00151738
0.0113423
0.00146674
0.00871219
0.00143647
0.00448026
0.00143039
-0.00040741
0.00142427
-0.0044434
0.00140059
-0.00804545
0.00137214
-0.0101763
0.0013622
-0.0111033
0.00137867
-0.0095143
0.00140518
-0.00560124
0.00143314
-0.000958004
0.001452
0.0053043
0.0014617
0.00882617
0.00146352
0.0118903
0.00144783
0.0108352
0.00142783
0.00682301
0.0013906
0.00291616
0.00135233
-0.00570501
0.00133041
-0.00782702
0.00131938
-0.0114454
0.00133271
-0.00956307
0.000250479
0.00157348
0.011823
0.00152069
0.0113951
0.00146785
0.00876504
0.00143508
0.00451303
0.00142753
-0.000399857
0.001421
-0.00443687
0.00139697
-0.00802142
0.00136778
-0.0101471
0.00135743
-0.011093
0.00137469
-0.00953156
0.00140274
-0.00562929
0.00143265
-0.000987915
0.00145325
0.0052837
0.00146406
0.00881536
0.00146634
0.011888
0.00145028
0.0108513
0.00143005
0.00684324
0.00139223
0.00295399
0.0013532
-0.00566599
0.00133084
-0.00780466
0.00131964
-0.0114342
0.00133436
-0.00957778
0.00024598
0.0015775
0.0118521
0.00152397
0.0114487
0.00146894
0.00882006
0.00143364
0.00454834
0.00142458
-0.000390799
0.00141766
-0.00442996
0.00139334
-0.0079971
0.00136341
-0.0101172
0.00135262
-0.0110822
0.00137063
-0.00954957
0.00140022
-0.00565888
0.0014321
-0.00101979
0.00145445
0.00526135
0.00146638
0.00880342
0.00146912
0.0118853
0.00145272
0.0108677
0.0014323
0.00686365
0.00139393
0.00299235
0.00135417
-0.00562623
0.00133137
-0.00778186
0.00132001
-0.0114229
0.0013361
-0.00959387
0.000240096
0.00158142
0.0118802
0.0015272
0.0115029
0.00147002
0.00887725
0.00143215
0.0045862
0.00142155
-0.000380199
0.00141426
-0.00442267
0.00138969
-0.00797252
0.00135904
-0.0100866
0.00134776
-0.0110709
0.00136648
-0.0095683
0.00139761
-0.00569001
0.00143147
-0.00105365
0.00145558
0.00523724
0.00146864
0.00879037
0.00147185
0.0118821
0.00145513
0.0108844
0.00143456
0.00688422
0.00139571
0.0030312
0.00135525
-0.00558577
0.00133202
-0.00775863
0.00132048
-0.0114113
0.00133793
-0.00961131
0.000232818
0.00158522
0.0119071
0.0015304
0.0115577
0.00147108
0.00893657
0.00143063
0.00462665
0.00141845
-0.000368018
0.0014108
-0.00441502
0.00138602
-0.00794774
0.00135467
-0.0100552
0.00134286
-0.0110591
0.00136225
-0.00958769
0.00139492
-0.00572268
0.00143076
-0.00108949
0.00145666
0.00521134
0.00147084
0.00877619
0.00147453
0.0118784
0.00145751
0.0109014
0.00143683
0.0069049
0.00139756
0.00307048
0.00135642
-0.00554463
0.00133277
-0.00773498
0.00132106
-0.0113996
0.00133985
-0.0096301
0.000224136
0.00158889
0.0119328
0.00153355
0.011613
0.00147213
0.00899799
0.00142907
0.00466971
0.00141527
-0.000354215
0.00140726
-0.00440702
0.00138233
-0.00792281
0.00135029
-0.0100232
0.00133791
-0.0110467
0.00135794
-0.00960772
0.00139214
-0.00575687
0.00142997
-0.00112732
0.00145766
0.00518364
0.00147298
0.00876088
0.00147717
0.0118742
0.00145987
0.0109187
0.00143911
0.00692566
0.00139947
0.00311012
0.0013577
-0.00550285
0.00133363
-0.00771092
0.00132174
-0.0113877
0.00134186
-0.00965022
0.000214039
0.00159243
0.0119571
0.00153664
0.0116688
0.00147316
0.00906147
0.00142748
0.0047154
0.00141201
-0.000338748
0.00140365
-0.00439866
0.00137861
-0.00789777
0.00134591
-0.00999046
0.00133293
-0.0110338
0.00135355
-0.00962834
0.00138927
-0.00579259
0.0014291
-0.00116715
0.0014586
0.00515414
0.00147505
0.00874442
0.00147975
0.0118695
0.0014622
0.0109363
0.0014414
0.00694646
0.00140145
0.00315006
0.00135907
-0.00546047
0.0013346
-0.00768645
0.00132252
-0.0113756
0.00134395
-0.00967165
0.000202519
0.00159583
0.0119799
0.00153968
0.011725
0.00147419
0.00912696
0.00142586
0.00476373
0.00140868
-0.000321572
0.00139997
-0.00438995
0.00137487
-0.00787267
0.00134152
-0.00995711
0.0013279
-0.0110201
0.00134907
-0.00964951
0.0013863
-0.00582982
0.00142814
-0.00120899
0.00145946
0.00512282
0.00147706
0.00872683
0.00148227
0.0118643
0.0014645
0.0109541
0.00144368
0.00696727
0.0014035
0.00319024
0.00136054
-0.00541752
0.00133568
-0.00766158
0.0013234
-0.0113634
0.00134613
-0.00969438
0.000189566
0.00159908
0.0120012
0.00154266
0.0117814
0.0014752
0.00919442
0.00142421
0.00481473
0.00140528
-0.000302642
0.00139621
-0.00438089
0.0013711
-0.00784756
0.00133714
-0.00992315
0.00132284
-0.0110058
0.00134451
-0.00967118
0.00138325
-0.00586855
0.0014271
-0.00125285
0.00146025
0.00508967
0.001479
0.00870807
0.00148473
0.0118586
0.00146676
0.010972
0.00144597
0.00698806
0.00140561
0.00323061
0.00136211
-0.00537402
0.00133686
-0.00763633
0.00132438
-0.0113509
0.00134839
-0.00971839
0.000175171
0.00160216
0.0120209
0.00154557
0.011838
0.0014762
0.0092638
0.00142254
0.00486839
0.00140181
-0.00028191
0.00139238
-0.00437146
0.0013673
-0.00782249
0.00133275
-0.0098886
0.00131775
-0.0109908
0.00133987
-0.00969331
0.00138009
-0.00590877
0.00142596
-0.00129871
0.00146096
0.00505467
0.00148087
0.00868816
0.00148714
0.0118523
0.00146898
0.0109902
0.00144826
0.00700878
0.00140778
0.0032711
0.00136378
-0.00533003
0.00133814
-0.00761069
0.00132546
-0.0113382
0.00135073
-0.00974366
0.000159327
0.00160506
0.0120388
0.00154841
0.0118946
0.00147718
0.00933502
0.00142085
0.00492472
0.00139827
-0.000259329
0.00138846
-0.00436165
0.00136347
-0.0077975
0.00132836
-0.00985349
0.00131262
-0.0109751
0.00133515
-0.00971584
0.00137685
-0.00595047
0.00142472
-0.00134658
0.00146158
0.00501781
0.00148266
0.00866708
0.00148947
0.0118455
0.00147116
0.0110085
0.00145054
0.0070294
0.00141
0.00331163
0.00136554
-0.00528557
0.00133953
-0.00758467
0.00132664
-0.0113253
0.00135315
-0.00977017
0.000142024
0.00160777
0.0120548
0.00155116
0.0119512
0.00147815
0.00940803
0.00141914
0.00498374
0.00139466
-0.000234849
0.00138446
-0.00435145
0.0013596
-0.00777263
0.00132397
-0.00981786
0.00130746
-0.0109586
0.00133035
-0.00973873
0.00137351
-0.00599362
0.0014234
-0.00139647
0.00146211
0.00497909
0.00148437
0.00864483
0.00149174
0.0118381
0.00147331
0.0110269
0.00145281
0.0070499
0.00141228
0.00335216
0.0013674
-0.00524069
0.00134102
-0.00755829
0.00132791
-0.0113122
0.00135564
-0.0097979
0.000123255
0.00161029
0.0120689
0.00155382
0.0120077
0.0014791
0.00948274
0.00141741
0.00504542
0.00139099
-0.000208422
0.00138038
-0.00434084
0.00135569
-0.00774794
0.00131958
-0.00978176
0.00130227
-0.0109413
0.00132547
-0.00976193
0.00137007
-0.00603822
0.00142197
-0.00144838
0.00146256
0.0049385
0.001486
0.00862139
0.00149394
0.0118302
0.0014754
0.0110455
0.00145507
0.00707023
0.00141462
0.00339261
0.00136935
-0.00519542
0.00134261
-0.00753155
0.00132928
-0.0112989
0.00135821
-0.00982682
0.000103014
0.0016126
0.0120809
0.00155637
0.0120639
0.00148003
0.00955909
0.00141568
0.00510977
0.00138725
-0.000179997
0.00137621
-0.0043298
0.00135173
-0.00772346
0.00131518
-0.00974521
0.00129705
-0.0109231
0.0013205
-0.00978539
0.00136653
-0.00608425
0.00142045
-0.0015023
0.00146292
0.00489603
0.00148754
0.00859677
0.00149607
0.0118216
0.00147745
0.0110641
0.00145732
0.00709036
0.00141701
0.00343293
0.00137139
-0.00514981
0.00134431
-0.00750447
0.00133075
-0.0112853
0.00136085
-0.00985692
8.12947e-05
0.00161468
0.0120907
0.00155882
0.0121198
0.00148093
0.00963699
0.00141393
0.00517677
0.00138346
-0.000149523
0.00137195
-0.0043183
0.00134773
-0.00769924
0.00131078
-0.00970826
0.0012918
-0.0109042
0.00131546
-0.00980905
0.00136289
-0.00613168
0.00141882
-0.00155823
0.00146318
0.00485167
0.001489
0.00857095
0.00149812
0.0118125
0.00147945
0.0110828
0.00145955
0.00711027
0.00141944
0.00347303
0.00137352
-0.00510389
0.0013461
-0.00747706
0.00133231
-0.0112715
0.00136356
-0.00988817
5.80908e-05
0.00161652
0.0120983
0.00156116
0.0121752
0.00148181
0.00971633
0.00141218
0.00524641
0.0013796
-0.00011695
0.00136761
-0.00430631
0.00134368
-0.00767531
0.00130638
-0.00967096
0.00128653
-0.0108843
0.00131034
-0.00983285
0.00135915
-0.00618049
0.0014171
-0.00161618
0.00146335
0.00480541
0.00149038
0.00854392
0.0015001
0.0118028
0.0014814
0.0111015
0.00146176
0.00712991
0.00142192
0.00351287
0.00137574
-0.00505771
0.001348
-0.00744932
0.00133396
-0.0112575
0.00136634
-0.00992055
3.33986e-05
0.00161812
0.0121035
0.00156336
0.0122299
0.00148266
0.00979703
0.00141042
0.00531865
0.00137569
-8.22252e-05
0.00136317
-0.00429379
0.00133957
-0.00765171
0.00130197
-0.00963336
0.00128124
-0.0108636
0.00130513
-0.00985674
0.00135531
-0.00623066
0.00141527
-0.00167614
0.00146344
0.00475725
0.00149167
0.00851569
0.00150201
0.0117925
0.0014833
0.0111202
0.00146394
0.00714927
0.00142444
0.00355237
0.00137804
-0.0050113
0.00134999
-0.00742126
0.00133571
-0.0112432
0.00136919
-0.00995403
7.21506e-06
0.00161946
0.0121062
0.00156544
0.0122839
0.00148349
0.00987898
0.00140867
0.00539347
0.00137174
-4.5295e-05
0.00135865
-0.0042807
0.00133541
-0.00762847
0.00129755
-0.0095955
0.00127593
-0.010842
0.00129985
-0.00988067
0.00135135
-0.00628216
0.00141334
-0.00173813
0.00146343
0.00470716
0.00149287
0.00848624
0.00150384
0.0117815
0.00148514
0.0111389
0.00146611
0.0071683
0.00142701
0.00359146
0.00138043
-0.00496472
0.00135208
-0.00739291
0.00133755
-0.0112287
0.00137211
-0.00998858
-2.04615e-05
0.00162055
0.0121063
0.0015674
0.0123371
0.00148432
0.00996206
0.00140694
0.00547085
0.00136774
-6.09461e-06
0.00135403
-0.00426698
0.00133118
-0.00760563
0.00129312
-0.00955743
0.00127059
-0.0108194
0.00129449
-0.00990456
0.00134729
-0.00633497
0.00141131
-0.00180215
0.00146333
0.00465515
0.001494
0.00845557
0.0015056
0.0117699
0.00148694
0.0111575
0.00146824
0.007187
0.00142961
0.00363009
0.0013829
-0.00491801
0.00135426
-0.00736427
0.00133949
-0.0112139
0.00137509
-0.0100242
-4.96304e-05
0.00162141
0.0121037
0.00156924
0.0123893
0.00148513
0.0100462
0.00140521
0.00555076
0.00136368
3.54395e-05
0.00134929
-0.00425259
0.00132688
-0.00758322
0.00128867
-0.00951922
0.00126524
-0.010796
0.00128906
-0.00992838
0.00134313
-0.00638905
0.00140919
-0.00186821
0.00146316
0.00460118
0.00149505
0.00842368
0.00150729
0.0117577
0.00148868
0.0111761
0.00147035
0.00720532
0.00143225
0.00366819
0.00138545
-0.0048712
0.00135654
-0.00733536
0.00134151
-0.0111989
0.00137814
-0.0100608
-8.0289e-05
0.00162208
0.0120987
0.00157081
0.0124405
0.0014856
0.0101314
0.00140301
0.00563335
0.00135912
7.93308e-05
0.00134424
-0.00423771
0.00132238
-0.00756135
0.0012843
-0.00948114
0.00125993
-0.0107716
0.00128377
-0.00995222
0.00133901
-0.00644429
0.00140714
-0.00193634
0.00146304
0.00454528
0.0014961
0.00839062
0.00150899
0.0117448
0.00149032
0.0111948
0.00147241
0.00722324
0.0014349
0.0037057
0.00138785
-0.00482416
0.00135909
-0.00730659
0.00134333
-0.0111831
0.00138131
-0.0100988
-0.000112369
0.00486224
0.0121427
0.00477699
0.0125258
0.00470372
0.0102046
0.00469764
0.00563943
0.00478874
-1.17647e-05
0.00490142
-0.0043504
0.00490772
-0.00756765
0.00480159
-0.00937501
0.00466223
-0.0106323
0.00461546
-0.00990546
0.00462452
-0.00645335
0.00467041
-0.00198223
0.00471231
0.00450338
0.00473741
0.00836552
0.0047636
0.0117186
0.0047435
0.0112149
0.00475133
0.0072154
0.00469517
0.00376186
0.00456471
-0.0046937
0.00447088
-0.00721277
0.00435714
-0.0110694
0.00443807
-0.0101797
-0.000184071
0.00504892
0.0121755
0.0049659
0.0126088
0.00488781
0.0102827
0.00487243
0.00565481
0.00496185
-0.000101186
0.00507741
-0.00446596
0.00508534
-0.00757558
0.00497031
-0.00925997
0.00481301
-0.010475
0.00475658
-0.00984903
0.00476594
-0.00646271
0.00482068
-0.00203697
0.00487219
0.00445186
0.00489873
0.00833899
0.00492913
0.0116882
0.00490099
0.0112431
0.00491689
0.00719951
0.00486433
0.00381442
0.00472888
-0.00455825
0.00462723
-0.00711112
0.0044997
-0.0109418
0.00458543
-0.0102654
-0.000265763
0.00524471
0.0121962
0.00516714
0.0126864
0.00508835
0.0103615
0.00506706
0.0056761
0.00515056
-0.000184687
0.00526593
-0.00458132
0.0052736
-0.00758326
0.00514895
-0.00913532
0.00497239
-0.0102984
0.00490439
-0.00978103
0.00491439
-0.00647271
0.00497857
-0.00210115
0.00503944
0.00439099
0.00506799
0.00831045
0.00510005
0.0116561
0.00506742
0.0112757
0.00508921
0.00717772
0.00504389
0.00385974
0.00490451
-0.00441887
0.00479331
-0.00699992
0.0046521
-0.0108006
0.00473997
-0.0103533
-0.000357963
0.00545303
0.0122024
0.00538357
0.0127558
0.00530671
0.0104384
0.00528048
0.00570233
0.0053554
-0.000259599
0.00546696
-0.00469288
0.00547261
-0.00758892
0.005338
-0.0090007
0.00514072
-0.0101011
0.00505922
-0.00969954
0.00506939
-0.00648287
0.00514399
-0.00217575
0.00521539
0.0043196
0.00524585
0.00827999
0.00527936
0.0116226
0.00524178
0.0113133
0.00526972
0.00714978
0.00523364
0.00389582
0.00509134
-0.00427657
0.00497027
-0.00687884
0.00481403
-0.0106444
0.00490254
-0.0104418
-0.000460537
0.00567452
0.0121914
0.00561597
0.0128144
0.00554387
0.0105105
0.00551377
0.00573243
0.00557742
-0.000323253
0.00568125
-0.00479671
0.00568271
-0.00759038
0.00553776
-0.00885575
0.0053185
-0.00988188
0.00522147
-0.00960251
0.00523103
-0.00649243
0.00531688
-0.0022616
0.0054003
0.00423617
0.00543286
0.00824743
0.00546746
0.011588
0.00542445
0.0113563
0.00545851
0.00711572
0.00543395
0.00392038
0.00529
-0.00413262
0.00515875
-0.0067476
0.00498605
-0.0104717
0.00507346
-0.0105292
-0.000573183
0.00590913
0.0121606
0.0058646
0.0128589
0.00580071
0.0105744
0.00576794
0.0057652
0.00581769
-0.000373004
0.00590949
-0.00488851
0.00590411
-0.007585
0.0057484
-0.00870004
0.00550616
-0.00963965
0.00539146
-0.0094878
0.00539939
-0.00650036
0.00549731
-0.00235952
0.00559443
0.00413906
0.00562947
0.00821239
0.00566477
0.0115527
0.00561578
0.0114053
0.00565581
0.00707569
0.00564523
0.00393096
0.00550108
-0.00398847
0.00535933
-0.00660584
0.00516871
-0.0102811
0.00525301
-0.0106135
-0.000695416
0.00615645
0.0121071
0.00612958
0.0128858
0.00607767
0.0106263
0.00604356
0.00579931
0.00607696
-0.000406404
0.0061522
-0.00496375
0.00613688
-0.00756968
0.00596996
-0.00853312
0.00570406
-0.00937374
0.00556948
-0.00935322
0.00557449
-0.00650537
0.00568524
-0.00247027
0.00579795
0.00402635
0.00583614
0.00817419
0.00587179
0.0115171
0.00581631
0.0114607
0.00586196
0.00703005
0.00586783
0.00392509
0.00572518
-0.00384582
0.00557254
-0.0064532
0.00536251
-0.010071
0.00544148
-0.0106925
-0.00082655
0.0064159
0.0120281
0.00641063
0.0128911
0.00637449
0.0106624
0.00634067
0.00583313
0.00635565
-0.000421386
0.00640972
-0.00501782
0.00638097
-0.00754093
0.0062023
-0.00835445
0.00591245
-0.00908389
0.00575583
-0.00919661
0.00575633
-0.00650587
0.00588054
-0.00259448
0.00601095
0.00389594
0.00605329
0.00813185
0.00608913
0.0114812
0.00602676
0.0115231
0.00607742
0.00697938
0.00610214
0.00390037
0.00596282
-0.0037065
0.00579887
-0.00628925
0.0055679
-0.00984007
0.00563911
-0.0107637
-0.000965695
0.00668665
0.0119208
0.00670692
0.0128708
0.00669029
0.0106791
0.00665868
0.00586474
0.00665369
-0.000416398
0.0066821
-0.00504623
0.00663612
-0.00749495
0.0064451
-0.00816343
0.00613148
-0.00877028
0.0059508
-0.00901592
0.00594491
-0.00649998
0.00608296
-0.00273253
0.00623338
0.00374553
0.00628132
0.00808391
0.00631746
0.0114451
0.00624805
0.0115925
0.00630289
0.00692454
0.00634856
0.00385469
0.0062145
-0.00357243
0.00603874
-0.00611349
0.00578528
-0.00958661
0.00584608
-0.0108245
-0.00111175
0.00696743
0.0117825
0.00701706
0.0128212
0.00702357
0.0106725
0.00699636
0.00589195
0.00697047
-0.000390508
0.00696904
-0.00504479
0.00690186
-0.00742777
0.00669779
-0.00795936
0.00636116
-0.00843365
0.00615465
-0.00880941
0.00614017
-0.0064855
0.00629215
-0.00288451
0.00646499
0.00357268
0.00652048
0.00802842
0.00655755
0.011408
0.0064814
0.0116687
0.00653931
0.00686664
0.00660755
0.00378646
0.00648063
-0.00344551
0.00629248
-0.00592534
0.00601495
-0.00930908
0.00606252
-0.0108721
-0.0012634
0.00725653
0.0116104
0.00733905
0.0127387
0.00737212
0.0106395
0.00735176
0.00591231
0.00730473
-0.000343472
0.00726982
-0.00500989
0.00717748
-0.00733543
0.00695961
-0.00774149
0.00660129
-0.00807533
0.00636762
-0.00857575
0.00634205
-0.00645992
0.00650757
-0.00305003
0.00670532
0.00337493
0.00677089
0.00796285
0.00681019
0.0113687
0.00672832
0.0117505
0.00678795
0.00680701
0.0068796
0.00369481
0.00676153
-0.00332745
0.00656031
-0.00572412
0.0062571
-0.00900587
0.00628846
-0.0109035
-0.00141914
0.00755182
0.0114025
0.00767034
0.0126201
0.00773313
0.0105767
0.00772228
0.00592316
0.00765456
-0.000275749
0.00758326
-0.00493859
0.00746198
-0.00721414
0.00722953
-0.00750905
0.00685146
-0.00769726
0.00658989
-0.00831417
0.00655045
-0.00642048
0.00672855
-0.00322814
0.00695357
0.00314991
0.00703238
0.00788405
0.00707615
0.0113249
0.00699057
0.0118361
0.00705039
0.00674719
0.00716527
0.00357993
0.00705735
-0.00321952
0.00684229
-0.00550907
0.00651181
-0.00867539
0.00652383
-0.0109155
-0.00157729
0.0078507
0.011157
0.00800781
0.012463
0.00810315
0.0104813
0.00810464
0.00592167
0.00801737
-0.00018848
0.00790764
-0.00482887
0.00775406
-0.00706057
0.00750631
-0.00726129
0.00711104
-0.00730199
0.00682154
-0.00802467
0.00676527
-0.00636421
0.00695419
-0.00341705
0.00720858
0.00289551
0.00730442
0.00778821
0.00735612
0.0112732
0.00727009
0.0119221
0.00732853
0.00668874
0.00746514
0.00344332
0.00736803
-0.00312241
0.00713832
-0.00527936
0.00677899
-0.00831606
0.00676839
-0.0109049
-0.00173601
0.00815015
0.0108728
0.00834788
0.0122653
0.0084783
0.0103509
0.00849496
0.00590501
0.00838992
-8.34329e-05
0.0082407
-0.00467965
0.00805212
-0.00687199
0.00778846
-0.00699764
0.00737913
-0.00689266
0.00706258
-0.00770812
0.00698642
-0.00628805
0.00718342
-0.00361405
0.00746876
0.00261017
0.00758604
0.00767092
0.00765048
0.0112088
0.00756884
0.0120038
0.00762442
0.00663316
0.00777975
0.00328799
0.00769321
-0.00303586
0.00744801
-0.00503416
0.00705839
-0.00792644
0.00702176
-0.0108682
-0.00189332
0.00844674
0.0105497
0.00868657
0.0120255
0.00885429
0.0101832
0.00888892
0.00587038
0.00876837
3.71118e-05
0.00857966
-0.00449093
0.00835425
-0.00664658
0.00807433
-0.00671772
0.00765457
-0.00647289
0.00731283
-0.00736639
0.00721381
-0.00618903
0.00741501
-0.00381525
0.00773204
0.00229314
0.00787567
0.00752729
0.00795919
0.0111253
0.00788853
0.0120745
0.00794009
0.00658161
0.00810947
0.0031186
0.00803213
-0.00295852
0.0077707
-0.00477273
0.00734961
-0.00750534
0.00728338
-0.010802
-0.00204711
0.00873667
0.0101882
0.00901963
0.0117425
0.00922651
0.00997632
0.00928174
0.00581515
0.00914837
0.000170481
0.00892123
-0.00426379
0.00865823
-0.00638357
0.0083621
-0.00642159
0.00793597
-0.00604677
0.00757194
-0.00700236
0.00744739
-0.00606448
0.00764765
-0.00401551
0.00799591
0.00194489
0.00817102
0.00735218
0.00828147
0.0110148
0.00823024
0.0121257
0.00827718
0.00653467
0.00845434
0.00294144
0.00838352
-0.0028877
0.00810532
-0.00449453
0.00765201
-0.00705203
0.00755247
-0.0107025
-0.00219516
0.0090158
0.00978951
0.00934265
0.0114157
0.00959026
0.00972871
0.00966826
0.00573715
0.0095251
0.00031365
0.00926174
-0.00400044
0.00896163
-0.00608346
0.00864986
-0.00610982
0.00822176
-0.00561867
0.00783935
-0.00661994
0.0076871
-0.00591223
0.00787997
-0.00420838
0.00825742
0.00156743
0.00846907
0.00714053
0.00861556
0.0108683
0.00859399
0.0121473
0.00863661
0.00649204
0.00881386
0.00276419
0.00874547
-0.00281931
0.00845031
-0.00419938
0.00796478
-0.0065665
0.00782808
-0.0105658
-0.00233506
0.00927969
0.00935514
0.00965121
0.0110441
0.00994065
0.00943927
0.0100432
0.00563461
0.00989331
0.000463519
0.00959719
-0.00370432
0.00926188
-0.00574815
0.00893571
-0.00578365
0.00851026
-0.00519322
0.00811422
-0.0062239
0.00793288
-0.00573089
0.00811065
-0.00438615
0.00851334
0.00116474
0.00876601
0.00688786
0.00895853
0.0106758
0.00897825
0.0121275
0.00901802
0.00645228
0.00918667
0.00259554
0.0091153
-0.00274794
0.00880357
-0.00388765
0.00828686
-0.00604979
0.0081091
-0.010388
-0.00246425
0.00952367
0.00888671
0.00994085
0.010627
0.0102729
0.00910727
0.0104008
0.00550668
0.0102476
0.000616677
0.00992348
-0.00338018