/*--------------------------------*- C++ -*----------------------------------*\
  =========                 |
  \\      /  F ield         | OpenFOAM: The Open Source CFD Toolbox
   \\    /   O peration     | Website:  https://openfoam.org
    \\  /    A nd           | Version:  7
     \\/     M anipulation  |
\*---------------------------------------------------------------------------*/
FoamFile
{
    version     2.0;
    format      ascii;
    class       volVectorField;
    location    "200";
    object      U;
}
// * * * * * * * * * * * * * * * * * * * * * * * * * * * * * * * * * * * * * //

dimensions      [0 1 -1 0 0 0 0];

internalField   nonuniform List<vector> 
4575
(
(0.806901 0.372875 -5.91205e-23)
(0.787681 0.34707 5.37827e-23)
(0.77669 0.263163 -7.40475e-23)
(0.780477 0.13701 -5.83097e-23)
(0.792982 -0.00892449 -1.13245e-22)
(0.805358 -0.137031 -1.58408e-23)
(0.804928 -0.253693 3.54223e-23)
(0.798618 -0.314816 4.65785e-23)
(0.791398 -0.328944 -1.93494e-23)
(0.791332 -0.268608 -4.54006e-23)
(0.79058 -0.150849 -1.51308e-23)
(0.793097 -0.0205225 5.88123e-23)
(0.787376 0.146311 1.10678e-23)
(0.784354 0.235693 -5.2202e-23)
(0.778119 0.311207 5.33653e-23)
(0.781605 0.274023 1.46777e-23)
(0.775647 0.165192 -8.69644e-24)
(0.775776 0.0587148 -4.05729e-24)
(0.759865 -0.153878 -1.20824e-23)
(0.75886 -0.196558 -4.78814e-24)
(0.748503 -0.275018 9.8816e-25)
(0.754486 -0.222068 -1.18785e-23)
(0.735748 0.00175451 2.55879e-23)
(0.806634 0.374027 3.73476e-23)
(0.787472 0.348024 -1.64254e-22)
(0.776391 0.26344 4.10822e-23)
(0.780135 0.136595 -1.59925e-22)
(0.792854 -0.00958775 5.66616e-23)
(0.80562 -0.137332 -1.34998e-22)
(0.805279 -0.253471 -1.2624e-22)
(0.798794 -0.314435 -1.72312e-22)
(0.791343 -0.32875 5.44035e-24)
(0.791267 -0.268617 1.09118e-22)
(0.790505 -0.150922 -9.09144e-23)
(0.792925 -0.0204891 -6.62428e-23)
(0.787348 0.146499 1.99538e-24)
(0.784554 0.235881 1.06358e-23)
(0.778731 0.311272 -3.24905e-23)
(0.782318 0.274081 -4.77732e-23)
(0.776262 0.165355 2.19233e-22)
(0.776335 0.0590749 -7.73885e-23)
(0.759771 -0.153465 -1.49262e-22)
(0.758561 -0.196324 3.439e-23)
(0.747785 -0.2749 -8.8798e-23)
(0.753768 -0.221844 -1.30353e-23)
(0.736152 0.00213648 -5.08237e-23)
(0.806468 0.375172 -1.98241e-22)
(0.787354 0.349008 3.1093e-23)
(0.776169 0.263775 6.73642e-23)
(0.779856 0.136241 4.03048e-22)
(0.792786 -0.0102076 2.72909e-23)
(0.805957 -0.137596 6.53889e-22)
(0.805718 -0.253212 -6.2689e-23)
(0.799049 -0.31403 3.03273e-22)
(0.79135 -0.328556 -2.22799e-22)
(0.791247 -0.268654 -1.07995e-22)
(0.790477 -0.151028 2.51452e-22)
(0.792815 -0.0204956 1.3378e-22)
(0.787395 0.146648 1.24569e-22)
(0.784831 0.236037 3.41488e-23)
(0.77941 0.31132 5.22871e-23)
(0.783092 0.274151 1.01429e-22)
(0.776939 0.165536 -2.32731e-22)
(0.776967 0.0594688 5.22954e-23)
(0.759756 -0.153021 1.93413e-22)
(0.758339 -0.196073 4.94446e-23)
(0.74714 -0.274771 9.73599e-23)
(0.753122 -0.221646 4.78442e-23)
(0.736632 0.00249299 3.93241e-23)
(0.806402 0.376309 2.76974e-22)
(0.787328 0.350024 -3.51867e-22)
(0.776024 0.264169 -6.59221e-23)
(0.779642 0.135947 -7.41247e-23)
(0.792779 -0.0107844 -7.86643e-23)
(0.806367 -0.137825 -2.53e-22)
(0.806243 -0.252917 1.88282e-22)
(0.799385 -0.313599 -3.57388e-22)
(0.791416 -0.328362 8.05319e-23)
(0.791274 -0.268717 2.09113e-22)
(0.790497 -0.151166 -3.43752e-22)
(0.792767 -0.0205426 -2.06909e-22)
(0.787515 0.146756 -3.46468e-23)
(0.785183 0.236161 1.33785e-22)
(0.780156 0.311352 -1.35344e-22)
(0.783924 0.274233 2.9704e-23)
(0.777677 0.165735 4.70815e-22)
(0.777672 0.059896 -1.39548e-22)
(0.759822 -0.152546 9.693e-23)
(0.758193 -0.195804 -6.22595e-23)
(0.746568 -0.274631 -7.39828e-23)
(0.752548 -0.221476 2.00936e-23)
(0.737188 0.0028239 -9.22165e-24)
(0.806439 0.377439 -5.94858e-23)
(0.787396 0.351073 5.18974e-22)
(0.775961 0.264624 5.72304e-24)
(0.779494 0.135717 3.06653e-22)
(0.792834 -0.0113181 -3.55488e-22)
(0.806849 -0.138021 -1.30062e-22)
(0.806856 -0.252588 1.28724e-22)
(0.799803 -0.313142 3.66676e-22)
(0.791544 -0.328166 3.25056e-22)
(0.791346 -0.268806 -6.42495e-22)
(0.790565 -0.151338 5.13694e-22)
(0.79278 -0.0206309 2.75061e-22)
(0.78771 0.146824 -3.25501e-23)
(0.785609 0.236252 2.06118e-23)
(0.780967 0.311369 3.69061e-22)
(0.784815 0.274327 -2.70186e-22)
(0.778475 0.165951 -3.77279e-22)
(0.77845 0.0603559 3.04523e-22)
(0.759969 -0.152038 -7.37853e-23)
(0.758124 -0.195518 -8.61612e-23)
(0.74607 -0.27448 7.60704e-23)
(0.752045 -0.221331 -3.8665e-23)
(0.737819 0.00312913 -9.07636e-23)
(0.806578 0.37856 3.69257e-22)
(0.78756 0.352156 -6.29678e-22)
(0.775981 0.265142 -1.35786e-22)
(0.779414 0.135549 -3.10819e-23)
(0.79295 -0.0118091 9.03061e-22)
(0.807405 -0.138183 -5.22619e-22)
(0.807555 -0.252223 -2.28668e-22)
(0.800302 -0.312658 -1.33416e-22)
(0.791733 -0.327967 4.52896e-22)
(0.791463 -0.268921 3.148e-22)
(0.790679 -0.151544 4.77226e-23)
(0.792855 -0.0207611 -2.0808e-22)
(0.787977 0.146851 3.39628e-22)
(0.786109 0.236312 -1.25616e-22)
(0.781844 0.31137 -5.68163e-22)
(0.785764 0.274433 1.22146e-22)
(0.779333 0.166184 -4.33706e-23)
(0.7793 0.0608481 -1.03755e-22)
(0.760197 -0.1515 -1.3409e-22)
(0.758133 -0.195213 3.5873e-23)
(0.745648 -0.274318 8.42962e-23)
(0.751613 -0.221214 -8.99144e-25)
(0.738524 0.00340858 6.97902e-23)
(0.806819 0.379673 5.49058e-22)
(0.787821 0.353272 9.11824e-22)
(0.776085 0.265722 1.32789e-21)
(0.779405 0.135446 -2.44696e-22)
(0.793129 -0.0122572 -7.23321e-22)
(0.808033 -0.138314 3.91176e-23)
(0.808341 -0.251825 2.93131e-22)
(0.800884 -0.312148 -1.48007e-22)
(0.791983 -0.327764 -4.36242e-22)
(0.791626 -0.26906 -1.35477e-23)
(0.790842 -0.151783 -5.03305e-22)
(0.792991 -0.0209338 2.49293e-22)
(0.788316 0.146836 -6.5784e-23)
(0.786681 0.236341 -1.44934e-22)
(0.782784 0.311357 5.35667e-22)
(0.786771 0.274552 -3.27957e-22)
(0.780251 0.166433 5.26977e-23)
(0.780223 0.0613719 4.55551e-23)
(0.760506 -0.15093 2.62012e-22)
(0.758219 -0.194891 -1.1068e-22)
(0.745302 -0.274146 -1.15368e-22)
(0.751251 -0.221123 -2.66499e-23)
(0.739302 0.00366216 7.04325e-23)
(0.807164 0.380776 -6.83078e-22)
(0.788182 0.354423 4.44858e-22)
(0.776278 0.266367 -4.32826e-22)
(0.779466 0.135409 -1.20729e-21)
(0.793371 -0.0126625 -1.37146e-22)
(0.808732 -0.138414 4.85148e-22)
(0.809214 -0.251393 -6.06689e-23)
(0.801547 -0.311609 4.9676e-22)
(0.792296 -0.327557 -5.17555e-22)
(0.791835 -0.269223 -1.57544e-22)
(0.791051 -0.152057 8.13097e-23)
(0.793187 -0.0211496 -4.54164e-22)
(0.788726 0.146781 -2.38691e-22)
(0.787325 0.236338 -1.25767e-22)
(0.783786 0.311328 -3.16655e-23)
(0.787834 0.274682 3.91996e-22)
(0.781227 0.166698 5.92921e-22)
(0.781217 0.0619266 -8.15209e-22)
(0.760898 -0.150329 -5.47065e-22)
(0.758384 -0.194551 -1.82984e-22)
(0.745031 -0.273962 2.28041e-22)
(0.75096 -0.221059 -1.32233e-24)
(0.740152 0.00388982 8.25701e-23)
(0.807613 0.381868 -6.87731e-22)
(0.788642 0.355608 -1.58857e-22)
(0.776559 0.267077 9.05283e-22)
(0.779602 0.135438 1.5749e-21)
(0.793677 -0.0130248 -9.75101e-22)
(0.809502 -0.138484 1.17983e-21)
(0.810173 -0.250929 6.41167e-22)
(0.802293 -0.311043 -3.34755e-22)
(0.79267 -0.327342 4.5734e-22)
(0.792088 -0.26941 2.22332e-22)
(0.791307 -0.152365 7.78628e-23)
(0.793443 -0.021409 -7.37654e-23)
(0.789207 0.146683 -7.97146e-23)
(0.78804 0.236304 2.1971e-22)
(0.78485 0.311286 -2.56858e-23)
(0.788953 0.274825 -7.13031e-22)
(0.782262 0.166978 -1.02944e-21)
(0.782284 0.0625115 5.59821e-22)
(0.761373 -0.149697 3.95627e-22)
(0.758626 -0.194193 3.5343e-23)
(0.744838 -0.273766 -2.07627e-22)
(0.750738 -0.221021 -2.82244e-23)
(0.741074 0.00409151 -3.82046e-23)
(0.808165 0.382949 1.0085e-22)
(0.789204 0.356828 -1.58481e-21)
(0.776933 0.267854 -2.03312e-22)
(0.779812 0.135535 -6.54096e-23)
(0.794046 -0.0133439 1.14506e-21)
(0.810342 -0.138525 -1.64709e-21)
(0.811217 -0.250432 -6.9293e-22)
(0.803122 -0.310447 -9.43026e-22)
(0.793107 -0.327121 -5.07597e-23)
(0.792386 -0.269619 -4.44138e-22)
(0.79161 -0.152709 1.23816e-22)
(0.793758 -0.0217125 8.84925e-22)
(0.789758 0.146543 3.7112e-22)
(0.788824 0.23624 -4.6705e-25)
(0.785974 0.311229 5.14355e-22)
(0.790127 0.27498 6.78543e-22)
(0.783354 0.167273 7.91434e-22)
(0.783423 0.063126 1.07109e-21)
(0.761932 -0.149035 -6.06874e-22)
(0.758947 -0.193817 -9.06947e-23)
(0.744722 -0.273559 4.4539e-22)
(0.750586 -0.221009 7.39885e-23)
(0.742067 0.00426718 -1.53128e-22)
(0.808821 0.384018 1.29156e-21)
(0.78987 0.358083 2.04137e-22)
(0.7774 0.268698 -1.71616e-21)
(0.780099 0.135702 -3.58571e-22)
(0.794479 -0.0136196 -3.70708e-22)
(0.811251 -0.138539 -1.49331e-22)
(0.812347 -0.249905 6.25502e-22)
(0.804034 -0.309821 7.06872e-22)
(0.793607 -0.32689 -5.44533e-22)
(0.792729 -0.269851 1.42844e-21)
(0.791959 -0.153087 -3.91791e-22)
(0.794132 -0.0220607 -6.81742e-22)
(0.790378 0.146361 -2.22256e-22)
(0.789677 0.236145 1.51681e-22)
(0.787158 0.311159 -1.48433e-22)
(0.791356 0.275147 5.60787e-22)
(0.784503 0.167582 -1.46013e-23)
(0.784632 0.0637693 -1.19217e-21)
(0.762573 -0.148343 3.35799e-22)
(0.759346 -0.193422 3.78629e-22)
(0.744684 -0.27334 -4.20588e-22)
(0.750503 -0.221024 -6.20446e-23)
(0.74313 0.00441681 9.78622e-23)
(0.80958 0.385073 2.24998e-22)
(0.790639 0.359372 -7.21332e-22)
(0.777963 0.26961 1.28872e-22)
(0.780465 0.135939 1.0736e-21)
(0.794977 -0.0138514 4.61025e-22)
(0.812228 -0.138525 9.32294e-22)
(0.813561 -0.249348 1.30673e-21)
(0.805028 -0.309166 -1.04738e-22)
(0.79417 -0.326649 5.5851e-22)
(0.793117 -0.270104 -3.31981e-22)
(0.792354 -0.1535 3.99793e-22)
(0.794564 -0.0224537 2.68455e-22)
(0.791065 0.146137 -5.28048e-22)
(0.790597 0.236019 7.97238e-25)
(0.788399 0.311075 -2.36489e-22)
(0.792639 0.275326 -9.22951e-22)
(0.785707 0.167905 6.1589e-22)
(0.785913 0.0644405 -5.34035e-22)
(0.763299 -0.147621 -2.68604e-22)
(0.759824 -0.193009 -1.09431e-22)
(0.744725 -0.27311 9.72802e-23)
(0.750488 -0.221064 2.75756e-23)
(0.744261 0.00454039 -9.52563e-23)
(0.810442 0.386112 -1.0083e-21)
(0.791512 0.360695 -5.07964e-22)
(0.778623 0.270592 8.33012e-22)
(0.780911 0.136247 -1.10619e-21)
(0.79554 -0.014039 2.54507e-22)
(0.813271 -0.138486 1.65683e-22)
(0.814858 -0.248761 -3.12039e-21)
(0.806106 -0.30848 8.69965e-23)
(0.794796 -0.326396 -1.24346e-21)
(0.793548 -0.270377 -7.17126e-22)
(0.792795 -0.153948 2.98828e-22)
(0.795053 -0.0228921 -1.7646e-22)
(0.791818 0.14587 3.84269e-22)
(0.791584 0.235864 1.06199e-22)
(0.789697 0.310978 -8.91831e-22)
(0.793974 0.275516 9.11633e-22)
(0.786967 0.168241 -3.87729e-22)
(0.787263 0.0651389 1.58263e-21)
(0.764108 -0.146869 -2.73287e-22)
(0.76038 -0.192578 7.07743e-24)
(0.744844 -0.272867 6.65976e-23)
(0.750542 -0.221129 1.38544e-23)
(0.745461 0.00463791 3.66991e-23)
(0.811408 0.387136 1.856e-21)
(0.792492 0.362051 8.60522e-22)
(0.779382 0.271643 -3.9571e-22)
(0.781439 0.136628 6.32928e-22)
(0.796169 -0.0141817 2.37939e-21)
(0.814381 -0.138422 -2.15081e-21)
(0.816239 -0.248145 2.27412e-21)
(0.807267 -0.307762 -1.63472e-23)
(0.795486 -0.32613 8.93244e-22)
(0.794025 -0.270669 6.78883e-22)
(0.79328 -0.154432 -5.74729e-22)
(0.795598 -0.0233762 -1.36357e-22)
(0.792638 0.14556 -1.14542e-22)
(0.792636 0.235679 -6.43312e-22)
(0.791051 0.310867 7.04845e-22)
(0.795361 0.275719 -2.30646e-22)
(0.788281 0.16859 4.58762e-22)
(0.788683 0.0658636 -6.32902e-23)
(0.765002 -0.146088 -1.00883e-22)
(0.761014 -0.192127 -3.41005e-22)
(0.745043 -0.272612 -7.06831e-22)
(0.750662 -0.22122 -3.0008e-24)
(0.746727 0.0047094 -1.2819e-23)
(0.812475 0.388141 -3.28901e-22)
(0.793577 0.363441 -9.03392e-22)
(0.780242 0.272764 -6.82731e-22)
(0.782051 0.137084 -3.4984e-21)
(0.796864 -0.0142789 -3.07983e-22)
(0.815556 -0.138334 3.67355e-22)
(0.8177 -0.247503 -3.16706e-21)
(0.808511 -0.307014 3.94827e-22)
(0.796239 -0.32585 1.37007e-22)
(0.794545 -0.27098 4.21791e-22)
(0.79381 -0.15495 2.67097e-23)
(0.796198 -0.0239061 4.1408e-22)
(0.793521 0.145208 2.54538e-22)
(0.793752 0.235465 6.70245e-22)
(0.792459 0.310745 -7.02742e-22)
(0.796799 0.275933 -4.4382e-22)
(0.789648 0.16895 -1.15414e-21)
(0.790171 0.0666136 2.8694e-22)
(0.765981 -0.145277 1.39486e-21)
(0.761728 -0.191658 1.03014e-21)
(0.745321 -0.272344 4.24167e-22)
(0.750849 -0.221336 -2.75809e-23)
(0.748059 0.00475487 2.82906e-24)
(0.813644 0.389126 4.40301e-22)
(0.794769 0.364863 2.65317e-21)
(0.781204 0.273956 -7.39109e-22)
(0.782747 0.137615 1.84532e-21)
(0.797626 -0.0143298 1.25376e-21)
(0.816794 -0.138222 1.04372e-21)
(0.819243 -0.246833 2.06829e-21)
(0.809838 -0.306233 7.47214e-23)
(0.797057 -0.325554 3.72068e-22)
(0.795109 -0.271309 -6.09941e-22)
(0.794384 -0.155504 5.8374e-22)
(0.796853 -0.0244823 -5.27335e-22)
(0.794468 0.144812 6.2285e-24)
(0.79493 0.235221 -3.5751e-22)
(0.79392 0.310609 6.75012e-22)
(0.798287 0.276158 -8.05106e-23)
(0.791067 0.169322 1.14685e-21)
(0.791728 0.0673882 -4.63346e-22)
(0.767044 -0.144439 -1.06828e-21)
(0.762519 -0.19117 -1.08641e-21)
(0.745678 -0.272064 8.90576e-22)
(0.751102 -0.221477 3.13796e-23)
(0.749457 0.00477436 1.13662e-22)
(0.814913 0.390089 1.32643e-22)
(0.796068 0.366316 -1.21751e-21)
(0.78227 0.275219 3.29821e-21)
(0.783531 0.138222 -1.49689e-21)
(0.798454 -0.0143336 -7.58244e-22)
(0.818096 -0.138087 -2.51379e-22)
(0.820864 -0.246139 -2.64948e-21)
(0.811247 -0.30542 2.14248e-21)
(0.797939 -0.325241 -1.13208e-21)
(0.795716 -0.271654 4.52054e-22)
(0.795002 -0.156092 -3.67796e-22)
(0.797561 -0.0251048 2.20939e-22)
(0.795477 0.144374 -1.93752e-22)
(0.79617 0.234949 2.17313e-22)
(0.795433 0.310462 -1.42419e-22)
(0.799823 0.276394 4.26149e-22)
(0.792538 0.169705 -1.29445e-21)
(0.793351 0.0681862 -9.60031e-22)
(0.768192 -0.143571 5.19298e-22)
(0.763389 -0.190663 1.26462e-21)
(0.746116 -0.271771 -1.34017e-21)
(0.751421 -0.221641 -1.89425e-23)
(0.750918 0.00476793 4.35265e-26)
(0.816282 0.391029 1.34367e-21)
(0.797473 0.367799 -1.52842e-22)
(0.78344 0.276554 2.79076e-22)
(0.784403 0.138908 9.97099e-22)
(0.799351 -0.0142894 -2.11457e-21)
(0.819458 -0.137929 1.29798e-21)
(0.822563 -0.24542 3.07782e-21)
(0.812739 -0.304575 -2.67049e-21)
(0.798886 -0.324909 1.12119e-22)
(0.796367 -0.272014 -5.63219e-22)
(0.795662 -0.156716 -6.63104e-22)
(0.798321 -0.0257739 2.83965e-22)
(0.796547 0.143892 3.81027e-22)
(0.797471 0.234648 -1.95787e-22)
(0.796997 0.310302 1.15816e-22)
(0.801408 0.276642 -8.52993e-22)
(0.794059 0.170098 -3.60469e-22)
(0.79504 0.0690068 2.26257e-22)
(0.769425 -0.142676 -1.75225e-21)
(0.764336 -0.190137 -6.13147e-22)
(0.746633 -0.271464 1.06781e-22)
(0.751804 -0.22183 2.57775e-23)
(0.752442 0.00473564 -6.48967e-23)
(0.817748 0.391943 8.12017e-23)
(0.798985 0.36931 -2.01269e-21)
(0.784715 0.277959 -2.48754e-21)
(0.785364 0.139673 2.38997e-21)
(0.800316 -0.0141962 6.7359e-22)
(0.820881 -0.137751 1.18707e-22)
(0.824338 -0.244677 -2.28239e-21)
(0.814314 -0.303697 1.35073e-21)
(0.799897 -0.324558 9.05686e-22)
(0.797061 -0.272388 -3.32677e-22)
(0.796365 -0.157374 2.9424e-22)
(0.799133 -0.0264895 -1.10464e-22)
(0.797676 0.143367 -6.18953e-22)
(0.79883 0.234318 3.35055e-22)
(0.79861 0.31013 -2.50748e-23)
(0.80304 0.2769 9.81056e-22)
(0.79563 0.170501 1.06837e-21)
(0.796794 0.0698488 -1.859e-22)
(0.770743 -0.141754 1.02571e-21)
(0.765361 -0.189592 -3.07528e-22)
(0.747231 -0.271144 4.44556e-22)
(0.752251 -0.222041 -1.59493e-23)
(0.754028 0.00467756 1.06794e-23)
(0.819311 0.392829 -3.38716e-22)
(0.800604 0.370849 -2.79416e-22)
(0.786098 0.279436 7.26181e-22)
(0.786417 0.140518 -5.34641e-22)
(0.801349 -0.0140527 -2.78142e-21)
(0.822363 -0.13755 3.76412e-22)
(0.826188 -0.243913 -6.92316e-22)
(0.81597 -0.302786 -5.27482e-22)
(0.800973 -0.324184 -7.58778e-22)
(0.797798 -0.272775 6.36986e-24)
(0.79711 -0.158066 1.20909e-22)
(0.799994 -0.0272519 -1.75716e-22)
(0.798863 0.142799 3.49219e-22)
(0.800247 0.233961 6.44991e-23)
(0.800271 0.309947 -6.79135e-22)
(0.804717 0.277169 -1.57755e-21)
(0.797248 0.170913 5.896e-22)
(0.798612 0.0707113 -1.04995e-21)
(0.772146 -0.140805 2.88893e-21)
(0.766464 -0.189028 3.71564e-22)
(0.747909 -0.27081 -3.10118e-22)
(0.752761 -0.222275 1.85307e-23)
(0.755675 0.00459378 2.69027e-23)
(0.820969 0.393684 -1.12621e-21)
(0.802328 0.372414 2.99759e-21)
(0.787587 0.280984 -1.6751e-22)
(0.787562 0.141445 -3.50543e-21)
(0.802453 -0.0138579 1.45973e-21)
(0.823904 -0.137329 -4.4922e-21)
(0.82811 -0.243128 1.61038e-21)
(0.817707 -0.301842 1.5806e-21)
(0.802114 -0.323789 -3.19685e-23)
(0.798577 -0.273174 9.90266e-22)
(0.797895 -0.158792 1.19715e-22)
(0.800905 -0.0280609 2.64146e-23)
(0.800106 0.142188 1.16607e-22)
(0.801721 0.233576 -2.00044e-22)
(0.801979 0.309752 1.03693e-21)
(0.806439 0.277448 1.05111e-21)
(0.798914 0.171334 1.63261e-22)
(0.800492 0.0715931 5.75436e-22)
(0.773634 -0.139829 4.28221e-22)
(0.767643 -0.188444 -6.29082e-22)
(0.748668 -0.270462 -2.19953e-22)
(0.753334 -0.222532 4.08887e-24)
(0.757381 0.00448439 -6.13655e-23)
(0.82272 0.394507 2.3933e-21)
(0.804158 0.374002 -1.89231e-21)
(0.789184 0.282602 2.45219e-21)
(0.788801 0.142455 1.95007e-22)
(0.803626 -0.0136105 7.18503e-22)
(0.825501 -0.137088 4.06178e-21)
(0.830104 -0.242322 3.0862e-22)
(0.819525 -0.300866 -1.63517e-21)
(0.80332 -0.323368 -6.91766e-22)
(0.799399 -0.273584 4.17425e-23)
(0.798722 -0.159552 1.71512e-23)
(0.801864 -0.0289166 2.33867e-22)
(0.801405 0.141534 -2.03668e-22)
(0.80325 0.233164 -3.88137e-22)
(0.803733 0.309546 -8.64391e-22)
(0.808205 0.277738 -8.90642e-22)
(0.800626 0.171762 -3.49629e-21)
(0.802433 0.0724932 -6.30054e-23)
(0.775207 -0.138827 -3.98474e-21)
(0.7689 -0.187841 1.58972e-21)
(0.749506 -0.270099 -3.45499e-22)
(0.753968 -0.22281 -7.1139e-24)
(0.759146 0.0043495 -1.42702e-23)
(0.824562 0.395294 -7.79575e-23)
(0.806091 0.375613 -2.79855e-22)
(0.790888 0.284291 -1.81186e-21)
(0.790134 0.143548 6.4885e-22)
(0.80487 -0.0133091 -1.75213e-21)
(0.827155 -0.136825 -2.50928e-21)
(0.832166 -0.241498 8.07207e-22)
(0.821423 -0.299857 1.96942e-21)
(0.804592 -0.322923 8.08563e-22)
(0.800262 -0.274002 -1.50867e-22)
(0.799588 -0.160345 3.56974e-22)
(0.80287 -0.0298188 -3.77458e-22)
(0.802757 0.140836 3.16879e-22)
(0.804833 0.232725 4.83865e-22)
(0.805531 0.309329 6.59113e-22)
(0.810013 0.278037 1.68685e-22)
(0.802382 0.172198 9.25613e-23)
(0.804435 0.0734104 -1.38612e-21)
(0.776863 -0.1378 -1.98625e-22)
(0.770232 -0.187219 -1.32146e-21)
(0.750425 -0.269722 5.60175e-22)
(0.754662 -0.22311 -7.48784e-24)
(0.760967 0.00418924 1.65603e-23)
(0.826492 0.396044 -2.05303e-21)
(0.808127 0.377244 -1.96416e-21)
(0.792701 0.28605 4.24808e-21)
(0.791564 0.144726 3.98819e-21)
(0.806186 -0.0129523 2.87787e-21)
(0.828863 -0.136543 -1.15103e-21)
(0.834296 -0.240657 -3.14806e-21)
(0.823401 -0.298816 -7.54021e-22)
(0.805929 -0.32245 -1.20663e-21)
(0.801166 -0.274428 -1.73021e-22)
(0.800493 -0.161171 -4.54449e-22)
(0.803921 -0.0307674 3.73196e-22)
(0.804161 0.140095 1.13372e-22)
(0.806469 0.232258 -2.22064e-22)
(0.807372 0.309101 2.54255e-22)
(0.811862 0.278346 1.89907e-22)
(0.804182 0.17264 4.02602e-21)
(0.806494 0.0743435 3.95238e-21)
(0.778605 -0.136747 8.46234e-22)
(0.771639 -0.186577 1.05934e-21)
(0.751424 -0.26933 1.07309e-21)
(0.755417 -0.223429 -2.81616e-23)
(0.762845 0.00400374 2.77231e-25)
(0.828509 0.396753 -5.4392e-22)
(0.810265 0.378892 8.76564e-22)
(0.794621 0.287877 -2.53985e-21)
(0.79309 0.14599 -3.53011e-21)
(0.807574 -0.0125386 1.77602e-21)
(0.830626 -0.13624 9.00326e-22)
(0.836491 -0.2398 2.14896e-21)
(0.825456 -0.297742 3.76383e-22)
(0.807332 -0.321949 1.26011e-21)
(0.802111 -0.274861 -5.00295e-22)
(0.801437 -0.162029 -3.66308e-22)
(0.805017 -0.0317623 -5.87621e-23)
(0.805617 0.139311 -3.1299e-22)
(0.808156 0.231766 -8.27908e-23)
(0.809255 0.308862 -6.20508e-22)
(0.813751 0.278664 3.44307e-22)
(0.806024 0.173088 -2.43262e-21)
(0.808612 0.0752915 -1.24987e-21)
(0.78043 -0.135671 1.64475e-21)
(0.773122 -0.185916 1.04279e-22)
(0.752503 -0.268922 -7.14302e-22)
(0.75623 -0.223769 4.64342e-23)
(0.764778 0.00379313 2.84908e-23)
(0.830609 0.397419 2.77509e-21)
(0.812503 0.380556 -2.53014e-21)
(0.796648 0.289772 -1.59629e-22)
(0.794715 0.147341 -3.11181e-22)
(0.809034 -0.0120666 6.5432e-22)
(0.832441 -0.135916 8.89329e-22)
(0.838749 -0.238927 -4.77877e-22)
(0.827588 -0.296637 -5.87945e-22)
(0.8088 -0.321418 -2.54476e-22)
(0.803096 -0.275298 5.52795e-22)
(0.802419 -0.162918 1.61154e-22)
(0.806158 -0.0328032 -3.63837e-22)
(0.807121 0.138485 1.36711e-22)
(0.809894 0.231246 -2.43986e-22)
(0.811178 0.308612 -6.40569e-22)
(0.81568 0.278991 7.09856e-22)
(0.807908 0.173542 -5.12835e-22)
(0.810785 0.076253 1.66469e-21)
(0.782338 -0.13457 -6.39103e-22)
(0.774679 -0.185234 -1.10166e-21)
(0.753661 -0.268499 9.39646e-22)
(0.757102 -0.224128 -2.83293e-23)
(0.766764 0.00355758 1.06223e-23)
(0.83279 0.398038 -1.25093e-21)
(0.814838 0.382232 2.25333e-22)
(0.798782 0.291733 -6.19373e-22)
(0.796438 0.148779 1.47628e-21)
(0.810569 -0.0115347 -4.53758e-21)
(0.834308 -0.135572 -3.09875e-21)
(0.841067 -0.238041 5.1392e-22)
(0.829797 -0.2955 8.38943e-22)
(0.810335 -0.320857 -1.14173e-21)
(0.804121 -0.275738 -4.58502e-22)
(0.803438 -0.163839 2.43835e-22)
(0.807341 -0.0338898 2.03393e-22)
(0.808674 0.137615 -5.41241e-23)
(0.81168 0.230701 1.8118e-22)
(0.813141 0.308352 6.08959e-22)
(0.817646 0.279327 -8.28922e-22)
(0.809831 0.174001 1.61173e-21)
(0.813012 0.0772269 -2.1961e-21)
(0.78433 -0.133447 2.22636e-21)
(0.77631 -0.184534 -1.58608e-21)
(0.754899 -0.26806 8.26631e-23)
(0.758031 -0.224506 4.18699e-23)
(0.768803 0.00329725 2.57469e-24)
(0.835049 0.398608 -1.71885e-21)
(0.81727 0.383919 1.69951e-21)
(0.801023 0.29376 -2.26897e-21)
(0.79826 0.150305 2.10106e-21)
(0.812177 -0.0109411 5.66947e-21)
(0.836227 -0.135206 -6.46701e-23)
(0.843444 -0.237142 -2.82359e-21)
(0.83208 -0.294332 -7.25463e-22)
(0.811935 -0.320263 1.60757e-21)
(0.805185 -0.27618 1.04142e-21)
(0.804493 -0.16479 4.5185e-22)
(0.808566 -0.0350218 7.00375e-24)
(0.810272 0.136703 -2.44083e-23)
(0.813515 0.23013 7.74828e-23)
(0.815142 0.308081 1.98737e-22)
(0.819649 0.279672 -1.04993e-21)
(0.811793 0.174465 -1.41254e-22)
(0.815292 0.078212 6.63348e-22)
(0.786404 -0.132301 -3.34641e-21)
(0.778014 -0.183813 2.34013e-21)
(0.756216 -0.267604 -7.136e-22)
(0.759016 -0.224901 -4.14203e-23)
(0.770893 0.00301232 -3.20628e-24)
(0.837382 0.399127 -1.41882e-21)
(0.819795 0.385613 -2.54078e-21)
(0.803368 0.29585 3.70296e-21)
(0.800183 0.151919 1.96838e-21)
(0.81386 -0.0102843 -2.61828e-21)
(0.838196 -0.134819 -1.00916e-22)
(0.845877 -0.236231 1.62036e-21)
(0.834437 -0.293134 2.03887e-22)
(0.813601 -0.319636 -1.67511e-21)
(0.806288 -0.276622 -6.99266e-22)
(0.805583 -0.16577 1.00752e-22)
(0.809832 -0.0361989 -1.37059e-22)
(0.811916 0.135748 1.27745e-23)
(0.815396 0.229534 2.09188e-22)
(0.81718 0.3078 -3.22396e-22)
(0.821687 0.280025 4.81122e-22)
(0.813792 0.174932 -1.31574e-21)
(0.817623 0.0792069 -6.0769e-22)
(0.788559 -0.131133 8.60277e-22)
(0.77979 -0.183073 -1.0553e-21)
(0.757612 -0.267132 1.46782e-22)
(0.760057 -0.225313 -2.99153e-23)
(0.773033 0.00270298 4.34273e-23)
(0.839787 0.399591 2.28256e-21)
(0.822411 0.387312 -8.77459e-22)
(0.805817 0.298003 -1.56333e-21)
(0.802206 0.153622 -1.87876e-22)
(0.815619 -0.00956265 1.9265e-21)
(0.840214 -0.13441 -2.00726e-22)
(0.848365 -0.23531 4.35458e-22)
(0.836865 -0.291906 6.03901e-22)
(0.815334 -0.318974 1.21612e-21)
(0.80743 -0.277063 -2.68451e-22)
(0.806707 -0.16678 -2.39974e-22)
(0.811139 -0.0374206 8.20808e-23)
(0.813604 0.134751 2.17168e-23)
(0.817322 0.228913 -1.055e-22)
(0.819254 0.307509 -1.84407e-22)
(0.82376 0.280386 1.14088e-21)
(0.815827 0.175403 1.13697e-21)
(0.820005 0.0802105 -6.44916e-22)
(0.790796 -0.129943 -9.86795e-22)
(0.781638 -0.182313 2.48922e-22)
(0.759086 -0.266642 -6.01371e-22)
(0.761152 -0.225742 4.17912e-23)
(0.775221 0.00236944 1.35017e-23)
(0.84226 0.399996 2.17286e-23)
(0.825116 0.389012 8.47575e-22)
(0.808369 0.300216 -1.67966e-21)
(0.804331 0.155415 -2.21919e-21)
(0.817455 -0.00877437 -1.26115e-21)
(0.84228 -0.133978 2.14263e-21)
(0.850904 -0.23438 -1.96531e-21)
(0.839363 -0.29065 1.77175e-21)
(0.817131 -0.318277 -3.55561e-22)
(0.808611 -0.2775 -3.59032e-23)
(0.807864 -0.167817 -9.48175e-24)
(0.812486 -0.0386866 6.99156e-24)
(0.815334 0.133711 4.74743e-23)
(0.819294 0.228266 1.42835e-22)
(0.821362 0.307208 -3.56489e-24)
(0.825867 0.280755 -1.60161e-21)
(0.817897 0.175877 3.73886e-22)
(0.822434 0.0812214 1.39899e-21)
(0.793113 -0.128734 1.51208e-21)
(0.783557 -0.181533 -9.15838e-22)
(0.760638 -0.266135 -3.55828e-23)
(0.762302 -0.226187 -1.02855e-23)
(0.777457 0.00201192 -9.41135e-23)
(0.844797 0.400341 -8.41165e-22)
(0.827906 0.390711 -1.29393e-21)
(0.811021 0.302488 4.5968e-21)
(0.806557 0.157296 -8.8318e-22)
(0.819369 -0.00791778 -2.11816e-21)
(0.844394 -0.133522 1.18392e-21)
(0.853492 -0.233441 -3.52683e-22)
(0.84193 -0.289366 -1.96659e-21)
(0.818994 -0.317543 7.98794e-23)
(0.80983 -0.277932 2.79071e-22)
(0.809052 -0.168882 -5.55908e-24)
(0.813872 -0.0399963 1.98963e-24)
(0.817105 0.13263 3.32288e-24)
(0.821308 0.227595 9.68096e-23)
(0.823504 0.306897 9.88184e-22)
(0.828005 0.281132 1.35516e-21)
(0.82 0.176353 9.5049e-22)
(0.824911 0.0822385 5.582e-22)
(0.79551 -0.127504 5.71008e-22)
(0.785545 -0.180733 1.45071e-21)
(0.762267 -0.265611 -4.76195e-22)
(0.763505 -0.226646 9.88191e-24)
(0.779739 0.00163065 -3.24871e-23)
(0.847396 0.400622 1.10863e-21)
(0.830779 0.392405 -1.04141e-21)
(0.813774 0.304815 -2.57535e-21)
(0.808887 0.159267 -9.18173e-22)
(0.821361 -0.00699101 3.74634e-22)
(0.846555 -0.133041 3.1876e-21)
(0.856127 -0.232495 -6.72682e-22)
(0.844564 -0.288055 2.19731e-21)
(0.820923 -0.316772 6.30249e-22)
(0.811088 -0.278358 7.84276e-23)
(0.810271 -0.169973 7.98149e-23)
(0.815297 -0.0413495 -2.58184e-23)
(0.818918 0.131507 -1.64621e-23)
(0.823366 0.226899 -2.40898e-22)
(0.825679 0.306576 -7.93834e-22)
(0.830176 0.281516 -1.55649e-21)
(0.822135 0.176831 -1.04982e-21)
(0.827433 0.0832603 -1.76385e-22)
(0.797985 -0.126255 -1.68886e-23)
(0.787603 -0.179914 7.93685e-23)
(0.763974 -0.265068 7.17139e-22)
(0.764761 -0.227119 -2.53179e-23)
(0.782066 0.00122588 8.04076e-23)
(0.850052 0.400835 5.20166e-22)
(0.833732 0.394091 -2.36872e-21)
(0.816624 0.307196 3.63077e-21)
(0.81132 0.161327 -1.56894e-21)
(0.823434 -0.00599211 1.60493e-21)
(0.848762 -0.132535 -1.92547e-22)
(0.858808 -0.231543 -2.19304e-21)
(0.847263 -0.286718 4.27052e-22)
(0.822915 -0.315962 -1.18852e-21)
(0.812384 -0.278775 -7.44762e-22)
(0.811518 -0.17109 -1.82364e-22)
(0.816761 -0.0427458 2.35873e-23)
(0.82077 0.130343 6.71981e-25)
(0.825467 0.226179 1.58307e-22)
(0.827886 0.306246 3.11889e-22)
(0.832377 0.281907 -3.70714e-22)
(0.824301 0.177311 -1.31911e-21)
(0.829998 0.0842857 5.55356e-22)
(0.800537 -0.124988 -4.68558e-22)
(0.78973 -0.179074 -8.47721e-23)
(0.765756 -0.264507 -5.54834e-22)
(0.766069 -0.227605 -9.44359e-24)
(0.784436 0.000797891 -3.65794e-23)
(0.852762 0.400979 -3.84586e-22)
(0.836762 0.395766 1.89456e-21)
(0.819573 0.309628 6.29051e-22)
(0.813859 0.163476 -1.16045e-21)
(0.825588 -0.00491996 3.41539e-22)
(0.851014 -0.132003 -2.49042e-21)
(0.86153 -0.230586 1.36874e-21)
(0.850025 -0.285356 -1.76821e-21)
(0.824972 -0.315113 1.07806e-21)
(0.813719 -0.279182 5.98459e-22)
(0.812791 -0.172231 4.0578e-23)
(0.818263 -0.0441841 1.81696e-24)
(0.822664 0.129137 3.53813e-23)
(0.82761 0.225435 -3.85851e-23)
(0.830123 0.305907 3.6661e-22)
(0.834609 0.282304 1.83377e-21)
(0.826496 0.177792 3.2541e-22)
(0.832606 0.0853132 -1.76203e-21)
(0.803166 -0.123704 -4.27572e-22)
(0.791924 -0.178216 -3.47283e-22)
(0.767614 -0.263927 1.78968e-22)
(0.76743 -0.228103 -1.12996e-23)
(0.786848 0.000347009 1.04085e-23)
(0.855525 0.40105 -8.86889e-23)
(0.839866 0.397425 -7.3634e-22)
(0.822618 0.312106 -5.51799e-22)
(0.816505 0.16571 1.63453e-22)
(0.827825 -0.00377595 6.10448e-22)
(0.853311 -0.131444 4.32596e-22)
(0.864292 -0.229624 6.58518e-22)
(0.852848 -0.283969 4.26284e-22)
(0.827091 -0.314222 3.97286e-22)
(0.815093 -0.279575 -3.77104e-24)
(0.814088 -0.173392 -1.94692e-22)
(0.819803 -0.0456619 3.12007e-24)
(0.824599 0.127892 -1.71569e-25)
(0.829796 0.224669 -3.42003e-23)
(0.832392 0.305558 -4.13232e-22)
(0.836872 0.282708 -1.19081e-21)
(0.82872 0.178272 1.7228e-21)
(0.835256 0.086341 9.93869e-22)
(0.80587 -0.122403 2.81755e-22)
(0.794186 -0.177337 -7.99567e-23)
(0.769547 -0.263328 -3.82651e-22)
(0.768842 -0.228613 6.25213e-23)
(0.7893 -0.00012636 5.64719e-23)
(0.858339 0.401046 -5.30248e-22)
(0.843043 0.399061 -5.31783e-22)
(0.825763 0.314623 1.43878e-21)
(0.819261 0.168025 -1.62981e-21)
(0.830147 -0.00255801 2.5777e-21)
(0.855652 -0.130853 -1.95955e-22)
(0.867092 -0.228655 -1.69498e-21)
(0.85573 -0.282557 6.97268e-22)
(0.829274 -0.313289 -1.13209e-21)
(0.816507 -0.279952 -1.06522e-22)
(0.815408 -0.174576 -1.84405e-22)
(0.821378 -0.0471801 -4.68843e-23)
(0.826576 0.126607 -3.30516e-23)
(0.832027 0.223879 2.78786e-23)
(0.834694 0.3052 4.45665e-23)
(0.839165 0.283117 1.50373e-22)
(0.830971 0.178752 -7.44548e-22)
(0.837945 0.087368 -8.68457e-22)
(0.808649 -0.121085 -3.53593e-22)
(0.796513 -0.176439 -2.62363e-22)
(0.771553 -0.262709 6.59149e-22)
(0.770306 -0.229133 -2.60166e-23)
(0.791791 -0.00062199 -6.73272e-23)
(0.861209 0.400961 -1.16199e-21)
(0.846296 0.40068 2.83506e-21)
(0.82901 0.317197 -2.21683e-21)
(0.822133 0.170455 -7.81127e-22)
(0.832556 -0.00123818 1.57077e-21)
(0.858036 -0.130214 -1.1491e-21)
(0.869927 -0.22768 1.05387e-21)
(0.858668 -0.281127 6.78156e-22)
(0.831517 -0.312327 -1.01142e-22)
(0.817961 -0.280331 3.38105e-22)
(0.816747 -0.175802 8.78153e-23)
(0.822989 -0.0487603 3.66791e-23)
(0.8286 0.125271 6.28454e-23)
(0.834306 0.223062 4.95249e-23)
(0.83703 0.304833 -5.70335e-24)
(0.841491 0.283536 -2.63078e-22)
(0.833249 0.179238 4.8561e-22)
(0.840673 0.0883996 3.6945e-22)
(0.8115 -0.119748 8.10651e-22)
(0.798905 -0.175517 -2.70063e-22)
(0.773633 -0.262075 5.23974e-23)
(0.771822 -0.229663 1.2631e-23)
(0.794319 -0.00114045 2.5408e-24)
(0.86415 0.400801 -3.772e-22)
(0.849634 0.402338 -1.69517e-21)
(0.83237 0.319917 3.49484e-21)
(0.825126 0.173079 -2.56742e-21)
(0.835054 0.000266176 -8.0885e-22)
(0.860461 -0.129535 1.71002e-21)
(0.872793 -0.226726 -4.11203e-22)
(0.861661 -0.279706 -5.19085e-22)
(0.833822 -0.311356 5.86392e-23)
(0.819455 -0.280726 -1.50998e-23)
(0.818106 -0.177087 1.44402e-22)
(0.824632 -0.0504278 -5.74103e-23)
(0.830673 0.123864 -4.56648e-24)
(0.83664 0.222208 -7.50992e-23)
(0.839406 0.304462 4.05828e-23)
(0.843853 0.283982 4.44048e-23)