/*--------------------------------*- C++ -*----------------------------------*\
  =========                 |
  \\      /  F ield         | OpenFOAM: The Open Source CFD Toolbox
   \\    /   O peration     | Website:  https://openfoam.org
    \\  /    A nd           | Version:  7
     \\/     M anipulation  |
\*---------------------------------------------------------------------------*/
FoamFile
{
    version     2.0;
    format      ascii;
    class       surfaceScalarField;
    location    "100";
    object      phi;
}
// * * * * * * * * * * * * * * * * * * * * * * * * * * * * * * * * * * * * * //

dimensions      [0 3 -1 0 0 0 0];

internalField   nonuniform List<scalar> 
8878
(
-0.00417255
-0.000265753
-0.000264055
-0.0040308
-0.00413795
-0.000298654
-0.000225324
-0.00379531
-0.000259737
-0.00389264
-0.000295064
-0.00399547
-0.0041018
-0.000331214
-0.00021807
-0.00367034
-0.00025291
-0.00376047
-0.000288844
-0.00385671
-0.000325723
-0.00395859
-0.0040641
-0.000363422
-0.000208757
-0.00355211
-0.000243838
-0.00363526
-0.000280141
-0.00372417
-0.000317589
-0.00381926
-0.000356019
-0.00392016
-0.00402485
-0.000395266
-0.000197532
-0.00343998
-0.000232772
-0.00351686
-0.000269256
-0.00359877
-0.000307008
-0.00368642
-0.000345961
-0.00378031
-0.000385939
-0.00388018
-0.00398406
-0.000426732
-0.000184461
-0.0033331
-0.000219846
-0.0034046
-0.000256446
-0.00348026
-0.000294316
-0.0035609
-0.000333499
-0.00364723
-0.000373946
-0.00373986
-0.000415469
-0.00383866
-0.00394172
-0.000457807
-0.000169596
-0.00323035
-0.000205109
-0.00329758
-0.000241831
-0.00336788
-0.000279775
-0.00344232
-0.000319012
-0.00352166
-0.000359608
-0.00360664
-0.000401532
-0.00369794
-0.000444594
-0.0037956
-0.00389784
-0.000488476
-0.000153034
-0.00313006
-0.0001886
-0.00319478
-0.00022544
-0.00326074
-0.000263483
-0.00332983
-0.000302755
-0.00340305
-0.000343339
-0.00348108
-0.000385324
-0.00356465
-0.000428706
-0.00365456
-0.000473301
-0.003751
-0.00385242
-0.000518723
-0.000134961
-0.00302933
-0.000170399
-0.00309462
-0.000207297
-0.00315788
-0.000245451
-0.00322259
-0.000284802
-0.00329048
-0.000325384
-0.00336247
-0.000367294
-0.00343917
-0.000410642
-0.0035213
-0.000455458
-0.00360974
-0.000501573
-0.00370489
-0.00380546
-0.000548534
-0.000115699
-0.00292318
-0.000150682
-0.00299435
-0.000187474
-0.00305783
-0.000225686
-0.00311967
-0.000265139
-0.00318314
-0.000305783
-0.00324984
-0.00034766
-0.00332059
-0.000390874
-0.00339596
-0.000435556
-0.00347662
-0.000481777
-0.00356352
-0.000529397
-0.00365727
-0.00375697
-0.000577889
-9.57431e-05
-0.00280367
-0.000129752
-0.00288917
-0.000166131
-0.00295797
-0.000204254
-0.00301971
-0.000243765
-0.00308016
-0.000284502
-0.0031424
-0.000326426
-0.00320791
-0.000369582
-0.00327743
-0.000414078
-0.00335146
-0.000460065
-0.00343063
-0.000507655
-0.00351593
-0.000556758
-0.00360816
-0.00370695
-0.000606775
-7.57773e-05
-0.00265921
-0.000108082
-0.00277136
-0.000143556
-0.0028537
-0.000181304
-0.00292022
-0.000220738
-0.00298027
-0.00026153
-0.00303937
-0.000303538
-0.00310039
-0.000346729
-0.00316472
-0.00039115
-0.00323301
-0.000436909
-0.0033057
-0.000484169
-0.00338337
-0.000533089
-0.00346701
-0.000583647
-0.00355761
-0.00365542
-0.00063518
-5.66544e-05
-0.0024746
-8.63398e-05
-0.00262952
-0.000120202
-0.0027375
-0.000157107
-0.00281679
-0.000196198
-0.00288113
-0.000236922
-0.00293955
-0.00027898
-0.00299731
-0.000322244
-0.00305713
-0.000366692
-0.00312028
-0.000412365
-0.00318734
-0.00045937
-0.0032587
-0.000507873
-0.00333487
-0.000558079
-0.0034168
-0.00061006
-0.00350563
-0.00360238
-0.000663098
-6.53712e-05
-0.00244854
-9.67178e-05
-0.00259818
-0.000132098
-0.00270212
-0.000170402
-0.00277849
-0.00021081
-0.00284072
-0.000252805
-0.00289756
-0.000296111
-0.002954
-0.000340619
-0.00301262
-0.000386311
-0.00307458
-0.000433228
-0.00314042
-0.000481466
-0.00321046
-0.000531188
-0.00328515
-0.000582636
-0.00336535
-0.000636
-0.00345226
-0.00354786
-0.00069052
-4.61313e-05
-0.00221049
-7.39427e-05
-0.00242072
-0.000106907
-0.00256521
-0.000143766
-0.00266526
-0.000183439
-0.00273882
-0.000225139
-0.00279902
-0.000268382
-0.00285431
-0.000312921
-0.00290946
-0.000358658
-0.00296688
-0.000405584
-0.00302766
-0.000453738
-0.00309227
-0.000503202
-0.00316099
-0.000554126
-0.00323423
-0.000606779
-0.0033127
-0.000661486
-0.00339755
-0.00349189
-0.000717457
-2.95525e-05
-0.00189688
-5.28457e-05
-0.0021872
-8.23637e-05
-0.00239121
-0.000116902
-0.00253068
-0.000155204
-0.00262696
-0.000196213
-0.00269781
-0.00023918
-0.00275606
-0.000283652
-0.00280984
-0.000329406
-0.00286371
-0.000376359
-0.00291993
-0.000424509
-0.00297951
-0.000473894
-0.00304288
-0.000524584
-0.0031103
-0.000576703
-0.00318211
-0.000630537
-0.00325887
-0.00068656
-0.00334153
-0.00343446
-0.000743991
-3.44082e-05
-0.00187886
-5.94498e-05
-0.00216215
-9.06296e-05
-0.00236003
-0.000126701
-0.0024946
-0.000166408
-0.00258725
-0.000208723
-0.00265549
-0.000252932
-0.00271185
-0.000298612
-0.00276416
-0.000345562
-0.00281676
-0.000393716
-0.00287177
-0.000443079
-0.00293014
-0.000493691
-0.00299227
-0.000545611
-0.00305838
-0.000598934
-0.00312878
-0.000653949
-0.00320385
-0.000711287
-0.00328419
-0.0033755
-0.00077024
-1.94727e-05
-0.00147926
-3.9192e-05
-0.00185914
-6.5939e-05
-0.00213541
-9.87363e-05
-0.00232723
-0.000136298
-0.00245704
-0.000177375
-0.00254617
-0.000220966
-0.0026119
-0.000266391
-0.00266642
-0.000313257
-0.00271729
-0.000361385
-0.00276863
-0.000410723
-0.00282244
-0.000461287
-0.00287958
-0.000513122
-0.00294044
-0.000566281
-0.00300522
-0.000620838
-0.00307423
-0.000677074
-0.00314762
-0.000735696
-0.00322557
-0.00331496
-0.000796241
-8.61008e-06
-0.000977542
-2.25235e-05
-0.00146535
-4.38997e-05
-0.00183776
-7.23092e-05
-0.002107
-0.00010668
-0.00229286
-0.000145692
-0.00241803
-0.000188102
-0.00250376
-0.000232939
-0.00256706
-0.000279555
-0.00261981
-0.000327585
-0.00266926
-0.000376871
-0.00271935
-0.000427375
-0.00277193
-0.000479123
-0.00282783
-0.000532171
-0.00288739
-0.000586579
-0.00295082
-0.000642432
-0.00301838
-0.000700007
-0.00309004
-0.000759807
-0.00316577
-0.0032525
-0.000822266
-1.01556e-05
-0.000969466
-2.55314e-05
-0.00144997
-4.85274e-05
-0.00181476
-7.85562e-05
-0.00207697
-0.000114457
-0.00225696
-0.000154878
-0.00237761
-0.000198588
-0.00246005
-0.000244641
-0.00252101
-0.000292421
-0.00257203
-0.000341593
-0.00262009
-0.000392015
-0.00266892
-0.000443663
-0.00272028
-0.000496575
-0.00277492
-0.000550817
-0.00283315
-0.000606469
-0.00289516
-0.000663673
-0.00296117
-0.000722777
-0.00303094
-0.00078446
-0.00310409
-0.0031903
-0.000846663
-2.53426e-06
-0.000367925
-1.16788e-05
-0.000960322
-2.84881e-05
-0.00143316
-5.30653e-05
-0.00179019
-8.46702e-05
-0.00204536
-0.000122057
-0.00221957
-0.000163849
-0.00233582
-0.000208823
-0.00241508
-0.000256062
-0.00247377
-0.000304981
-0.00252311
-0.00035527
-0.0025698
-0.000406806
-0.00261739
-0.000459575
-0.00266752
-0.000513625
-0.00272087
-0.00056903
-0.00277774
-0.000625895
-0.0028383
-0.000684426
-0.00290264
-0.000744776
-0.00297059
-0.000806005
-0.00304286
-0.00312172
-0.000874583
-2.98626e-06
-0.000364938
-1.31859e-05
-0.000950122
-3.14013e-05
-0.00141495
-5.75221e-05
-0.00176407
-9.06607e-05
-0.00201223
-0.000129492
-0.00218074
-0.000172615
-0.0022927
-0.000218818
-0.00236888
-0.000267213
-0.00242538
-0.000317245
-0.00247308
-0.000368627
-0.00251842
-0.000421251
-0.00256476
-0.000475117
-0.00261365
-0.000530275
-0.00266571
-0.000586807
-0.00272121
-0.000644828
-0.00278028
-0.000704513
-0.00284296
-0.000765912
-0.00290919
-0.000829089
-0.00297968
-0.00305416
-0.000896654
-3.43313e-06
-0.000361505
-1.4671e-05
-0.000938884
-3.42627e-05
-0.00139536
-6.18887e-05
-0.00173644
-9.65183e-05
-0.0019776
-0.000136752
-0.00214051
-0.000181166
-0.00224828
-0.000228565
-0.00232148
-0.000278087
-0.00237586
-0.000329205
-0.00242196
-0.000381654
-0.00246597
-0.000435343
-0.00251108
-0.000490278
-0.00255872
-0.000546516
-0.00260947
-0.000604141
-0.00266358
-0.000663266
-0.00272115
-0.000724031
-0.00278219
-0.000786509
-0.00284671
-0.000850996
-0.00291519
-0.00298663
-0.000918518
-3.8744e-06
-0.000357631
-1.61323e-05
-0.000926626
-3.70701e-05
-0.00137442
-6.61622e-05
-0.00170735
-0.00010224
-0.00194152
-0.000143833
-0.00209891
-0.000189502
-0.00220261
-0.000238062
-0.00227292
-0.000288681
-0.00232524
-0.000340858
-0.00236978
-0.00039435
-0.00241248
-0.000449078
-0.00245635
-0.000505056
-0.00250274
-0.000562346
-0.00255219
-0.00062103
-0.0026049
-0.000681218
-0.00266096
-0.000743024
-0.00272038
-0.000806546
-0.00278319
-0.000872059
-0.00284968
-0.00291873
-0.000939959
-4.30954e-06
-0.000353321
-1.75685e-05
-0.000913367
-3.9821e-05
-0.00135217
-7.03398e-05
-0.00167683
-0.000107824
-0.00190403
-0.000150736
-0.002056
-0.00019762
-0.00215573
-0.000247309
-0.00222323
-0.000298994
-0.00227355
-0.000352204
-0.00231657
-0.000406712
-0.00235797
-0.000462454
-0.00240061
-0.000519449
-0.00244574
-0.000577761
-0.00249387
-0.000637474
-0.00254519
-0.000698687
-0.00259975
-0.000761505
-0.00265757
-0.000826027
-0.00271867
-0.00089246
-0.00278325
-0.00285024
-0.000960957
-4.73804e-06
-0.000348583
-1.89779e-05
-0.000899128
-4.25132e-05
-0.00132863
-7.44193e-05
-0.00164492
-0.000113267
-0.00186519
-0.000157456
-0.00201181
-0.000205519
-0.00210766
-0.000256303
-0.00217244
-0.000309026
-0.00222083
-0.00036324
-0.00226236
-0.000418739
-0.00230247
-0.000475469
-0.00234388
-0.000533454
-0.00238776
-0.000592761
-0.00243457
-0.000653472
-0.00248448
-0.00071568
-0.00253754
-0.00077948
-0.00259377
-0.000844967
-0.00265318
-0.000912288
-0.00271592
-0.00278102
-0.000981501
-5.15939e-06
-0.000343424
-2.03592e-05
-0.000883928
-4.51447e-05
-0.00130385
-7.83982e-05
-0.00161167
-0.000118567
-0.00182502
-0.000163994
-0.00196639
-0.000213198
-0.00205846
-0.000265043
-0.0021206
-0.000318775
-0.0021671
-0.000373967
-0.00220717
-0.00043043
-0.00224601
-0.000488121
-0.00228619
-0.000547071
-0.00232881
-0.000607345
-0.00237429
-0.000669025
-0.0024228
-0.0007322
-0.00247437
-0.000796957
-0.00252901
-0.000863381
-0.00258676
-0.000931583
-0.00264772
-0.00271102
-5.57309e-06
-0.000337851
-2.1711e-05
-0.00086779
-4.77135e-05
-0.00127784
-8.22745e-05
-0.00157711
-0.000123723
-0.00178357
-0.000170346
-0.00191976
-0.000220655
-0.00200815
-0.00027353
-0.00206772
-0.00032824
-0.00211239
-0.000384382
-0.00215102
-0.000441785
-0.00218861
-0.000500411
-0.00222756
-0.000560298
-0.00226892
-0.000621513
-0.00231308
-0.000684135
-0.00236017
-0.00074825
-0.00241025
-0.00081394
-0.00246332
-0.000881281
-0.00251942
-0.000950363
-0.00257864
-0.00264019
-5.97866e-06
-0.000331872
-2.30321e-05
-0.000850737
-5.02179e-05
-0.00125066
-8.60463e-05
-0.00154128
-0.000128732
-0.00174088
-0.000176512
-0.00187198
-0.00022789
-0.00195677
-0.000281761
-0.00201385
-0.000337421
-0.00205673
-0.000394486
-0.00209396
-0.000452801
-0.00213029
-0.000512337
-0.00216802
-0.000573136
-0.00220812
-0.000635265
-0.00225095
-0.000698803
-0.00229663
-0.000763833
-0.00234522
-0.000830433
-0.00239672
-0.000898675
-0.00245117
-0.000968634
-0.00250868
-0.00256849
-6.37562e-06
-0.000325497
-2.43213e-05
-0.000832791
-5.26562e-05
-0.00122232
-8.97117e-05
-0.00150422
-0.000133594
-0.001697
-0.000182491
-0.00182308
-0.000234901
-0.00190436
-0.000289737
-0.00195902
-0.000346316
-0.00200015
-0.000404278
-0.002036
-0.000463478
-0.00207109
-0.000523899
-0.0021076
-0.000585583
-0.00214644
-0.0006486
-0.00218793
-0.00071303
-0.00223221
-0.000778951
-0.0022793
-0.00084644
-0.00232923
-0.000915565
-0.00238205
-0.000986399
-0.00243785
-6.76354e-06
-0.000318733
-2.55775e-05
-0.000813977
-5.50268e-05
-0.00119287
-9.32693e-05
-0.00146598
-0.000138307
-0.00165196
-0.000188282
-0.00177311
-0.000241688
-0.00185096
-0.000297457
-0.00190325
-0.000354926
-0.00194268
-0.000413756
-0.00197717
-0.000473816
-0.00201103
-0.000535094
-0.00204632
-0.000597639
-0.00208389
-0.000661519
-0.00212405
-0.000726814
-0.00216691
-0.000793603
-0.00221251
-0.000861961
-0.00226087
-0.000931954
-0.00231206
-0.00236615
-7.14199e-06
-0.000311591
-2.67997e-05
-0.000794319
-5.73283e-05
-0.00116234
-9.67174e-05
-0.00142659
-0.000142869
-0.00160581
-0.000193883
-0.0017221
-0.000248251
-0.00179659
-0.000304919
-0.00184658
-0.000363251
-0.00188435
-0.000422921
-0.0019175
-0.000483814
-0.00195014
-0.000545924
-0.00198421
-0.000609302
-0.00202051
-0.000674021
-0.00205933
-0.000740157
-0.00210077
-0.000807791
-0.00214488
-0.000876996
-0.00219167
-0.000947841
-0.00224121
-0.00229359
-7.51056e-06
-0.00030408
-2.79869e-05
-0.000773843
-5.95594e-05
-0.00113077
-0.000100055
-0.0013861
-0.000147279
-0.00155859
-0.000199293
-0.00167008
-0.000254588
-0.00174129
-0.000312125
-0.00178904
-0.000371288
-0.00182518
-0.000431773
-0.00185701
-0.000493471
-0.00188844
-0.000556387
-0.0019213
-0.000620574
-0.00195633
-0.000686104
-0.0019938
-0.000753057
-0.00203382
-0.000821512
-0.00207642
-0.000891544
-0.00212164
-0.000963222
-0.00216953
-7.86888e-06
-0.000296212
-2.9138e-05
-0.000752574
-6.17187e-05
-0.00109819
-0.00010328
-0.00134454
-0.000151536
-0.00151033
-0.000204513
-0.0016171
-0.000260698
-0.00168511
-0.000319073
-0.00173067
-0.000379039
-0.00176522
-0.000440309
-0.00179574
-0.000502788
-0.00182596
-0.000566483
-0.0018576
-0.000631452
-0.00189136
-0.000697769
-0.00192749
-0.000765514
-0.00196608
-0.000834767
-0.00200717
-0.000905603
-0.0020508
-0.00209704
-8.21657e-06
-0.000287995
-3.02524e-05
-0.000730538
-6.38052e-05
-0.00106464
-0.000106392
-0.00130195
-0.00015564
-0.00146108
-0.000209541
-0.0015632
-0.000266583
-0.00162807
-0.000325762
-0.00167149
-0.000386503
-0.00170448
-0.000448531
-0.00173371
-0.000511762
-0.00176273
-0.00057621
-0.00179315
-0.000641935
-0.00182563
-0.000709013
-0.00186041
-0.000777525
-0.00189756
-0.000847552
-0.00193714
-0.00091917
-0.00197918
-0.00202375
-8.55328e-06
-0.000279442
-3.13291e-05
-0.000707762
-6.58177e-05
-0.00103015
-0.000109389
-0.00125838
-0.000159589
-0.00141088
-0.000214376
-0.00150842
-0.00027224
-0.0015702
-0.000332194
-0.00161154
-0.000393678
-0.00164299
-0.000456437
-0.00167096
-0.000520393
-0.00169877
-0.000585568
-0.00172798
-0.000652023
-0.00175918
-0.000719837
-0.00179259
-0.00078909
-0.00182831
-0.000859865
-0.00186637
-0.000932243
-0.0019068
-0.0019497
-8.8787e-06
-0.000270563
-3.23675e-05
-0.000684273
-6.77552e-05
-0.000994763
-0.000112271
-0.00121386
-0.000163382
-0.00135977
-0.000219018
-0.00145278
-0.00027767
-0.00151155
-0.000338366
-0.00155084
-0.000400566
-0.00158079
-0.000464026
-0.0016075
-0.000528682
-0.00163412
-0.000594556
-0.0016621
-0.000661714
-0.00169202
-0.000730237
-0.00172407
-0.000800206
-0.00175834
-0.000871705
-0.00179487
-0.000944817
-0.00183369
-9.19251e-06
-0.00026137
-3.33666e-05
-0.000660099
-6.96167e-05
-0.000958513
-0.000115037
-0.00116844
-0.00016702
-0.00130779
-0.000223467
-0.00139633
-0.000282872
-0.00145215
-0.000344279
-0.00148943
-0.000407165
-0.00151791
-0.000471299
-0.00154336
-0.000536625
-0.00156879
-0.000603172
-0.00159556
-0.000671007
-0.00162419
-0.000740212
-0.00165487
-0.00081087
-0.00168768
-0.000883068
-0.00172267
-0.00175987
-9.49441e-06
-0.000251876
-3.4326e-05
-0.000635268
-7.14013e-05
-0.000921437
-0.000117686
-0.00112216
-0.0001705
-0.00125498
-0.000227721
-0.00133911
-0.000287846
-0.00139202
-0.000349933
-0.00142735
-0.000413475
-0.00145437
-0.000478255
-0.00147858
-0.000544224
-0.00150282
-0.000611416
-0.00152837
-0.000679901
-0.0015557
-0.00074976
-0.00158501
-0.000821082
-0.00161636
-0.000893952
-0.0016498
-0.00168537
-9.78412e-06
-0.000242092
-3.52448e-05
-0.000609807
-7.31082e-05
-0.000883574
-0.000120216
-0.00107505
-0.000173822
-0.00120137
-0.00023178
-0.00128115
-0.000292591
-0.00133121
-0.000355326
-0.00136461
-0.000419495
-0.0013902
-0.000484893
-0.00141318
-0.000551477
-0.00143624
-0.000619286
-0.00146056
-0.000688393
-0.00148659
-0.000758881
-0.00151452
-0.000830838
-0.0015444
-0.000904352
-0.00157629
-0.00161021
-1.00614e-05
-0.000232031
-3.61226e-05
-0.000583746
-7.47366e-05
-0.00084496
-0.000122627
-0.00102716
-0.000176986
-0.00114701
-0.000235645
-0.0012225
-0.000297107
-0.00126975
-0.000360459
-0.00130126
-0.000425225
-0.00132543
-0.000491212
-0.0013472
-0.000558383
-0.00136907
-0.000626782
-0.00139216
-0.000696482
-0.00141689
-0.00076757
-0.00144343
-0.000840135
-0.00147184
-0.000914267
-0.00150215
-1.03259e-05
-0.000221705
-3.69588e-05
-0.000557113
-7.62858e-05
-0.000805633
-0.000124919
-0.000978526
-0.000179991
-0.00109194
-0.000239313
-0.00116317
-0.000301393
-0.00120767
-0.000365332
-0.00123732
-0.000430665
-0.0012601
-0.000497211
-0.00128065
-0.000564941
-0.00130134
-0.000633901
-0.0013232
-0.000704168
-0.00134663
-0.000775828
-0.00137177
-0.000848972
-0.00139869
-0.00142743
-1.05775e-05
-0.000211127
-3.77527e-05
-0.000529938
-7.7755e-05
-0.000765631
-0.000127091
-0.00092919
-0.000182836
-0.00103619
-0.000242786
-0.00110322
-0.00030545
-0.001145
-0.000369943
-0.00117283
-0.000435814
-0.00119423
-0.00050289
-0.00121357
-0.00057115
-0.00123308
-0.000640643
-0.0012537
-0.000711447
-0.00127582
-0.000783651
-0.00129957
-0.000857346
-0.001325
-0.00135215
-1.0816e-05
-0.000200311
-3.8504e-05
-0.00050225
-7.91437e-05
-0.000724991
-0.000129142
-0.000879192
-0.000185522
-0.000979815
-0.000246062
-0.00104268
-0.000309277
-0.00108179
-0.000374292
-0.00110781
-0.000440671
-0.00112785
-0.000508249
-0.001146
-0.00057701
-0.00116432
-0.000647006
-0.00118371
-0.000718319
-0.00120451
-0.000791037
-0.00122685
-0.000865255
-0.00125078
-0.00127634
-1.10411e-05
-0.00018927
-3.92121e-05
-0.000474079
-8.04511e-05
-0.000683752
-0.000131071
-0.000828572
-0.000188047
-0.000922839
-0.000249141
-0.000981589
-0.000312873
-0.00101806
-0.00037838
-0.00104231
-0.000445236
-0.00106099
-0.000513286
-0.00107795
-0.000582519
-0.00109508
-0.00065299
-0.00111324
-0.000724782
-0.00113272
-0.000797985
-0.00115365
-0.000872696
-0.00117607
-0.00120003
-1.12526e-05
-0.000178017
-3.98766e-05
-0.000445455
-8.16768e-05
-0.000641952
-0.000132878
-0.000777371
-0.00019041
-0.000865306
-0.000252023
-0.000919976
-0.000316238
-0.000953842
-0.000382205
-0.000976339
-0.000449508
-0.000993688
-0.000518
-0.00100945
-0.000587676
-0.00102541
-0.000658592
-0.00104232
-0.000730834
-0.00106048
-0.000804494
-0.00107999
-0.000879667
-0.0011009
-1.14503e-05
-0.000166567
-4.04971e-05
-0.000416408
-8.28202e-05
-0.000599629
-0.000134563
-0.000725629
-0.000192613
-0.000807256
-0.000254707
-0.000857882
-0.000319372
-0.000889177
-0.000385767
-0.000909945
-0.000453487
-0.000925968
-0.000522392
-0.000940548
-0.00059248
-0.00095532
-0.000663813
-0.000970987
-0.000736475
-0.000987816
-0.00081056
-0.0010059
-0.00102529
-1.16342e-05
-0.000154933
-4.10732e-05
-0.000386969
-8.38808e-05
-0.000556821
-0.000136124
-0.000673385
-0.000194653
-0.000748727
-0.000257193
-0.000795342
-0.000322275
-0.000824095
-0.000389066
-0.000843154
-0.000457172
-0.000857862
-0.000526459
-0.00087126
-0.000596931
-0.000884848
-0.000668649
-0.000899269
-0.000741701
-0.000914764
-0.000816182
-0.000931421
-0.000949284
-1.18039e-05
-0.000143129
-4.16045e-05
-0.000357168
-8.48581e-05
-0.000513567
-0.000137562
-0.000620681
-0.000196531
-0.000689758
-0.000259481
-0.000732393
-0.000324945
-0.000758631
-0.000392101
-0.000775998
-0.000460562
-0.0007894
-0.000530203
-0.00080162
-0.000601027
-0.000814024
-0.000673102
-0.000827195
-0.000746514
-0.000841352
-0.000821359
-0.000856576
-0.000872905
-1.19594e-05
-0.00013117
-4.20907e-05
-0.000327037
-8.57517e-05
-0.000469906
-0.000138876
-0.000567557
-0.000198247
-0.000630387
-0.00026157
-0.00066907
-0.000327383
-0.000692818
-0.000394872
-0.000708509
-0.000463658
-0.000720614
-0.000533621
-0.000731658
-0.000604768
-0.000742876
-0.000677168
-0.000754795
-0.000750909
-0.00076761
-0.000826089
-0.000781396
-0.000796187
-1.21006e-05
-0.000119069
-4.25316e-05
-0.000296606
-8.65613e-05
-0.000425877
-0.000140066
-0.000514052
-0.000199799
-0.000570654
-0.00026346
-0.00060541
-0.000329589
-0.000626689
-0.000397379
-0.000640719
-0.000466459
-0.000651534
-0.000536713
-0.000661404
-0.000608153
-0.000671436
-0.000680848
-0.0006821
-0.000754888
-0.00069357
-0.000830371
-0.000705913
-0.00071916
-1.22273e-05
-0.000106842
-4.29268e-05
-0.000265906
-8.72865e-05
-0.000381517
-0.000141131
-0.000460208
-0.000201188
-0.000510596
-0.00026515
-0.000541448
-0.000331561
-0.000560278
-0.000399621
-0.00057266
-0.000468964
-0.000582191
-0.000539479
-0.000590888
-0.000611181
-0.000599734
-0.00068414
-0.000609141
-0.000758448
-0.000619263
-0.000834202
-0.000630158
-0.000641857
-1.23393e-05
-9.45024e-05
-4.32761e-05
-0.00023497
-8.7927e-05
-0.000336866
-0.000142071
-0.000406064
-0.000202414
-0.000450253
-0.000266641
-0.00047722
-0.000333301
-0.000493618
-0.000401598
-0.000504363
-0.000471173
-0.000512615
-0.000541918
-0.000520143
-0.000613852
-0.000527801
-0.000687044
-0.000535948
-0.000761588
-0.000544719
-0.000837583
-0.000554164
-0.000564309
-1.24367e-05
-8.20657e-05
-4.35793e-05
-0.000203827
-8.84824e-05
-0.000291963
-0.000142885
-0.000351661
-0.000203476
-0.000389663
-0.000267933
-0.000412763
-0.000334807
-0.000426744
-0.000403309
-0.000435861
-0.000473085
-0.00044284
-0.00054403
-0.000449198
-0.000616164
-0.000455667
-0.000689559
-0.000462553
-0.000764308
-0.000469969
-0.000840511
-0.00047796
-0.000486548
-1.25193e-05
-6.95464e-05
-4.38361e-05
-0.00017251
-8.89526e-05
-0.000246846
-0.000143575
-0.000297039
-0.000204373
-0.000328864
-0.000269024
-0.000348113
-0.000336079
-0.000359688
-0.000404755
-0.000367185
-0.0004747
-0.000372894
-0.000545814
-0.000378084
-0.000618117
-0.000383364
-0.000691683
-0.000388986
-0.000766606
-0.000395046
-0.000842987
-0.00040158
-0.000408607
-1.2587e-05
-5.69593e-05
-4.40465e-05
-0.000141051
-8.93373e-05
-0.000201556
-0.000144138
-0.000242239
-0.000205106
-0.000267896
-0.000269914
-0.000283304
-0.000337118
-0.000292485
-0.000405934
-0.000298368
-0.000476018
-0.00030281
-0.000547269
-0.000306833
-0.000619711
-0.000310922
-0.000693417
-0.00031528
-0.000768483
-0.000319981
-0.000845007
-0.000325055
-0.000330519
-1.26399e-05
-4.43194e-05
-4.42103e-05
-0.00010948
-8.96363e-05
-0.00015613
-0.000144575
-0.0001873
-0.000205675
-0.000206796
-0.000270605
-0.000218374
-0.000337922
-0.000225168
-0.000406848
-0.000229443
-0.000477038
-0.00023262
-0.000548396
-0.000235475
-0.000620945
-0.000238373
-0.00069476
-0.000241465
-0.000769936
-0.000244805
-0.000846573
-0.000248418
-1.26777e-05
-3.16417e-05
-4.43273e-05
-7.78308e-05
-8.98495e-05
-0.000110607
-0.000144886
-0.000132263
-0.000206079
-0.000145604
-0.000271095
-0.000153358
-0.000338492
-0.000157771
-0.000407495
-0.00016044
-0.000477761
-0.000162354
-0.000549194
-0.000164042
-0.000621819
-0.000165748
-0.000695711
-0.000167572
-0.000770966
-0.000169551
-0.0001717
-1.27006e-05
-1.89411e-05
-4.43976e-05
-4.61338e-05
-8.99767e-05
-6.50283e-05
-0.000145071
-7.71683e-05
-0.000206318
-8.43577e-05
-0.000271384
-8.82924e-05
-0.000338828
-9.03266e-05
-0.000407875
-9.13924e-05
-0.000478185
-9.20438e-05
-0.000549663
-9.25644e-05
-0.000622332
-9.30786e-05
-0.000696271
-9.36344e-05
-0.000771572
-9.42497e-05
-9.49334e-05
-1.27084e-05
-6.23266e-06
-4.44209e-05
-1.44213e-05
-9.0018e-05
-1.94312e-05
-0.00014513
-2.20565e-05
-0.000206392
-2.30957e-05
-0.000271472
-2.32125e-05
-0.000338929
-2.28696e-05
-0.000407989
-2.23324e-05
-0.000478311
-2.17212e-05
-0.000549802
-2.1074e-05
-0.000622485
-2.03953e-05
-0.000696437
-1.96821e-05
-0.000771754
-1.89334e-05
-1.81512e-05
-1.27012e-05
6.46858e-06
-4.43974e-05
1.72748e-05
-8.99731e-05
2.61445e-05
-0.000145062
3.30321e-05
-0.000206301
3.81433e-05
-0.000271359
4.18454e-05
-0.000338795
4.45667e-05
-0.000407835
4.67079e-05
-0.000478139
4.85825e-05
-0.000549611
5.0398e-05
-0.000622276
5.22702e-05
-0.000696211
5.42529e-05
-0.000771511
5.63661e-05
5.86146e-05
-1.26791e-05
1.91476e-05
-4.4327e-05
4.89228e-05
-8.98423e-05
7.16598e-05
-0.000144867
8.80573e-05
-0.000206045
9.93208e-05
-0.000271045
0.000106845
-0.000338427
0.000111948
-0.000407415
0.000115696
-0.000477668
0.000118836
-0.000549091
0.00012182
-0.000621707
0.000124887
-0.000695593
0.000128139
-0.000770844
0.000131617
0.000135332
-1.26419e-05
3.17895e-05
-4.42098e-05
8.04908e-05
-8.96255e-05
0.000117075
-0.000144547
0.000142979
-0.000205624
0.000160398
-0.00027053
0.000171751
-0.000337823
0.000179242
-0.000406728
0.0001846
-0.000476899
0.000189007
-0.00054824
0.000193162
-0.000620776
0.000197422
-0.000694582
0.000201945
-0.000769752
0.000206787
0.000211968
-1.25897e-05
4.43792e-05
-4.40458e-05
0.000111947
-8.93226e-05
0.000162352
-0.0001441
0.000197755
-0.000205038
0.000221336
-0.000269814
0.000236527
-0.000336985
0.000246414
-0.000405773
0.000253388
-0.000475831
0.000259065
-0.00054706
0.000264391
-0.000619484
0.000269846
-0.000693178
0.000275638
-0.000768235
0.000281844
-0.000844758
0.000288491
0.000295587
-1.25225e-05
5.69017e-05
-4.38349e-05
0.000143259
-8.89338e-05
0.000207451
-0.000143526
0.000252348
-0.000204287
0.000282097
-0.000268897
0.000301137
-0.000335912
0.000313429
-0.000404551
0.000322027
-0.000474464
0.000328978
-0.00054555
0.000335478
-0.000617831
0.000342127
-0.000691381
0.000349188
-0.000766295
0.000356757
-0.000842672
0.000364868
0.000373533
-1.24404e-05
6.93421e-05
-4.35775e-05
0.000174396
-8.84592e-05
0.000252333
-0.000142826
0.000306714
-0.000203371
0.000342642
-0.000267778
0.000365545
-0.000334605
0.000380255
-0.000403062
0.000390484
-0.000472799
0.000398715
-0.000543711
0.000406389
-0.000615817
0.000414234
-0.000689192
0.000422563
-0.00076393
0.000431495
-0.000840129
0.000441068
0.0004513
-1.23435e-05
8.16856e-05
-4.32735e-05
0.000205326
-8.78989e-05
0.000296958
-0.000142
0.000360815
-0.000202289
0.000402931
-0.000266459
0.000429715
-0.000333062
0.000446858
-0.000401306
0.000458729
-0.000470835
0.000468244
-0.000541541
0.000477095
-0.000613443
0.000486135
-0.000686611
0.000495732
-0.000761141
0.000506024
-0.000837131
0.000517058
0.000528854
-1.22318e-05
9.39174e-05
-4.29231e-05
0.000236018
-8.72531e-05
0.000341288
-0.000141048
0.00041461
-0.000201044
0.000462927
-0.000264939
0.00049361
-0.000331284
0.000513204
-0.000399283
0.000526728
-0.000468573
0.000537533
-0.000539042
0.000547565
-0.000610707
0.0005578
-0.000683639
0.000568664
-0.000757929
0.000580314
-0.000833677
0.000592807
0.000606164
-1.21054e-05
0.000106023
-4.25266e-05
0.000266439
-8.65222e-05
0.000385284
-0.00013997
0.000468058
-0.000199633
0.00052259
-0.000263217
0.000557194
-0.000329272
0.000579258
-0.000396993
0.000594449
-0.000466013
0.000606553
-0.000536214
0.000617767
-0.000607612
0.000629198
-0.000680275
0.000641326
-0.000754294
0.000654333
-0.00082977
0.000668282
0.000683198
-1.19645e-05
0.000117987
-4.20842e-05
0.000296559
-8.57062e-05
0.000428906
-0.000138767
0.000521119
-0.000198058
0.000581881
-0.000261295
0.000620432
-0.000327025
0.000644988
-0.000394436
0.000661861
-0.000463154
0.00067527
-0.000533058
0.00068767
-0.000604157
0.000700297
-0.00067652
0.00071369
-0.000750238
0.000728051
-0.000825408
0.000743452
0.000759923
-1.18091e-05
0.000129796
-4.1596e-05
0.000326345
-8.48055e-05
0.000472115
-0.000137438
0.000573751
-0.000196318
0.000640761
-0.000259172
0.000683286
-0.000324543
0.000710359
-0.000391613
0.000728931
-0.000459998
0.000743655
-0.000529572
0.000757244
-0.000600343
0.000771068
-0.000672375
0.000785723
-0.00074576
0.000801436
-0.000820594
0.000818286
0.000836307
-1.16393e-05
0.000141436
-4.10624e-05
0.000355769
-8.38206e-05
0.000514874
-0.000135984
0.000625915
-0.000194415
0.000699191
-0.000256849
0.00074572
-0.000321827
0.000775337
-0.000388523
0.000795626
-0.000456544
0.000811676
-0.000525758
0.000826459
-0.000596169
0.000841479
-0.000667841
0.000857394
-0.000740862
0.000874456
-0.000815328
0.000892753
0.000912319
-1.14553e-05
0.000152891
-4.04836e-05
0.000384797
-8.27516e-05
0.000557142
-0.000134406
0.00067757
-0.000192348
0.000757133
-0.000254326
0.000807698
-0.000318877
0.000839889
-0.000385167
0.000861916
-0.000452793
0.000879302
-0.000521617
0.000895283
-0.000591638
0.0009115
-0.000662919
0.000928675
-0.000735545
0.000947082
-0.000809612
0.00096682
0.000987927
-1.12573e-05
0.000164148
-3.986e-05
0.0004134
-8.1599e-05
0.00059888
-0.000132703
0.000728674
-0.000190117
0.000814546
-0.000251602
0.000869183
-0.000315693
0.00090398
-0.000381544
0.000927767
-0.000448744
0.000946503
-0.000517148
0.000963686
-0.000586749
0.000981101
-0.000657608
0.000999533
-0.000729809
0.00101928
-0.000803447
0.00104046
0.0010631
-1.10454e-05
0.000175194
-3.9192e-05
0.000441546
-8.03633e-05
0.000640052
-0.000130877
0.000779188
-0.000187723
0.000871392
-0.000248678
0.000930139
-0.000312275
0.000967576
-0.000377656
0.000993148
-0.000444399
0.00101325
-0.000512352
0.00103164
-0.000581503
0.00105025
-0.00065191
0.00106994
-0.000723656
0.00109103
-0.000796835
0.00111364
-0.000871543
0.00113781
0.00116357
-1.08198e-05
0.000186014
-3.84799e-05
0.000469206
-7.9045e-05
0.000680617
-0.000128927
0.00082907
-0.000185165
0.00092763
-0.000245555
0.000990529
-0.000308623
0.00103064
-0.000373501
0.00105803
-0.000439758
0.0010795
-0.00050723
0.00109911
-0.000575901
0.00111892
-0.000645826
0.00113987
-0.000717087
0.00116229
-0.000789776
0.00118633
-0.000863988
0.00121202
0.00123941
-1.05807e-05
0.000196594
-3.77242e-05
0.00049635
-7.76446e-05
0.000720537
-0.000126854
0.000878279
-0.000182446
0.000983222
-0.000242232
0.00105031
-0.000304737
0.00109315
-0.000369082
0.00112237
-0.00043482
0.00114524
-0.000501781
0.00116607
-0.000569943
0.00118709
-0.000639357
0.00120928
-0.000710103
0.00123304
-0.000782272
0.00125849
-0.000855959
0.00128571
0.00131471
-1.03282e-05
0.000206922
-3.69253e-05
0.000522947
-7.61626e-05
0.000759774
-0.000124659
0.000926775
-0.000179564
0.00103813
-0.00023871
0.00110946
-0.000300618
0.00115506
-0.000364396
0.00118615
-0.000429587
0.00121043
-0.000496007
0.00123249
-0.000563631
0.00125471
-0.000632504
0.00127815
-0.000702706
0.00130324
-0.000774325
0.00133011
-0.000847456
0.00135884
0.00138944
-1.00627e-05
0.000216985
-3.60838e-05
0.000548968
-7.45996e-05
0.00079829
-0.000122342
0.000974518
-0.000176521
0.00109231
-0.000234989
0.00116793
-0.000296266
0.00121633
-0.000359446
0.00124933
-0.000424058
0.00127504
-0.000489908
0.00129834