/*--------------------------------*- C++ -*----------------------------------*\
  =========                 |
  \\      /  F ield         | OpenFOAM: The Open Source CFD Toolbox
   \\    /   O peration     | Website:  https://openfoam.org
    \\  /    A nd           | Version:  7
     \\/     M anipulation  |
\*---------------------------------------------------------------------------*/
FoamFile
{
    version     2.0;
    format      ascii;
    class       volVectorField;
    location    "100";
    object      U;
}
// * * * * * * * * * * * * * * * * * * * * * * * * * * * * * * * * * * * * * //

dimensions      [0 1 -1 0 0 0 0];

internalField   nonuniform List<vector> 
4575
(
(1.17137 0.333976 -3.00716e-20)
(1.16896 0.353308 1.09187e-19)
(1.16209 0.337812 -1.05253e-19)
(1.17114 0.394085 -1.2419e-19)
(1.1648 0.374959 5.84768e-20)
(1.15899 0.357152 1.23019e-20)
(1.15263 0.341396 1.08287e-19)
(1.16667 0.418791 -8.12971e-20)
(1.15984 0.398317 2.3967e-19)
(1.15407 0.378818 -9.68598e-21)
(1.14882 0.360719 -3.62135e-20)
(1.14299 0.344718 1.73698e-20)
(1.16189 0.445138 1.32402e-19)
(1.15458 0.423109 -8.2485e-20)
(1.14832 0.402235 -1.18296e-19)
(1.14312 0.382377 3.42462e-20)
(1.13845 0.364001 -8.57293e-20)
(1.13319 0.34777 -6.38597e-20)
(1.15658 0.473169 -7.4386e-20)
(1.14897 0.449535 -2.27098e-20)
(1.14226 0.427084 -9.41217e-21)
(1.13658 0.405827 -6.3987e-21)
(1.13197 0.385625 1.20552e-21)
(1.1279 0.366986 -6.90993e-20)
(1.12322 0.350542 4.5285e-20)
(1.15044 0.502873 1.85756e-19)
(1.14276 0.477637 -5.03342e-20)
(1.1358 0.453557 -5.47848e-21)
(1.12972 0.430704 1.0322e-19)
(1.12463 0.409082 3.03874e-20)
(1.12062 0.388553 9.08761e-20)
(1.11716 0.369666 1.13371e-19)
(1.11309 0.353026 2.58544e-20)
(1.14304 0.534157 2.6708e-20)
(1.13565 0.507404 5.08348e-20)
(1.12869 0.481691 1.00381e-19)
(1.12242 0.45719 1.34692e-20)
(1.11698 0.433958 2.93116e-20)
(1.11249 0.41199 -8.86478e-20)
(1.10909 0.391151 6.31819e-20)
(1.10624 0.372031 -8.58301e-20)
(1.10281 0.355214 -2.11925e-20)
(1.1337 0.566707 -2.32024e-19)
(1.12721 0.538754 -2.69527e-19)
(1.12059 0.511476 -1.26781e-19)
(1.11438 0.485315 -1.40439e-19)
(1.10883 0.46042 -1.73852e-20)
(1.10404 0.436835 -1.48503e-20)
(1.10017 0.414543 -2.44027e-20)
(1.09738 0.393412 -2.97222e-20)
(1.09515 0.374074 -1.23528e-19)
(1.09238 0.357096 5.39442e-20)
(1.12132 0.59976 -3.71472e-20)
(1.11683 0.571391 1.68089e-19)
(1.1111 0.54284 2.45637e-19)
(1.10528 0.515074 4.17849e-20)
(1.09986 0.488497 1.75597e-19)
(1.09504 0.463237 -9.52561e-21)
(1.09094 0.439323 1.01433e-19)
(1.08769 0.416729 -3.56828e-20)
(1.0855 0.395327 -4.52738e-20)
(1.08389 0.375786 6.86132e-20)
(1.08181 0.358666 1.92936e-20)
(1.10401 0.631762 6.85173e-20)
(1.10344 0.604584 1.06637e-19)
(1.09964 0.575506 6.81233e-20)
(1.09473 0.5464 -1.78915e-19)
(1.08974 0.518183 -1.40238e-19)
(1.08513 0.491223 -8.82118e-20)
(1.08108 0.465628 -1.63148e-19)
(1.07767 0.441413 -4.02414e-20)
(1.07506 0.418541 -3.15363e-20)
(1.07348 0.39689 -7.20716e-21)
(1.07248 0.37716 4.03583e-20)
(1.0711 0.359913 -5.24353e-21)
(1.07871 0.659921 -9.34146e-20)
(1.08525 0.636817 -3.43129e-19)
(1.08521 0.608771 -2.4433e-19)
(1.08217 0.579036 -7.47369e-20)
(1.07811 0.549421 1.16232e-19)
(1.07399 0.52079 9.36913e-20)
(1.07022 0.493481 -1.07871e-21)
(1.06696 0.467581 8.31563e-20)
(1.06427 0.443093 -1.76666e-20)
(1.0623 0.41997 2.99045e-20)
(1.06133 0.398093 1.65587e-20)
(1.06093 0.378187 1.6648e-20)
(1.06026 0.360828 -2.30475e-20)
(1.0409 0.679729 -1.10392e-19)
(1.05935 0.665336 1.91557e-19)
(1.06611 0.64116 2.0588e-19)
(1.06667 0.612307 7.4433e-20)
(1.06443 0.581969 7.24293e-20)
(1.06127 0.551888 -3.634e-20)
(1.05805 0.522882 -2.09782e-20)
(1.05515 0.495258 -1.17966e-20)
(1.05269 0.469084 1.09312e-19)
(1.05074 0.444353 3.44942e-20)
(1.04943 0.421006 3.00665e-20)
(1.04906 0.398929 2.70431e-20)
(1.04925 0.378862 -4.62942e-20)
(1.04931 0.3614 -8.71046e-21)
(0.984409 0.684598 -5.99103e-20)
(1.02134 0.685643 3.05363e-20)
(1.03953 0.669957 -1.86185e-20)
(1.0466 0.644776 1.86016e-19)
(1.04783 0.615179 -1.71663e-19)
(1.04646 0.584289 -2.61938e-20)
(1.04422 0.553789 -4.20999e-21)
(1.04194 0.524447 3.58553e-20)
(1.03993 0.496543 8.10441e-20)
(1.03831 0.470128 -9.08393e-20)
(1.03711 0.445184 -3.376e-20)
(1.03648 0.421641 -3.18382e-20)
(1.03671 0.399393 -3.29728e-20)
(1.03745 0.379176 1.35143e-22)
(1.03825 0.361616 5.68161e-21)
(0.965249 0.69111 -2.01848e-20)
(1.00125 0.690685 -7.37216e-20)
(1.01929 0.67377 -2.11432e-20)
(1.02676 0.647653 -1.7075e-19)
(1.02874 0.617372 2.3972e-19)
(1.02827 0.585986 6.5976e-21)
(1.027 0.555112 6.91498e-20)
(1.02567 0.525475 1.32069e-20)
(1.02458 0.497324 1.3825e-21)
(1.02381 0.4707 7.1661e-20)
(1.0234 0.445573 2.8214e-20)
(1.02347 0.421865 2.36939e-21)
(1.02429 0.399476 -7.2787e-21)
(1.02557 0.37912 1.58844e-20)
(1.02712 0.361457 -6.18944e-21)
(0.883715 0.672904 -1.02732e-19)
(0.945483 0.696684 -8.16893e-20)
(0.980685 0.694838 -6.8373e-20)
(0.998681 0.676763 1.03747e-19)
(1.00664 0.649777 -1.08289e-20)
(1.00942 0.618877 -1.3848e-19)
(1.0099 0.587048 9.29973e-20)
(1.00962 0.555847 2.857e-20)
(1.00927 0.525953 -5.24447e-20)
(1.00911 0.497593 -1.78125e-20)
(1.00923 0.470792 -1.29369e-20)
(1.00963 0.445511 -8.50195e-21)
(1.01041 0.421666 -7.49209e-22)
(1.01183 0.399168 1.93179e-20)
(1.01363 0.378678 -2.25696e-20)
(1.01595 0.360893 6.21335e-21)
(0.768718 0.620426 2.39013e-21)
(0.865036 0.679005 1.0603e-19)
(0.925164 0.701301 1.4199e-19)
(0.959683 0.698089 9.00619e-20)
(0.977739 0.678921 -4.51787e-20)
(0.986265 0.651138 7.4412e-20)
(0.989894 0.619681 -3.00412e-20)
(0.991368 0.587465 -1.0321e-19)
(0.992109 0.555983 -4.45619e-20)
(0.992757 0.525874 -1.181e-20)
(0.993554 0.497339 -2.19372e-20)
(0.994564 0.470392 -2.07476e-21)
(0.995797 0.444986 2.60306e-21)
(0.997336 0.421034 -6.77905e-21)
(0.999364 0.39846 1.90403e-20)
(1.00165 0.377831 4.32321e-20)
(1.00474 0.359876 3.84381e-20)
(0.752055 0.626824 -1.57095e-19)
(0.845743 0.684114 -5.01531e-20)
(0.904345 0.704946 1.1728e-19)
(0.938294 0.700424 -1.60244e-19)
(0.956507 0.680236 -1.32966e-19)
(0.965669 0.651726 -6.12395e-20)
(0.970205 0.619776 9.25981e-20)
(0.972701 0.587228 3.5517e-20)
(0.974486 0.555513 3.2782e-20)
(0.976152 0.525229 2.49451e-20)
(0.977919 0.496554 -7.39151e-21)
(0.979842 0.469494 -2.93002e-21)
(0.981932 0.443989 -1.36222e-20)
(0.984255 0.419956 -1.1885e-20)
(0.986909 0.397339 -2.67344e-20)
(0.98966 0.376556 3.00218e-20)
(0.993564 0.358343 -4.66786e-20)
(0.599112 0.528462 1.53e-19)
(0.73475 0.63225 2.26339e-19)
(0.825892 0.688211 8.81215e-20)
(0.883079 0.707606 -3.41302e-20)
(0.916567 0.701833 1.39502e-20)
(0.935026 0.680696 6.5915e-20)
(0.944891 0.651532 8.97329e-20)
(0.950378 0.619154 -1.29462e-20)
(0.953927 0.58633 -1.2559e-20)
(0.956777 0.554429 -1.35838e-20)
(0.959476 0.52401 -9.33062e-21)
(0.962224 0.495233 2.99133e-21)
(0.965074 0.468088 -7.28046e-21)
(0.96804 0.442509 -1.12173e-20)
(0.971179 0.418419 2.02092e-20)
(0.974475 0.395791 4.9252e-20)
(0.977717 0.37483 -8.05051e-20)
(0.982615 0.356247 6.48485e-20)
(0.400528 0.372797 2.99266e-19)
(0.584919 0.533724 -1.38764e-19)
(0.716857 0.636681 -1.57577e-19)
(0.805537 0.691283 -5.76996e-20)
(0.861418 0.709267 7.68878e-20)
(0.894548 0.702307 6.78101e-20)
(0.913337 0.680296 6.92214e-20)
(0.923965 0.650549 -4.31646e-20)
(0.930445 0.617808 -5.54104e-20)
(0.935073 0.584763 1.4037e-20)
(0.939006 0.552725 -4.75335e-21)
(0.942749 0.522214 -5.10775e-21)
(0.946488 0.49337 -8.33478e-21)
(0.950272 0.466171 -4.28205e-22)
(0.954129 0.440541 4.06836e-20)
(0.9581 0.41641 -1.63551e-20)
(0.96205 0.393776 -3.84104e-20)
(0.96592 0.372585 -2.66877e-21)
(0.972181 0.353585 -9.93805e-20)
(0.390726 0.37704 -1.15964e-19)
(0.570167 0.538097 1.33741e-19)
(0.698433 0.640101 1.90831e-19)
(0.784736 0.693314 -7.8233e-20)
(0.839415 0.709922 1.5148e-20)
(0.872285 0.701839 -1.09949e-19)
(0.891482 0.679029 -3.01113e-20)
(0.902928 0.648771 -4.43032e-21)
(0.910436 0.615732 1.28192e-20)
(0.916166 0.582523 -6.10143e-21)
(0.921196 0.550396 -1.02065e-20)
(0.925994 0.519836 -6.76595e-22)
(0.930728 0.490963 -1.92848e-20)
(0.935451 0.463742 1.71632e-20)
(0.940201 0.438084 4.55609e-20)
(0.944993 0.413924 1.75785e-20)
(0.949612 0.391256 -9.04218e-20)
(0.954379 0.369658 -3.3547e-21)
(0.962201 0.350093 2.7999e-20)
(0.150145 0.151883 3.15326e-20)
(0.380485 0.380621 4.86297e-20)
(0.554907 0.541562 -1.21553e-19)
(0.67953 0.642495 -4.80693e-20)
(0.763543 0.694294 -6.28377e-20)
(0.817122 0.709561 -5.52447e-20)
(0.849825 0.700422 7.37837e-20)
(0.8695 0.676889 4.44619e-21)
(0.881815 0.646195 5.246e-21)
(0.890383 0.612922 1.77874e-20)
(0.897234 0.579605 2.19079e-20)
(0.903373 0.547439 -1.75125e-20)
(0.909231 0.516874 -9.42964e-21)
(0.914965 0.48801 -7.9821e-21)
(0.920627 0.460802 -5.46533e-20)
(0.926259 0.435149 -2.84488e-20)
(0.931843 0.410987 -3.11125e-20)
(0.937167 0.388286 1.11444e-19)
(0.943144 0.36608 -2.6887e-20)
(0.951501 0.344 1.00797e-19)
(0.146142 0.153542 4.59063e-20)
(0.369842 0.383522 -1.28684e-20)
(0.539187 0.544103 6.60545e-20)
(0.660207 0.643849 -1.34946e-20)
(0.742015 0.694214 3.92026e-20)
(0.794593 0.70818 4.07729e-20)
(0.827215 0.698053 -1.42889e-20)
(0.847435 0.673874 -1.58381e-20)
(0.860662 0.642816 -2.65632e-20)
(0.870317 0.609376 1.84411e-20)
(0.878306 0.576008 -1.23458e-20)
(0.885562 0.543852 2.05141e-20)
(0.892486 0.513326 2.54152e-20)
(0.899221 0.484513 4.37741e-20)
(0.905819 0.457357 1.6079e-20)
(0.912322 0.431749 5.21712e-20)
(0.918681 0.407628 2.76145e-20)
(0.924755 0.38496 -5.20927e-21)
(0.931725 0.36279 5.98853e-20)
(0.940015 0.340942 1.25665e-20)
(0.141956 0.154911 -3.83511e-20)
(0.358834 0.385728 -3.96237e-20)
(0.523058 0.545705 -4.08378e-20)
(0.640517 0.644153 2.22471e-20)
(0.720208 0.693069 -2.26356e-20)
(0.771878 0.705775 -1.38411e-20)
(0.8045 0.69473 4.50094e-21)
(0.825325 0.669982 1.6721e-20)
(0.839505 0.638634 2.51152e-20)
(0.850271 0.605091 3.34881e-20)
(0.859409 0.571728 -7.95678e-20)
(0.86779 0.539633 3.79806e-22)
(0.875781 0.509192 -9.08208e-20)
(0.883518 0.480471 -4.31392e-21)
(0.891051 0.453407 -4.22701e-20)
(0.898416 0.427887 6.75183e-20)
(0.90555 0.403849 -1.04102e-19)
(0.912365 0.381243 -2.57926e-20)
(0.920031 0.359113 -4.03482e-20)
(0.928298 0.337337 -1.47011e-19)
(0.137603 0.155984 1.85617e-20)
(0.347497 0.387226 -5.90226e-20)
(0.50657 0.546357 1.49232e-20)
(0.620518 0.6434 -7.54375e-22)
(0.698177 0.690852 -3.64471e-21)
(0.74903 0.702343 1.86786e-21)
(0.781728 0.690452 1.70884e-20)
(0.803213 0.665212 -4.53525e-20)
(0.818379 0.633648 -4.77389e-20)
(0.830275 0.600067 -9.75385e-20)
(0.840573 0.566767 6.39081e-20)
(0.850081 0.534782 -7.04278e-21)
(0.859141 0.504471 -2.17562e-20)
(0.86788 0.475885 -3.46641e-20)
(0.876345 0.448954 -5.12423e-20)
(0.884568 0.423564 3.05152e-20)
(0.892484 0.399651 8.57486e-20)
(0.900039 0.377154 -4.86709e-20)
(0.908333 0.35515 6.4112e-20)
(0.91679 0.333628 1.79393e-19)
(0.133098 0.156754 1.21845e-20)
(0.33587 0.388006 2.4796e-20)
(0.489773 0.54605 1.99312e-21)
(0.600265 0.641583 -1.07615e-20)
(0.675978 0.687563 1.21194e-20)
(0.726099 0.697886 2.68879e-20)
(0.758944 0.68522 -1.93366e-20)
(0.781137 0.659567 -2.5298e-20)
(0.79732 0.627859 -2.07487e-20)
(0.810361 0.594305 6.77832e-20)
(0.821825 0.561124 -1.8472e-19)
(0.832463 0.529301 -8.34668e-20)
(0.842591 0.499166 1.72261e-20)
(0.852329 0.470757 2.89902e-20)
(0.861723 0.444 1.06953e-19)
(0.870803 0.41878 -1.50674e-19)
(0.879503 0.395032 4.46814e-20)
(0.887794 0.372686 2.53036e-20)
(0.896702 0.350869 -3.58717e-20)
(0.905488 0.329688 -1.35961e-19)
(0.128457 0.157214 1.74392e-20)
(0.323991 0.388058 8.32183e-22)
(0.472719 0.544778 9.05542e-21)
(0.579813 0.6387 1.3989e-20)
(0.653664 0.683201 -1.30097e-20)
(0.703137 0.692405 -4.72281e-20)
(0.736193 0.679038 1.15244e-20)
(0.759138 0.653049 4.06581e-20)
(0.776362 0.621269 1.21722e-19)
(0.790561 0.587806 -1.37073e-19)
(0.803195 0.554802 1.12278e-19)
(0.814961 0.52319 1.41652e-19)
(0.826155 0.493276 1.19687e-19)
(0.836888 0.465089 9.13077e-20)
(0.847208 0.438547 -1.94506e-19)
(0.857142 0.413536 -3.33931e-21)
(0.866628 0.389994 -5.21444e-20)
(0.875653 0.367839 2.04027e-19)
(0.885181 0.346257 -6.55788e-21)
(0.894378 0.325448 -1.00915e-19)
(0.123699 0.157361 1.76035e-20)
(0.3119 0.387376 -9.33423e-22)
(0.455459 0.542536 7.52237e-21)
(0.559219 0.63475 -5.60887e-21)
(0.631291 0.677769 -2.09946e-20)
(0.680193 0.685904 -2.28784e-21)
(0.71352 0.67191 -2.93544e-20)
(0.737256 0.645663 -5.09356e-20)
(0.755542 0.613883 4.74395e-20)
(0.770906 0.580575 1.08967e-19)
(0.784711 0.547802 2.57009e-21)
(0.797603 0.516452 5.26365e-20)
(0.809858 0.486806 -8.21192e-20)
(0.821582 0.458882 -1.00957e-19)
(0.832823 0.432595 2.57679e-19)
(0.843608 0.407834 1.04122e-19)
(0.853879 0.384534 -1.08958e-19)
(0.863637 0.362609 -1.211e-19)
(0.873796 0.341304 -1.37375e-19)
(0.883457 0.320884 -1.48242e-20)
(0.118838 0.15719 -3.69726e-20)
(0.299634 0.385955 -8.38687e-21)
(0.438044 0.539322 -1.92331e-20)
(0.538536 0.629735 -4.5569e-20)
(0.608913 0.671272 8.57729e-20)
(0.657317 0.67839 -8.27776e-20)
(0.690969 0.663842 1.2538e-19)
(0.715529 0.637414 -1.95535e-21)
(0.734894 0.605706 -4.01473e-20)
(0.751428 0.572616 3.82347e-20)
(0.766401 0.54013 2.9048e-20)
(0.780414 0.509092 -1.44032e-19)
(0.793724 0.479759 1.53556e-19)
(0.806433 0.452139 9.60031e-20)
(0.818589 0.426149 -3.50626e-20)
(0.830221 0.401674 -7.04212e-20)
(0.841276 0.378654 6.0742e-20)
(0.851767 0.356996 -1.09462e-19)
(0.862565 0.336002 -1.51809e-19)
(0.872724 0.315981 1.43686e-19)
(0.113893 0.156698 7.81197e-20)
(0.287235 0.383792 -4.6948e-20)
(0.420524 0.535137 -2.95784e-20)
(0.517821 0.623659 3.2832e-20)
(0.586582 0.663716 1.23411e-20)
(0.634558 0.66987 3.10724e-20)
(0.668584 0.654842 4.03261e-20)
(0.693997 0.628309 1.00624e-19)
(0.714451 0.596743 1.26892e-19)
(0.732158 0.563934 -1.21504e-19)
(0.748294 0.531791 1.49712e-19)
(0.763421 0.501113 -1.71638e-19)
(0.777779 0.472138 2.25318e-20)
(0.791464 0.444866 -6.65173e-20)
(0.804528 0.41921 5.08549e-20)
(0.817002 0.39506 4.82154e-20)
(0.828838 0.372353 -2.94705e-20)
(0.840061 0.350996 2.74332e-19)
(0.851503 0.330343 -3.98308e-20)
(0.862184 0.310732 -1.24381e-19)
(0.10888 0.155884 -6.37459e-20)
(0.27474 0.380888 8.6693e-20)
(0.402951 0.529983 -2.49292e-20)
(0.497127 0.616528 -1.10044e-19)
(0.564351 0.65511 8.52167e-20)
(0.611963 0.660354 -3.24693e-20)
(0.646407 0.64492 -1.0857e-19)
(0.672696 0.618357 -1.62594e-20)
(0.69425 0.587004 -2.62165e-19)
(0.713125 0.554536 2.55796e-19)
(0.730419 0.522789 -2.37237e-20)
(0.74665 0.492521 7.12621e-20)
(0.762044 0.463949 9.03731e-20)
(0.776697 0.437065 3.63111e-20)
(0.790661 0.411783 -2.42335e-19)
(0.803971 0.387994 5.62593e-20)
(0.816583 0.365634 4.99565e-20)
(0.828535 0.34461 -1.6893e-19)
(0.840622 0.324326 6.05931e-20)
(0.851841 0.305133 2.41374e-20)
(0.103818 0.154746 -6.77289e-20)
(0.262188 0.377242 -6.78357e-20)
(0.385373 0.523867 1.35395e-19)
(0.476506 0.608352 1.00281e-19)
(0.542271 0.645465 -8.1588e-20)
(0.589581 0.649854 6.30659e-21)
(0.624482 0.634087 7.57207e-20)
(0.651666 0.60757 2.21669e-20)
(0.674322 0.576496 -4.15191e-21)
(0.694362 0.54443 4.55989e-20)
(0.712802 0.513134 -7.02005e-20)
(0.730126 0.483323 -1.15861e-20)
(0.746546 0.455197 -2.81076e-19)
(0.762156 0.428743 -2.16675e-19)
(0.77701 0.403872 -3.75554e-20)
(0.791146 0.380479 -3.01261e-20)
(0.804529 0.358499 -3.40779e-20)
(0.817205 0.337838 -7.00013e-20)
(0.829936 0.317949 -8.07026e-20)
(0.098722 0.153285 1.47218e-20)
(0.249619 0.372859 1.6246e-19)
(0.367841 0.516795 -6.52325e-20)
(0.456012 0.59914 -1.04258e-19)
(0.520392 0.634794 -5.91939e-21)
(0.567456 0.638383 1.5237e-19)
(0.602849 0.622355 -1.59611e-19)
(0.630942 0.595957 3.21641e-20)
(0.6547 0.565231 -2.58415e-20)
(0.675897 0.533627 -2.58409e-19)
(0.695472 0.502833 -2.44998e-19)
(0.713875 0.473527 4.40041e-20)
(0.731307 0.445891 3.95573e-19)
(0.74786 0.419906 5.66034e-20)
(0.763593 0.395483 1.56621e-19)
(0.778547 0.37252 -2.45369e-19)
(0.792692 0.350952 -5.74534e-20)
(0.806086 0.330684 2.84627e-19)
(0.819456 0.311212 1.24032e-19)
(0.0936106 0.151501 6.45232e-20)
(0.237072 0.367743 6.61012e-20)
(0.350404 0.508777 -1.59481e-19)
(0.435697 0.588907 -8.52882e-21)
(0.498766 0.623111 -6.76937e-20)
(0.545636 0.625955 -9.70625e-20)
(0.581549 0.609739 3.25567e-20)
(0.610561 0.583533 -9.46422e-20)
(0.635418 0.55322 1.8179e-19)
(0.657759 0.522136 -1.16795e-19)
(0.678454 0.491896 8.20769e-20)
(0.697921 0.463141 1.89902e-19)
(0.716349 0.436037 -1.26344e-19)
(0.733833 0.41056 3.12169e-20)
(0.750432 0.386622 1.58931e-19)
(0.766191 0.364122 1.97183e-19)
(0.781089 0.342996 -1.03856e-19)
(0.795192 0.323149 -5.73404e-20)
(0.809194 0.304119 8.84514e-20)
(0.0885007 0.149396 -1.53055e-19)
(0.224583 0.361901 6.10196e-20)
(0.33311 0.499825 1.81344e-19)
(0.41561 0.577668 2.13509e-20)
(0.477439 0.610434 -2.8168e-20)
(0.524164 0.612589 -5.25439e-20)
(0.560621 0.596256 -2.58576e-20)
(0.590558 0.570311 1.1804e-19)
(0.616507 0.540477 -1.74727e-19)
(0.639979 0.509969 4.14186e-19)
(0.661777 0.480334 1.74502e-19)
(0.682288 0.452176 -5.64522e-20)
(0.701697 0.425645 -1.7194e-20)
(0.720094 0.400715 7.65735e-20)
(0.737545 0.377296 -2.11766e-19)
(0.754096 0.355292 1.77309e-20)
(0.769735 0.334638 -1.37015e-19)
(0.784538 0.315239 -5.96645e-20)
(0.0834093 0.146973 -3.1193e-20)
(0.212192 0.355343 -1.91691e-19)
(0.316005 0.489954 1.35511e-19)
(0.395802 0.565439 -2.00713e-20)
(0.45646 0.596781 1.06644e-19)
(0.503083 0.598302 3.42004e-20)
(0.540105 0.581921 -6.59881e-21)
(0.570968 0.556308 8.31461e-20)
(0.597999 0.527015 -4.96313e-20)
(0.622584 0.49714 -1.52503e-19)
(0.645464 0.468159 1.68797e-19)
(0.667002 0.440641 1.79086e-19)
(0.687371 0.414725 -1.07924e-22)
(0.706665 0.390378 -4.03148e-20)
(0.72495 0.367514 -2.29267e-20)
(0.74228 0.346037 1.69122e-19)
(0.758647 0.325883 1.47681e-19)
(0.774137 0.30696 4.12664e-20)
(0.0783533 0.144235 1.51572e-19)
(0.199934 0.348079 2.23823e-19)
(0.299137 0.479179 -1.27535e-19)
(0.37632 0.552241 -9.47765e-21)
(0.435874 0.582173 -1.91895e-19)
(0.482435 0.583115 1.19472e-19)
(0.520038 0.566754 -4.94381e-20)
(0.551825 0.541541 -9.32562e-20)
(0.579923 0.51285 -3.58126e-20)
(0.605602 0.483662 -6.10318e-21)
(0.629543 0.455383 -3.65015e-19)
(0.652085 0.42855 -4.64114e-19)
(0.673394 0.403287 -7.13786e-20)
(0.693564 0.37956 1.60464e-19)
(0.712667 0.357284 -6.30257e-20)
(0.730759 0.336365 -3.16865e-19)
(0.74784 0.31674 2.96903e-19)
(0.764002 0.298318 4.24684e-20)
(0.0733492 0.141187 -2.51786e-19)
(0.187846 0.340122 8.97234e-20)
(0.282551 0.467518 -7.24921e-20)
(0.357212 0.538094 1.01267e-19)
(0.415728 0.566633 1.91883e-19)
(0.462262 0.567049 -1.22622e-19)
(0.500457 0.550776 2.27954e-19)
(0.533161 0.526028 -7.95138e-20)
(0.562309 0.498 1.20699e-19)
(0.58906 0.46955 2.2885e-19)
(0.614038 0.44202 1.25172e-19)
(0.63756 0.415914 5.22752e-19)
(0.659786 0.391343 2.4017e-19)
(0.680812 0.368272 -1.87984e-20)
(0.700713 0.346616 -1.30461e-20)
(0.719549 0.326286 4.03957e-20)
(0.737327 0.307216 -3.31122e-19)
(0.754146 0.28932 -1.75976e-19)
(0.0684135 0.137834 1.42393e-19)
(0.175963 0.331485 -3.95862e-20)
(0.26629 0.454992 -1.93419e-19)
(0.338525 0.523022 -1.7727e-19)
(0.396063 0.550183 -3.29078e-20)
(0.442604 0.550128 2.45668e-20)
(0.481397 0.534008 -2.94697e-19)
(0.515009 0.50979 2.22929e-19)
(0.545187 0.482481 -1.02077e-19)
(0.572983 0.454822 -2.36493e-19)
(0.598973 0.428087 -5.70121e-20)
(0.623449 0.402747 -2.16329e-19)
(0.646568 0.378907 -4.5087e-19)
(0.668428 0.356525 3.91328e-20)
(0.689106 0.335522 3.5538e-19)
(0.708666 0.315808 -1.54759e-19)
(0.727124 0.297321 1.85442e-19)
(0.0635621 0.134184 -2.4944e-20)
(0.164321 0.322185 -3.56321e-19)
(0.250397 0.441622 3.59467e-19)
(0.320301 0.507051 -9.08239e-20)
(0.376923 0.532851 1.28705e-19)
(0.423498 0.532377 7.79505e-20)
(0.462894 0.516473 3.15829e-19)
(0.497399 0.492846 -3.81781e-19)
(0.528583 0.466314 3.01429e-19)
(0.557399 0.439494 2.39252e-19)
(0.584371 0.413597 -6.95623e-20)
(0.609773 0.389065 -3.59914e-20)
(0.63376 0.365991 1.3219e-19)
(0.656429 0.344333 -2.27135e-19)
(0.677862 0.324012 -3.01708e-19)
(0.698126 0.304944 1.13578e-19)
(0.717245 0.287065 -1.16282e-19)
(0.0588108 0.130241 -2.53251e-20)
(0.152953 0.31224 1.17485e-19)
(0.234915 0.427434 1.36054e-19)
(0.302585 0.490207 -2.37513e-19)
(0.358349 0.514663 1.21346e-19)
(0.404983 0.513821 -3.1359e-19)
(0.44498 0.498195 -2.40163e-20)
(0.480361 0.47522 1.75504e-20)
(0.512526 0.449518 -3.0605e-20)
(0.542331 0.423586 -3.02104e-19)
(0.570254 0.39857 -1.4318e-20)
(0.596555 0.374883 -4.8738e-20)
(0.621381 0.35261 2.94417e-19)
(0.644834 0.331708 -9.14847e-20)
(0.666997 0.3121 -2.6175e-20)
(0.687943 0.293704 1.51776e-19)
(0.707702 0.276458 4.39374e-19)
(0.0541746 0.126015 -4.84857e-20)
(0.141892 0.301667 -2.96597e-20)
(0.219884 0.412452 -1.47635e-19)
(0.285418 0.472519 8.90486e-20)
(0.34038 0.495649 2.51308e-19)
(0.387093 0.494488 -1.38343e-19)
(0.427687 0.479201 -2.2012e-19)
(0.463925 0.456935 2.16229e-19)
(0.497041 0.432115 -7.16117e-20)
(0.527803 0.407117 1.99647e-19)
(0.556646 0.383022 9.08021e-20)
(0.583814 0.360218 -5.32477e-20)
(0.60945 0.33878 -2.00087e-19)
(0.633659 0.318665 2.4794e-19)
(0.656528 0.299798 -6.23504e-20)
(0.678133 0.2821 -2.67711e-19)
(0.698509 0.265511 -8.98648e-20)
(0.0496686 0.121515 9.57637e-20)
(0.131168 0.290489 3.60353e-20)
(0.205341 0.396704 -2.82527e-20)
(0.268839 0.454018 -8.10089e-20)
(0.323054 0.475839 -5.80127e-20)
(0.369864 0.474409 3.4055e-19)
(0.411047 0.459516 6.05766e-20)
(0.448117 0.438016 1.66536e-19)
(0.482154 0.414128 1.22829e-19)
(0.513838 0.390107 -3.33232e-19)
(0.543567 0.366973 -1.73637e-19)
(0.571569 0.345088 3.20539e-19)
(0.597985 0.324517 -9.76739e-21)
(0.622922 0.305219 -2.5797e-19)
(0.64647 0.28712 6.51489e-20)
(0.668708 0.270146 3.14025e-19)
(0.0453068 0.116749 1.11065e-19)
(0.120814 0.278726 -1.46489e-19)
(0.191326 0.38022 -6.61314e-20)
(0.252888 0.434735 -1.50625e-20)
(0.306406 0.455265 -1.93322e-19)
(0.353328 0.453612 -1.02249e-19)
(0.395089 0.43917 -4.33828e-20)
(0.432965 0.418488 -3.31742e-19)
(0.467888 0.395579 -2.51218e-19)
(0.500459 0.372578 3.31772e-19)
(0.531037 0.350443 1.82573e-19)
(0.559839 0.32951 -1.41554e-19)
(0.587003 0.309838 -1.63751e-19)
(0.612638 0.291385 1.75645e-19)
(0.636837 0.274082 -9.95383e-20)
(0.659682 0.257856 1.42392e-19)
(0.0411031 0.111727 1.35666e-19)
(0.110857 0.266403 -2.20704e-19)
(0.177872 0.36303 6.29685e-20)
(0.2376 0.414705 1.11136e-19)
(0.290472 0.433961 -1.19607e-21)
(0.337516 0.43213 -1.38995e-19)
(0.379841 0.418191 1.20065e-19)
(0.418494 0.398378 4.42561e-20)
(0.454266 0.376494 -1.32575e-19)
(0.487685 0.354553 8.82311e-20)
(0.519076 0.333453 -2.31476e-19)
(0.548642 0.313504 -5.08546e-20)
(0.576521 0.294761 2.08353e-19)
(0.602822 0.277181 7.39844e-20)
(0.627643 0.260698 1.1449e-19)
(0.651069 0.245243 -2.15294e-19)
(0.0370708 0.106461 -1.35209e-19)
(0.101326 0.253545 -5.6532e-20)
(0.165015 0.345166 1.10324e-19)
(0.223011 0.393961 -2.29006e-19)
(0.275284 0.411961 -1.11272e-19)
(0.322459 0.409995 2.39575e-19)
(0.36533 0.396609 3.80864e-19)
(0.404727 0.377713 1.08184e-19)
(0.441312 0.356898 1.45043e-19)
(0.475539 0.336055 -1.2891e-21)
(0.507703 0.316024 6.80815e-20)
(0.537995 0.297091 2.38739e-19)
(0.566554 0.279304 -3.43588e-20)
(0.593489 0.262623 -4.20886e-19)
(0.618901 0.246984 3.69615e-21)
(0.64288 0.232322 2.29463e-20)
(0.0332223 0.100963 4.32923e-20)
(0.092247 0.240178 -1.12607e-19)
(0.152786 0.326663 3.94772e-19)
(0.209154 0.372541 1.53867e-21)
(0.260874 0.389302 1.47766e-19)
(0.308185 0.387241 1.4429e-19)
(0.351581 0.374456 -1.41349e-19)
(0.391689 0.356523 1.77314e-20)
(0.429044 0.336818 -9.20272e-20)
(0.464038 0.317109 2.32873e-20)
(0.496934 0.298178 -2.82253e-21)
(0.527915 0.28029 -1.06682e-19)
(0.557117 0.263487 -4.73344e-20)
(0.584652 0.24773 2.8025e-19)
(0.610625 0.232958 -2.0932e-19)
(0.635127 0.21911 1.3872e-19)
(0.0295696 0.095243 -9.22547e-20)
(0.0836458 0.226328 -1.05869e-19)
(0.141216 0.307555 -5.72127e-20)
(0.196059 0.350483 1.3581e-19)
(0.24727 0.36602 -1.14941e-19)
(0.294721 0.363904 -2.01104e-19)
(0.338619 0.351764 -1.20596e-19)
(0.3794 0.334837 -2.32828e-19)
(0.417484 0.316279 1.89595e-19)
(0.4532 0.297739 -1.53677e-19)
(0.486786 0.279939 3.26005e-20)
(0.518416 0.263124 2.3011e-20)
(0.548224 0.24733 -9.81626e-20)
(0.576326 0.232519 1.13335e-19)
(0.602827 0.218636 1.69598e-19)
(0.0261241 0.0893153 2.02131e-19)
(0.0755457 0.212025 2.08098e-19)
(0.130335 0.287879 -1.56993e-19)
(0.183757 0.327825 -1.32959e-19)
(0.234501 0.342154 3.67452e-20)
(0.282091 0.340019 7.98075e-20)
(0.326466 0.328567 -2.77994e-19)
(0.367881 0.312686 4.47982e-20)
(0.406649 0.295311 -1.85483e-19)
(0.443043 0.277971 1.57077e-19)
(0.477276 0.261331 3.67969e-20)
(0.509513 0.245614 -1.67345e-19)
(0.539889 0.230853 -3.7487e-20)
(0.568521 0.217011 8.86981e-20)
(0.595516 0.204036 4.16037e-20)
(0.0228963 0.0831928 -9.27342e-20)
(0.067969 0.197298 2.46589e-20)
(0.120167 0.267673 2.94827e-19)
(0.172273 0.304607 1.63887e-19)
(0.222592 0.317743 1.09141e-19)
(0.270318 0.315624 2.05499e-19)
(0.315143 0.304898 2.80008e-20)
(0.357151 0.2901 1.94764e-20)
(0.396557 0.273943 -1.52732e-21)
(0.433582 0.257832 -2.00764e-19)
(0.468417 0.242378 1.04687e-19)
(0.50122 0.227784 -1.67822e-19)
(0.532124 0.214077 1.09879e-19)
(0.561249 0.201225 -1.75079e-19)
(0.588705 0.189177 -1.01883e-19)
(0.0198961 0.0768894 -2.00206e-20)
(0.0609362 0.182178 1.42452e-19)
(0.11074 0.246974 -1.67274e-19)
(0.161635 0.280872 -7.55928e-20)
(0.211567 0.292828 6.83045e-20)
(0.259425 0.290755 -1.51847e-19)
(0.304668 0.280793 1.14852e-19)
(0.347228 0.267112 1.60041e-20)
(0.387224 0.252203 9.55878e-20)
(0.424832 0.237349 -3.83794e-21)
(0.460223 0.223106 -9.23332e-20)
(0.493548 0.209657 8.98927e-20)
(0.524941 0.197025 -2.31304e-19)
(0.554522 0.18518 3.20494e-19)
(0.582404 0.174077 1.21905e-19)
(0.0171326 0.0704193 -5.8414e-20)
(0.0544665 0.166697 -6.16849e-20)
(0.102075 0.225824 -9.22418e-20)
(0.151864 0.25666 1.07007e-19)
(0.201448 0.267449 -5.77834e-20)
(0.249432 0.265453 -2.89333e-20)
(0.295062 0.256287 -5.77651e-20)
(0.338127 0.243755 -7.32361e-20)
(0.378664 0.230122 -2.01502e-19)
(0.416807 0.21655 8.71614e-20)
(0.452707 0.20354 -1.2123e-19)
(0.48651 0.191256 2.20732e-19)
(0.51835 0.179718 1.48145e-19)
(0.548349 0.168898 -2.59352e-19)
(0.57662 0.158755 -2.58953e-19)
(0.0146142 0.0637974 5.92181e-20)
(0.048577 0.150886 -1.60051e-19)
(0.0941929 0.204263 -1.09933e-20)
(0.142983 0.232015 -1.46666e-19)
(0.192255 0.241649 -1.63941e-19)
(0.240356 0.239756 2.38985e-19)
(0.286338 0.231415 3.2751e-20)
(0.329863 0.220062 1.17851e-19)
(0.370891 0.20773 1.23486e-19)
(0.409518 0.195462 -2.90674e-20)
(0.445879 0.183706 1.70218e-19)
(0.480116 0.172605 -9.97818e-20)
(0.512361 0.162179 -1.28201e-19)
(0.542738 0.1524 2.03079e-19)
(0.571362 0.143231 2.29056e-19)
(0.0123485 0.0570387 -6.0361e-20)
(0.0432836 0.134779 1.40426e-19)
(0.0871134 0.182332 -1.5166e-19)
(0.13501 0.206981 9.73815e-20)
(0.184005 0.215471 9.09334e-20)
(0.232213 0.213703 -1.29152e-19)
(0.278513 0.206216 6.0358e-20)
(0.322449 0.196066 6.77411e-20)
(0.363918 0.185059 -2.11139e-19)
(0.402978 0.174116 1.02764e-19)
(0.439751 0.163631 1.15726e-20)
(0.474376 0.153731 9.68242e-20)
(0.506983 0.14443 -1.2481e-19)
(0.537698 0.135706 1.55949e-20)
(0.566639 0.127526 -9.6641e-21)
(0.0103421 0.0501588 -6.48515e-20)
(0.0386002 0.118409 8.68068e-20)
(0.0808529 0.160074 1.60768e-19)
(0.127963 0.181603 -1.99174e-20)
(0.176715 0.188958 1.1208e-19)
(0.225019 0.187337 -1.40554e-19)
(0.271599 0.180727 3.49253e-20)
(0.315899 0.171803 -1.22312e-19)
(0.357754 0.16214 1.35723e-22)
(0.397195 0.15254 -1.93616e-19)
(0.434332 0.143343 -1.39959e-19)
(0.469297 0.134658 7.42492e-20)
(0.502223 0.126497 1.94407e-20)
(0.533237 0.11884 -5.12091e-20)
(0.562456 0.111658 6.81445e-20)
(0.00860094 0.0431736 5.80003e-20)
(0.0345391 0.101812 1.98715e-20)
(0.0754263 0.137532 4.9014e-20)
(0.121855 0.155926 -7.2816e-20)
(0.170399 0.162154 -3.31683e-20)
(0.218786 0.160698 -6.27881e-20)
(0.265608 0.154985 6.07944e-21)
(0.31022 0.147307 4.37051e-20)
(0.352409 0.139006 1.34179e-19)
(0.392179 0.130764 1.63123e-19)
(0.429628 0.122869 6.27134e-20)
(0.464888 0.115411 -1.50211e-20)
(0.498089 0.108401 -3.21415e-20)
(0.52936 0.101822 -8.05374e-20)
(0.558819 0.0956496 9.71152e-21)
(0.00713015 0.0360992 1.20473e-20)
(0.0311107 0.0850224 -8.29741e-20)
(0.0708459 0.114749 -1.14523e-19)
(0.116701 0.129996 -4.02603e-21)
(0.165068 0.135104 -8.61313e-21)
(0.213525 0.133828 4.18529e-20)
(0.260549 0.12903 -1.30615e-19)
(0.305424 0.122613 -5.07625e-20)
(0.347892 0.115689 -8.60335e-20)
(0.387936 0.108818 3.34573e-21)
(0.425648 0.102236 2.82147e-20)
(0.461154 0.0960165 6.28751e-20)
(0.494586 0.0901677 -1.23874e-20)
(0.526072 0.0846755 5.40467e-20)
(0.555734 0.0795206 -2.63182e-20)
(0.00593389 0.028952 -5.18061e-20)
(0.0283237 0.0680752 3.12213e-20)
(0.0671222 0.0917704 -3.15108e-20)
(0.112511 0.10386 3.94243e-20)
(0.160733 0.107852 3.04287e-20)
(0.209244 0.106769 8.5241e-21)
(0.256431 0.102899 1.00917e-19)
(0.301516 0.0977567 -2.70922e-20)
(0.344209 0.0922215 2.39694e-20)
(0.384474 0.0867326 2.81867e-20)
(0.422397 0.0814732 1.9516e-20)
(0.458101 0.0765006 -5.24689e-20)
(0.491719 0.0718209 6.86737e-20)
(0.52338 0.067423 5.13086e-20)
(0.553204 0.0632922 -2.00638e-20)
(0.00501551 0.0217486 1.58686e-20)
(0.0261849 0.0510064 3.92536e-20)
(0.0642635 0.06864 -8.87562e-21)
(0.109292 0.0775634 -6.24122e-20)
(0.157401 0.080444 3.19649e-20)
(0.205951 0.0795627 9.33283e-20)
(0.253259 0.0766315 -7.44293e-20)
(0.298503 0.0727745 -4.29163e-21)
(0.341364 0.068637 1.8945e-20)
(0.381797 0.0645379 4.18022e-20)
(0.419879 0.0606086 3.94888e-21)
(0.455733 0.0568896 -1.32521e-20)
(0.489492 0.053385 -2.12586e-20)
(0.521285 0.0500871 -2.23493e-20)
(0.00437745 0.0145056 7.17545e-21)
(0.0246995 0.0338523 -2.05144e-20)
(0.0622758 0.0454028 8.45462e-21)
(0.107051 0.0511541 2.64795e-20)
(0.155077 0.0529259 -1.53455e-20)
(0.203651 0.0522523 -4.78731e-20)
(0.251039 0.0502672 2.29845e-20)
(0.296389 0.0477022 -5.52388e-22)
(0.339364 0.0449686 -6.5396e-20)
(0.379908 0.0422649 3.94036e-20)
(0.418098 0.0396708 -2.63443e-20)
(0.454054 0.0372099 2.07113e-20)
(0.487908 0.0348847 -1.69041e-20)
(0.51979 0.0326907 8.82847e-21)
(0.00402127 0.00724004 -3.21103e-22)
(0.0238706 0.016649 1.18128e-20)
(0.0611629 0.0221039 4.93388e-21)
(0.105792 0.0246792 4.99355e-21)