/*--------------------------------*- C++ -*----------------------------------*\
  =========                 |
  \\      /  F ield         | OpenFOAM: The Open Source CFD Toolbox
   \\    /   O peration     | Website:  https://openfoam.org
    \\  /    A nd           | Version:  7
     \\/     M anipulation  |
\*---------------------------------------------------------------------------*/
FoamFile
{
    version     2.0;
    format      ascii;
    class       volScalarField;
    location    "80";
    object      p;
}
// * * * * * * * * * * * * * * * * * * * * * * * * * * * * * * * * * * * * * //

dimensions      [0 2 -2 0 0 0 0];

internalField   nonuniform List<scalar> 
4575
(
-0.276883
-0.253674
-0.250773
-0.264175
-0.282693
-0.290605
-0.277805
-0.245775
-0.204754
-0.165839
-0.135755
-0.116599
-0.107865
-0.107727
-0.115693
-0.133454
-0.158294
-0.179912
-0.186146
-0.173407
-0.1489
-0.122318
-0.100134
-0.277714
-0.251304
-0.24522
-0.255897
-0.272832
-0.280638
-0.268929
-0.23871
-0.199653
-0.162482
-0.133824
-0.115861
-0.108175
-0.108961
-0.117878
-0.136696
-0.162499
-0.184634
-0.190625
-0.177032
-0.151476
-0.12397
-0.101035
-0.278157
-0.248632
-0.239416
-0.247365
-0.26266
-0.270338
-0.259741
-0.231377
-0.194336
-0.158949
-0.131749
-0.115006
-0.108382
-0.1101
-0.11997
-0.139841
-0.166601
-0.189251
-0.195006
-0.180574
-0.153981
-0.125559
-0.101883
-0.278231
-0.245682
-0.233398
-0.238628
-0.25223
-0.259747
-0.250269
-0.223793
-0.188807
-0.155241
-0.129527
-0.114026
-0.108478
-0.111133
-0.121959
-0.142875
-0.170586
-0.193749
-0.199281
-0.184028
-0.156413
-0.127086
-0.102678
-0.277964
-0.242484
-0.227206
-0.229738
-0.241598
-0.248908
-0.240546
-0.215976
-0.183076
-0.151358
-0.127154
-0.112915
-0.108455
-0.112051
-0.123832
-0.145785
-0.17444
-0.198117
-0.203439
-0.187389
-0.15877
-0.128551
-0.103422
-0.277384
-0.239071
-0.220878
-0.220744
-0.230818
-0.237867
-0.230604
-0.207945
-0.17715
-0.147301
-0.124628
-0.111669
-0.108305
-0.112846
-0.125579
-0.148557
-0.178149
-0.202341
-0.207473
-0.190652
-0.161053
-0.129955
-0.104118
-0.276524
-0.235477
-0.214453
-0.211695
-0.219949
-0.226668
-0.220476
-0.19972
-0.171039
-0.143074
-0.121948
-0.110283
-0.108022
-0.113507
-0.127189
-0.151179
-0.181698
-0.206409
-0.211374
-0.193813
-0.163258
-0.131299
-0.104768
-0.275422
-0.231739
-0.207973
-0.202638
-0.209045
-0.215359
-0.210197
-0.191323
-0.164753
-0.138679
-0.119112
-0.108752
-0.107598
-0.114027
-0.12865
-0.153639
-0.185077
-0.21031
-0.215134
-0.196868
-0.165386
-0.132585
-0.105373
-0.274115
-0.227896
-0.201477
-0.19362
-0.198162
-0.203987
-0.199795
-0.182776
-0.158305
-0.134121
-0.116119
-0.107072
-0.107027
-0.114398
-0.129953
-0.155924
-0.188271
-0.214032
-0.218744
-0.199812
-0.167435
-0.133812
-0.105935
-0.272643
-0.223989
-0.195008
-0.184681
-0.187351
-0.192599
-0.189301
-0.174101
-0.151706
-0.129405
-0.112971
-0.10524
-0.106304
-0.114611
-0.131087
-0.158024
-0.191269
-0.217566
-0.222199
-0.202642
-0.169405
-0.134983
-0.106457
-0.271047
-0.220057
-0.188606
-0.175864
-0.176663
-0.181245
-0.178859
-0.165321
-0.144971
-0.124537
-0.109668
-0.103254
-0.105423
-0.11466
-0.132044
-0.159928
-0.194061
-0.220902
-0.225491
-0.205354
-0.171296
-0.136099
-0.106942
-0.0860895
-0.269366
-0.216139
-0.182312
-0.167208
-0.166141
-0.16997
-0.168253
-0.156459
-0.138112
-0.119525
-0.106213
-0.101113
-0.10438
-0.114538
-0.132815
-0.161626
-0.196636
-0.224031
-0.228613
-0.207945
-0.173105
-0.137161
-0.10739
-0.0859976
-0.267639
-0.212276
-0.176166
-0.158751
-0.155828
-0.158822
-0.15767
-0.147542
-0.131145
-0.114376
-0.102609
-0.0988137
-0.103169
-0.114238
-0.133391
-0.16311
-0.198985
-0.226945
-0.231561
-0.210412
-0.174834
-0.138171
-0.107805
-0.0858872
-0.265903
-0.208505
-0.170205
-0.150533
-0.14576
-0.147847
-0.147161
-0.138595
-0.124084
-0.1091
-0.0988605
-0.0963574
-0.101789
-0.113755
-0.133766
-0.16437
-0.201099
-0.229637
-0.234329
-0.212752
-0.176482
-0.13913
-0.108188
-0.0857609
-0.264195
-0.204862
-0.164464
-0.14259
-0.135972
-0.137087
-0.136756
-0.129641
-0.116947
-0.103706
-0.0949712
-0.093744
-0.100236
-0.113084
-0.133933
-0.165401
-0.202972
-0.232101
-0.236913
-0.214963
-0.178049
-0.14004
-0.108542
-0.0856211
-0.262544
-0.201381
-0.158975
-0.134956
-0.126495
-0.126582
-0.126476
-0.120701
-0.10975
-0.0982051
-0.090947
-0.0909747
-0.0985082
-0.112222
-0.133886
-0.166195
-0.204596
-0.23433
-0.239308
-0.217042
-0.179534
-0.140903
-0.108869
-0.0854704
-0.260982
-0.198093
-0.153767
-0.127664
-0.117358
-0.116365
-0.116351
-0.111799
-0.10251
-0.0926087
-0.0867944
-0.0880515
-0.0966042
-0.111163
-0.133621
-0.166748
-0.205967
-0.23632
-0.241511
-0.218988
-0.180938
-0.141719
-0.109172
-0.0853109
-0.259532
-0.195025
-0.148866
-0.120742
-0.108587
-0.106468
-0.106411
-0.102958
-0.0952438
-0.086929
-0.0825205
-0.0849769
-0.0945235
-0.109907
-0.133134
-0.167054
-0.20708
-0.238068
-0.243518
-0.220798
-0.18226
-0.142491
-0.109452
-0.085145
-0.258218
-0.192204
-0.144297
-0.114215
-0.100208
-0.0969164
-0.0966886
-0.0942021
-0.087969
-0.0811784
-0.0781331
-0.0817544
-0.0922663
-0.108451
-0.132421
-0.167111
-0.207932
-0.239569
-0.245328
-0.222471
-0.1835
-0.14322
-0.109711
-0.0849748
-0.257057
-0.189649
-0.140078
-0.108104
-0.0922468
-0.0877341
-0.0872141
-0.0855523
-0.0807025
-0.0753702
-0.0736408
-0.0783881
-0.0898335
-0.106793
-0.13148
-0.166917
-0.20852
-0.240823
-0.246938
-0.224006
-0.184659
-0.143907
-0.109952
-0.0848023
-0.256064
-0.187378
-0.136228
-0.102428
-0.0847243
-0.0789407
-0.0780169
-0.0770116
-0.0734607
-0.0695176
-0.0690524
-0.0748829
-0.0872268
-0.104933
-0.130311
-0.16647
-0.208843
-0.241827
-0.248347
-0.2254
-0.185736
-0.144554
-0.110176
-0.0846296
-0.25525
-0.185404
-0.132759
-0.0972008
-0.0776612
-0.0705534
-0.0691229
-0.0686237
-0.06626
-0.0636343
-0.0643776
-0.0712442
-0.0844485
-0.102872
-0.128912
-0.165769
-0.208902
-0.24258
-0.249554
-0.226654
-0.186731
-0.145163
-0.110386
-0.0844584
-0.254623
-0.183737
-0.129683
-0.0924319
-0.0710748
-0.0625877
-0.060556
-0.0604382
-0.0591171
-0.0577336
-0.0596262
-0.0674783
-0.0815017
-0.10061
-0.127284
-0.164815
-0.208696
-0.243083
-0.250558
-0.227766
-0.187645
-0.145734
-0.110583
-0.0842905
-0.254187
-0.182381
-0.127005
-0.0881288
-0.0649796
-0.0550577
-0.0523367
-0.0523355
-0.0520513
-0.051829
-0.0548085
-0.0635917
-0.0783902
-0.0981494
-0.125427
-0.16361
-0.208227
-0.243337
-0.251359
-0.228735
-0.188477
-0.146268
-0.110769
-0.0841276
-0.253944
-0.18134
-0.124731
-0.0842955
-0.0593863
-0.0479768
-0.0444833
-0.0444783
-0.0450808
-0.0459329
-0.0499347
-0.0595917
-0.0751186
-0.0954928
-0.123344
-0.162155
-0.207499
-0.243342
-0.251958
-0.22956
-0.189227
-0.146768
-0.110946
-0.0839712
-0.180612
-0.12286
-0.0809329
-0.0543021
-0.0413577
-0.0370117
-0.0369009
-0.0382186
-0.0400579
-0.0450153
-0.0554861
-0.0716918
-0.0926433
-0.121038
-0.160454
-0.206513
-0.243101
-0.252354
-0.23024
-0.189896
-0.147233
-0.111115
-0.0838227
-0.180192
-0.12139
-0.0780394
-0.0497305
-0.0352117
-0.0299323
-0.0296019
-0.031479
-0.0342162
-0.0400607
-0.0512829
-0.0681156
-0.0896049
-0.118511
-0.15851
-0.205275
-0.242616
-0.252551
-0.230774
-0.190482
-0.147665
-0.111278
-0.0836837
-0.180074
-0.120315
-0.0756109
-0.0456718
-0.0295489
-0.0232528
-0.022588
-0.0248782
-0.0284193
-0.0350809
-0.0469906
-0.0643965
-0.0863821
-0.115767
-0.156328
-0.20379
-0.241891
-0.252548
-0.231162
-0.190986
-0.148064
-0.111436
-0.0835553
-0.180247
-0.119627
-0.0736407
-0.042123
-0.024377
-0.0169801
-0.0158712
-0.0184332
-0.0226781
-0.0300859
-0.0426179
-0.0605413
-0.0829802
-0.112811
-0.153912
-0.202062
-0.240928
-0.252348
-0.231401
-0.191408
-0.148431
-0.111591
-0.0834387
-0.180701
-0.119314
-0.0721198
-0.039078
-0.0197013
-0.0111206
-0.00946364
-0.0121628
-0.0170035
-0.0250852
-0.0381738
-0.0565575
-0.0794052
-0.109647
-0.151268
-0.200099
-0.239733
-0.251953
-0.231492
-0.191746
-0.148767
-0.111743
-0.083335
-0.181419
-0.119361
-0.0710357
-0.0365274
-0.0155238
-0.00568016
-0.00337701
-0.00608031
-0.0114056
-0.0200884
-0.0336674
-0.0524532
-0.0756635
-0.106283
-0.148402
-0.197906
-0.238309
-0.251365
-0.231432
-0.192001
-0.149071
-0.111893
-0.0832448
-0.182386
-0.119752
-0.0703748
-0.0344606
-0.0118442
-0.000664959
0.00237925
-0.000182214
-0.00589449
-0.0151044
-0.0291081
-0.0482367
-0.0717624
-0.102722
-0.14532
-0.195492
-0.23666
-0.250588
-0.231218
-0.192171
-0.149343
-0.112043
-0.0831694
-0.1836
-0.12048
-0.0701304
-0.0328713
-0.00866383
0.00391658
0.00779781
0.00547427
-0.000482361
-0.0101424
-0.0245052
-0.0439171
-0.0677096
-0.0989724
-0.142029
-0.192862
-0.234789
-0.249622
-0.230849
-0.192256
-0.149585
-0.112196
-0.0831121
-0.185064
-0.121542
-0.0702975
-0.0317539
-0.00598208
0.00805778
0.0128717
0.0109444
0.00481759
-0.0052122
-0.0198687
-0.039504
-0.0635134
-0.0950404
-0.138535
-0.190024
-0.232699
-0.248468
-0.230321
-0.192258
-0.149802
-0.112354
-0.0830747
-0.186708
-0.122874
-0.0708213
-0.0310654
-0.00376898
0.0117731
0.0176082
0.0162145
0.00999059
-0.000323106
-0.0152083
-0.0350073
-0.0591829
-0.0909335
-0.134845
-0.186985
-0.230394
-0.247131
-0.229636
-0.192171
-0.14998
-0.112504
-0.0830454
-0.188346
-0.124315
-0.071573
-0.030709
-0.00195835
0.0150975
0.0220246
0.0212145
0.0150319
0.00451966
-0.0105323
-0.0304366
-0.0547278
-0.08666
-0.130969
-0.183757
-0.227892
-0.245644
-0.228799
-0.191977
-0.150086
-0.112616
-0.0830007
-0.190097
-0.125963
-0.0726293
-0.0307483
-0.000615019
0.0179559
0.0260507
0.0258997
0.0199177
0.0093018
-0.00585012
-0.0258012
-0.0501568
-0.0822277
-0.126914
-0.180347
-0.225186
-0.244023
-0.227774
-0.191666
-0.150148
-0.112732
-0.0829847
-0.128716
-0.074705
-0.0317337
-0.0001539
0.0200385
0.0294585
0.0301195
0.0245165
0.0139475
-0.00120411
-0.0211272
-0.0454802
-0.0776274
-0.122645
-0.176655
-0.222057
-0.242043
-0.226445
-0.191346
-0.150392
-0.113093
-0.0831984
-0.132759
-0.0779247
-0.0337131
-0.00050623
0.0215281
0.0324697
0.0339935
0.0288056
0.0183914
0.00333251
-0.0164759
-0.0407393
-0.0728582
-0.118089
-0.172505
-0.218303
-0.239212
-0.224891
-0.191181
-0.150933
-0.113746
-0.0836374
-0.133078
-0.0781252
-0.0333133
0.0010499
0.0246104
0.0368619
0.0389577
0.0338117
0.0231879
0.00803896
-0.0117072
-0.0359879
-0.0683
-0.114045
-0.169356
-0.21614
-0.235756
-0.223901
-0.190617
-0.150516
-0.113318
-0.0831116
-0.123887
-0.0701378
-0.0257238
0.00917963
0.0342857
0.0488331
0.0531042
0.0494457
0.0378584
0.0221573
0.00221171
-0.0231037
-0.0587229
-0.110321
-0.172127
-0.222574
-0.245623
-0.225194
-0.188839
-0.147252
-0.10969
-0.0796528
-0.0571618
-0.113403
-0.0626422
-0.0197512
0.0150941
0.0412172
0.0572884
0.0629074
0.0590613
0.0497527
0.0348261
0.0152133
-0.0106832
-0.048113
-0.101863
-0.163892
-0.212348
-0.22523
-0.213239
-0.178312
-0.138477
-0.102825
-0.0743074
-0.0528247
-0.104277
-0.0562638
-0.0149864
0.0193436
0.0460484
0.0637307
0.0714869
0.0696341
0.0609696
0.0464832
0.0269196
0.000401719
-0.0381448
-0.0923481
-0.153481
-0.200624
-0.21453
-0.200908
-0.167301
-0.129513
-0.0958722
-0.0688989
-0.0484274
-0.0961399
-0.0509728
-0.0115067
0.0219499
0.0488062
0.0677835
0.0778001
0.0783471
0.0713935
0.0580576
0.0388941
0.0118819
-0.0278287
-0.0828227
-0.143636
-0.189161
-0.202013
-0.18708
-0.155049
-0.119739
-0.0884727
-0.0632838
-0.0439601
-0.0889762
-0.0466465
-0.00912154
0.0231661
0.0497068
0.069402
0.0809427
0.0842622
0.0796765
0.0681733
0.0499271
0.0226731
-0.0181912
-0.0739209
-0.133474
-0.175963
-0.186977
-0.171719
-0.141885
-0.109507
-0.0808491
-0.0575697
-0.0394677
-0.0826572
-0.0431396
-0.00764646
0.0232703
0.0491333
0.0690704
0.0819448
0.0873102
0.0850469
0.0755793
0.0585692
0.0314232
-0.0100152
-0.0652797
-0.121995
-0.160767
-0.170004
-0.155261
-0.128144
-0.0989948
-0.0730925
-0.0518119
-0.0349938
-0.0770909
-0.0403234
-0.00691229
0.0225076
0.047446
0.0672321
0.080821
0.0876566
0.0873225
0.0797409
0.0640878
0.0375408
-0.00338402
-0.0566058
-0.10928
-0.144023
-0.151675
-0.138125
-0.114149
-0.0884199
-0.0653341
-0.0460851
-0.0305849
-0.0721815
-0.0380767
-0.00676344
0.0210808
0.0449307
0.0642111
0.0780469
0.0857737
0.0868251
0.0807706
0.0664676
0.0410817
0.00187519
-0.0478878
-0.0955909
-0.126108
-0.132562
-0.120798
-0.100245
-0.07799
-0.0576911
-0.0404536
-0.0262807
-0.0678405
-0.0362938
-0.0070646
0.0191588
0.0418241
0.0603711
0.0740861
0.0822461
0.0841894
0.079279
0.0662615
0.0425376
0.00613784
-0.0389839
-0.0810939
-0.107429
-0.1133
-0.103788
-0.0867557
-0.0678921
-0.0502703
-0.0349765
-0.0221162
-0.0639876
-0.0348837
-0.00769984
0.0168854
0.0383047
0.0559894
0.0693347
0.0776162
0.080109
0.0760791
0.0643233
0.0426807
0.00995044
-0.0297487
-0.0661493
-0.088863
-0.0946221
-0.0875806
-0.0739585
-0.0582804
-0.0431616
-0.0297045
-0.0181199
-0.0605501
-0.0337675
-0.00857105
0.0143806
0.0345173
0.051276
0.0641035
0.0723095
0.0751581
0.0718942
0.0614601
0.0422309
0.0136705
-0.0203973
-0.0514471
-0.0712115
-0.0772038
-0.0725688
-0.0620635
-0.0492697
-0.0364347
-0.0246795
-0.0143146
-0.0574624
-0.0328763
-0.00959561
0.0117468
0.0305908
0.0463906
0.0586174
0.0666337
0.0697377
0.0672122
0.0581868
0.0415478
0.0172205
-0.0115094
-0.0378182
-0.0551846
-0.0615193
-0.0590078
-0.051201
-0.0409336
-0.0301389
-0.0199345
-0.0107176
-0.0546659
-0.0321499
-0.0107036
0.00907197
0.0266344
0.0414611
0.0530456
0.0608069
0.0641065
0.0623035
0.0547161
0.0406398
0.0202692
-0.00369178
-0.0258971
-0.0412246
-0.0478063
-0.047006
-0.0414269
-0.0333091
-0.0243049
-0.0154939
-0.00734146
-0.0521084
-0.031536
-0.0118353
0.00642883
0.0227374
0.0365944
0.0475198
0.0549881
0.0584356
0.0573136
0.0511068
0.0394062
0.0225443
0.00270369
-0.0159712
-0.0294716
-0.0360848
-0.0365508
-0.032737
-0.0264041
-0.0189469
-0.0113737
-0.00419478
-0.0497439
-0.030989
-0.0129404
0.00387658
0.018972
0.0318777
0.0421434
0.0492971
0.0528494
0.0523429
0.0473991
0.0378092
0.0239672
0.00763173
-0.0080029
-0.0198133
-0.0262277
-0.0275507
-0.0250868
-0.0202053
-0.0140668
-0.00758247
-0.00128281
-0.0475324
-0.0304709
-0.0139774
0.00146338
0.0153951
0.0273793
0.0369965
0.0438254
0.047445
0.0474795
0.0436581
0.0359014
0.0246229
0.0112483
-0.0017641
-0.0120034
-0.0180332
-0.0198742
-0.0184085
-0.0146855
-0.00965659
-0.00412189
0.00139226
-0.0454394
-0.0299502
-0.014913
-0.000772007
0.0120509
0.02315
0.0321391
0.0386415
0.0422968
0.0427994
0.0399593
0.0337783
0.0246649
0.0137824
0.00303875
-0.00576036
-0.0112798
-0.0133766
-0.0126228
-0.00980805
-0.00570116
-0.000987696
0.0038311
-0.0434362
-0.029402
-0.0157224
-0.00280155
0.00897253
0.0192283
0.0276142
0.0337936
0.0374585
0.0383611
0.0363706
0.0315379
0.0242485
0.0154579
0.00669538
-0.000819521
-0.00575708
-0.00791553
-0.0076463
-0.00553058
-0.00218022
0.00182929
0.00603728
-0.0414992
-0.0288068
-0.0163879
-0.00460748
0.00618136
0.0156404
0.0234508
0.0293135
0.0329653
0.0342055
0.0329454
0.0292623
0.023505
0.0164573
0.00946853
0.00304227
-0.00127581
-0.00335779
-0.00339651
-0.00180755
0.00093021
0.00434206
0.00801719
-0.0396095
-0.0281511
-0.0168981
-0.00617817
0.0036899
0.0123997
0.019664
0.0252182
0.0288373
0.030358
0.0297208
0.0270133
0.0225415
0.0169149
0.0108801
0.00598317
0.00232809
0.000418841
0.000206349
0.00140816
0.00365662
0.00656629
0.0097798
-0.0377528
-0.0274257
-0.0172469
-0.00750911
0.00150171
0.00950974
0.0162583
0.0215135
0.0250823
0.0268311
0.0267202
0.0248384
0.021452
0.0170557
0.0123108
0.00825881
0.00520669
0.0035247
0.00323748
0.00416376
0.00602713
0.00851946
0.0113361
-0.0359183
-0.0266259
-0.0174338
-0.00860227
-0.000386436
0.00696707
0.0132299
0.0181958
0.0216983
0.0236276
0.023957
0.0227705
0.0202982
0.0169454
0.0132605
0.00998561
0.00748499
0.00605744
0.00576676
0.0065055
0.00807074
0.0102201
0.0126986
-0.034099
-0.0257502
-0.0174617
-0.00946391
-0.00198312
0.00476141
0.010568
0.0152541
0.0186764
0.0207429
0.0214353
0.0208298
0.0191226
0.0166485
0.0138436
0.0112656
0.00926657
0.00810293
0.00785835
0.00847783
0.0098166
0.0116875
0.0138803
-0.0322904
-0.0248004
-0.0173372
-0.0101038
-0.00330113
0.00287776
0.00825644
0.0126728
0.0160022
0.0181669
0.0191536
0.0190286
0.0179573
0.0162215
0.0141496
0.012184
0.0106381
0.00973616
0.00957056
0.0101228
0.0112935
0.0129409
0.0148948
-0.0304908
-0.0237805
-0.0170691
-0.0105354
-0.0043564
0.00129847
0.0062762
0.0104319
0.0136574
0.0158858
0.0171059
0.0173742
0.0168285
0.0156836
0.0142427
0.0128123
0.0116731
0.0110225
0.010956
0.0114798
0.0125292
0.0139996
0.0157554
-0.0287
-0.0226964
-0.0166686
-0.0107735
-0.00516657
3.93911e-06
0.00460507
0.00850931
0.0116215
0.0138832
0.0152836
0.0158703
0.0157567
0.0151133
0.0141823
0.0132121
0.0124334
0.0120186
0.0120617
0.0125851
0.0135503
0.0148823
0.0164754
-0.0269199
-0.0215553
-0.0161479
-0.010834
-0.00575012
-0.00101978
0.00321833
0.00688108
0.00987257
0.0121408
0.0136757
0.014515
0.0147499
0.0145196
0.0140137
0.0134345
0.0129716
0.0127735
0.0129295
0.013472
0.0143819
0.0156074
0.0170677
-0.0251532
-0.0203655
-0.01552
-0.0107345
-0.00612959
-0.00181881
0.00208572
0.00552245
0.00838819
0.0106396
0.0122688
0.0133045
0.0138183
0.0139243
0.0137707
0.0135213
0.0133319
0.0133295
0.0135966
0.0141709
0.0150473
0.0161919
0.0175448
-0.0234034
-0.0191358
-0.0147983
-0.0104927
-0.00632393
-0.00239651
0.00117921
0.00441035
0.00714556
0.00935991
0.0110492
0.0122334
0.0129683
0.0133444
0.01348
0.0135064
0.0135514
0.0137229
0.0140955
0.014709
0.015568
0.0166524
0.0179188
-0.0216748
-0.0178752
-0.0139964
-0.010126
-0.00635352
-0.00276343
0.000584508
0.00353276
0.00612347
0.00828234
0.010005
0.011296
0.0122016
0.0127926
0.0131627
0.0134173
0.0136611
0.0139847
0.0144548
0.0151108
0.0159637
0.0170038
0.0182009
-0.0199718
-0.0165927
-0.0131276
-0.00965199
-0.00624252
-0.00297281
8.90779e-05
0.0028593
0.00530445
0.00740147
0.00912314
0.0104857
0.0115189
0.0122775
0.0128354
0.0132768
0.0136868
0.0141415
0.0146994
0.0153981
0.0162526
0.0172604
0.018402
-0.0182989
-0.0152973
-0.0122051
-0.00908695
-0.00600899
-0.00303596
-0.000229668
0.00234834
0.00465934
0.0066786
0.00838816
0.00979387
0.0109189
0.0118053
0.0125109
0.0131028
0.01365
0.0142157
0.0148508
0.01559
0.0164507
0.0174352
0.018532
-0.0166604
-0.0139974
-0.0112407
-0.00844591
-0.00566998
-0.00296925
-0.000397633
0.00199503
0.00417192
0.00610766
0.00778728
0.00921215
0.0103989
0.0113795
0.0121988
0.0129098
0.0135682
0.0142263
0.0149276
0.0157037
0.0165726
0.0175401
0.0186004
-0.0150606
-0.0127006
-0.0102456
-0.00774291
-0.00524159
-0.00279031
-0.000435594
0.00178034
0.00382396
0.00567106
0.00730765
0.00873214
0.00995586
0.0110024
0.0119064
0.0127093
0.0134559
0.014189
0.0149457
0.0157539
0.0166314
0.0175859
0.018616
-0.0135034
-0.0114142
-0.00922999
-0.00699092
-0.00473896
-0.00251602
-0.000362216
0.00168609
0.00359893
0.00535386
0.00693727
0.00834551
0.00958559
0.0106746
0.0116387
0.0125102
0.0133248
0.0141172
0.0149186
0.0157534
0.0166385
0.0175824
0.0185867
-0.0119923
-0.0101449
-0.00820342
-0.00620188
-0.00417611
-0.00216206
-0.000194267
0.00169575
0.00348138
0.00514209
0.00666468
0.00804399
0.00928366
0.0103955
0.0113992
0.0123194
0.0131842
0.0140217
0.0148578
0.0157134
0.0166041
0.0175386
0.0185201
-0.0105302
-0.00889858
-0.00717443
-0.0053867
-0.00356586
-0.0017427
5.3076e-05
0.00179412
0.00345692
0.00502279
0.00647905
0.00781951
0.00904523
0.010164
0.0111899
0.0121418
0.0130416
0.0139115
0.0147729
0.0156435
0.0165371
0.0174622
0.0184231
-0.00912016
-0.00768039
-0.00615064
-0.00455516
-0.00291983
-0.00127091
0.000366058
0.00196736
0.00351228
0.0049839
0.00637017
0.00766426
0.00886529
0.0099778
0.0110118
0.0119811
0.0129026
0.0137937
0.0146719
0.0155517
0.0164452
0.0173604
0.0183016
-0.00776418
-0.00649507
-0.00513893
-0.00371609
-0.00224845
-0.000758378
0.000732251
0.00220289
0.0036353
0.00501427
0.00632845
0.0075707
0.00873868
0.00983452
0.0108649
0.0118397
0.0127717
0.0136742
0.0145613
0.0154449
0.0163352
0.0172392
0.0181614
-0.0064643
-0.00534666
-0.00414531
-0.0028773
-0.00156107
-0.000215582
0.00114046
0.00248928
0.00381489
0.00510364
0.00634495
0.0075316
0.00866025
0.00973117
0.0107485
0.0117189
0.0126518
0.0135574
0.0144466
0.0153288
0.0162128
0.0171042
0.0180073
-0.00522164
-0.00423836
-0.00317499
-0.00204572
-0.000866005
0.000348105
0.00158063
0.00281624
0.00404096
0.00524257
0.00641132
0.00754007
0.00862484
0.00966453
0.0106612
0.0116193
0.0125453
0.0134467
0.0143319
0.0152082
0.0160827
0.01696
0.0178439
-0.00403735
-0.00317307
-0.00223255
-0.00122744
-0.000170605
0.00092433
0.00204376
0.00317449
0.00430433
0.00542242
0.00651981
0.0075896
0.00862742
0.00963119
0.0106015
0.0115407
0.0124533
0.0133446
0.0142206
0.0150869
0.0159491
0.0168107
0.0176749
-0.00291277
-0.00215355
-0.00132205
-0.000427733
0.000518667
0.0015057
0.00252181
0.00355568
0.00459671
0.00563528
0.00666324
0.00767402
0.00866306
0.00962762
0.0105671
0.0114826
0.0123766
0.0132527
0.0141152
0.014968
0.0158153
0.0166598
0.0175037
-0.00184793
-0.00118158
-0.000446748
0.000348787
0.00119613
0.00208567
0.00300763
0.00395234
0.0049106
0.00587393
0.00683495
0.0077875
0.00872699
0.00965025
0.0105559
0.0114438
0.0123152
0.0131721
0.0140174
0.0148538
0.0156841
0.0165101
0.0173333
-0.000843288
-0.000258702
0.000390564
0.00109818
0.00185682
0.00265846
0.00349485
0.00435775
0.00523921
0.00613177
0.0070288
0.00792459
0.00881463
0.0096955
0.0105652
0.0114228
0.0122686
0.0131033
0.0139287
0.0147461
0.0155576
0.0163639
0.0171661
0.000100995
0.00061376
0.00118746
0.001817
0.00249639
0.00321897
0.00397781
0.00476591
0.00557642
0.0064028
0.00723915
0.00808019
0.00892158
0.00975982
0.0105926
0.0114182
0.0122362
0.0130464
0.0138496
0.0146463
0.0154375
0.0162233
0.0170041
0.000984932
0.00143474
0.00194186
0.00250226
0.00311104
0.00376272
0.00445149
0.00517144
0.00591671
0.00668157
0.00746078
0.00824952
0.00904367
0.00983975
0.0106351
0.0114278
0.0122167
0.013001
0.0137805
0.0145551
0.015325
0.0160898
0.0168491
0.00180863
0.00220343
0.00265206
0.00315138
0.00369744
0.00428572
0.00491141
0.00556954
0.00625508
0.00696309
0.00768889
0.00842811
0.00917692
0.00993189
0.0106903
0.0114499
0.012209
0.0129664
0.0137214
0.0144731
0.015221
0.0159644
0.0167024
0.00257224
0.00291917
0.00331657
0.00376212
0.00425263
0.00478443
0.00535357
0.00595586
0.00658704
0.00724281
0.00791904
0.00861182
0.00931756
0.010033
0.0107553
0.0114822
0.0122116
0.0129419
0.0136719
0.0144003
0.0151261
0.0158481
0.016565
0.00327583
0.00358101
0.00393399
0.00433246
0.00477399
0.00525571
0.00577438
0.00632651
0.00690848
0.00751657
0.00814718
0.00879676
0.00946204
0.0101399
0.0108276
0.0115226
0.0122228
0.0129263
0.0136314
0.0143366
0.0150405
0.0157414
0.0164377
0.00391984
0.00418914
0.00450326
0.00486058
0.00525916
0.00569671
0.00617059
0.00667793
0.00721565
0.00778057
0.00836952
0.00897933
0.00960699
0.0102496
0.0109044
0.0115689
0.012241
0.0129184
0.0135993
0.0142818
0.0149642
0.0156446
0.0163211
0.00450416
0.00474257
0.00502318
0.0053448
0.00570595
0.0061048
0.00653923
0.00700686
0.00750513
0.00803129
0.00858256
0.00915612
0.00974923
0.0103591
0.0109833
0.0116191
0.0122645
0.0129169
0.0135746
0.0142353
0.0148971
0.0155579
0.0162155
0.00502864
0.00524072
0.00549263
0.00578354
0.00611232
0.00647754
0.00687752
0.00731031
0.00777373
0.00826546
0.00878305
0.00932399
0.00988578
0.0104659
0.0110618
0.0116711
0.0122915
0.0129206
0.0135564
0.0141965
0.0148389
0.0154812
0.0161212
0.00549298
0.00568283
0.00591041
0.00617517
0.00647626
0.00681261
0.00718285
0.00758541
0.00801847
0.00848002
0.00896793
0.00947995
0.0100138
0.0105671
0.0111375
0.0117227
0.0123203
0.012928
0.0135436
0.0141647
0.0147892
0.0154145
0.0160383
0.00589657
0.00606793
0.00627518
0.006518
0.00679578
0.0071077
0.00745269
0.00782947
0.00823651
0.00867208
0.00913431
0.00962117
0.0101306
0.0106604
0.0112083
0.011772
0.0123493
0.0129378
0.0135352
0.0141393
0.0147475
0.0153575
0.0159668
0.00623846
0.00639475
0.00658538
0.00681019
0.00706876
0.00736048
0.00768452
0.00803982
0.0084251
0.00883885
0.00927942
0.00974498
0.0102336
0.0107433
0.0112718
0.0118171
0.0123768
0.0129486
0.0135303
0.0141194
0.0147135
0.0153101
0.0159068
0.00651726
0.00666167
0.00683915
0.00704966
0.00729294
0.00756853
0.00787578
0.00821382
0.00858155
0.00897764
0.00940062
0.00984881
0.0103204
0.0108136
0.0113262
0.0118561
0.0124013
0.0129592
0.0135277
0.0141043
0.0146867
0.0152722
0.0158582
0.00673106
0.00686661
0.00703425
0.00723404
0.00746581
0.00772923
0.00802379
0.00834874
0.00870313
0.00908577
0.00949531
0.0099302
0.0103888
0.0108692
0.0113695
0.0118876
0.0124213
0.0129685
0.0135267
0.0140936
0.0146667
0.0152435
0.0158213
0.00687725
0.00700686
0.00716789
0.00736048
0.00758451
0.00783972
0.00812568
0.00844176
0.0087871
0.00916058
0.00956095
0.00998674
0.0104364
0.010908
0.0113998
0.0119098
0.0124357
0.0129754
0.0135265
0.0140866
0.0146534
0.0152241
0.0157961
0.00695253
0.00707912
0.00723679
0.0074257
0.00764577
0.00789678
0.00817835
0.00848989
0.00883058
0.00919936
0.00959502
0.0100161
0.0104611
0.0109283
0.0114157
0.0119214
0.0124433
0.0129791
0.0135266
0.0140832
0.0146466
0.0152141
0.0157833
0.0111431
0.0110921
0.0110725
0.0110852
0.0111307
0.0112094
0.0113214
0.0114665
0.0116442
0.0118537
0.012094
0.0123636
0.0126608
0.0129836
0.0133297
0.0136964
0.014081
0.0144804
0.0148915
0.0153109
0.0157352
0.0161612
0.01106
0.0110107
0.0109934
0.0110088
0.0110575
0.0111398
0.0112558
0.0114053
0.0115878
0.0118024
0.0120479
0.012323
0.0126259
0.0129544
0.0133062
0.0136785
0.0140686
0.0144734
0.0148895
0.0153136
0.0157423
0.0161721
0.0108983
0.0108526
0.0108396
0.0108603
0.0109152
0.0110046
0.0111285
0.0112866
0.0114783
0.0117028
0.0119587
0.0122445
0.0125584
0.012898
0.0132609
0.0136443
0.0140452
0.0144603
0.0148862
0.0153194
0.0157565
0.0161939
0.0106613
0.0106208
0.0106144
0.010643
0.0107072
0.010807
0.0109426
0.0111134
0.0113188
0.0115578
0.011829
0.0121307
0.0124607
0.0128167
0.013196
0.0135956
0.0140122
0.0144425
0.0148827
0.0153294
0.0157786
0.0162269
0.0103513
0.0103178
0.0103202
0.0103594
0.0104358
0.0105495
0.0107005
0.0108881
0.0111117
0.0113699
0.0116612
0.0119837
0.012335
0.0127126
0.0131134
0.0135342
0.0139715
0.0144216
0.0148806
0.0153447
0.0158098
0.0162721
0.00996967
0.00994504
0.00995862
0.0100111
0.0101028
0.0102339
0.0104042
0.0106128
0.0108589
0.0111411
0.0114574
0.0118058
0.0121836
0.0125878
0.0130153
0.0134624
0.0139252
0.0143997
0.0148817
0.015367
0.0158515
0.0163309
0.00951727
0.00950352
0.00953061
0.00959917
0.00970953
0.00986167
0.0100552
0.0102891
0.0105624
0.0108732
0.0112196
0.011599
0.0120084
0.0124446
0.0129039
0.0133822
0.0138753
0.0143788
0.0148881
0.0153985
0.0159056
0.0164049
0.00899408
0.00899339
0.00903659
0.0091243
0.00925673
0.0094337
0.0096546
0.00991837
0.0102235
0.0105681
0.0109496
0.0113653
0.0118117
0.0122851
0.0127814
0.0132961
0.0138244
0.0143614
0.014902
0.0154413
0.0159742
0.0164961
0.00839964
0.0084144
0.0084765
0.0085866
0.00874476
0.0089506
0.00920331
0.00950158
0.00984359
0.0102271
0.0106492
0.0111066
0.0115955
0.0121116
0.0126503
0.0132065
0.013775
0.0143501
0.0149263
0.015498
0.0160599
0.0166069
0.00773291
0.00776578
0.00784988
0.00798585
0.00817366
0.00841269
0.00870187
0.0090396
0.00942373
0.00985156
0.0103198
0.0108247
0.0113619
0.0119264
0.0125131
0.0131162
0.0137298
0.0143476
0.0149636
0.0155715
0.0161653
0.0167397
0.00699242
0.00704632
0.00715587
0.00732154
0.00754318
0.00782001
0.00815063
0.0085331
0.00896489
0.00944285
0.0099632
0.0105215
0.0111129
0.0117318
0.0123722
0.0130278
0.0136917
0.0143571
0.015017
0.0156647
0.0162934
0.0168973
0.00617687
0.00625478
0.00639335
0.00659282
0.00685285
0.00717239
0.00754974
0.00798258
0.00846792
0.0090021
0.00958076
0.0101989
0.0108508
0.0115303
0.0122304
0.0129442
0.0136638
0.0143816
0.0150899
0.0157809
0.0164474
0.0170828
0.00528417
0.0053895
0.00556095
0.00579865
0.00610194
0.00646948
0.00689922
0.00738841
0.00793355
0.00853042
0.009174
0.00985856
0.0105777
0.0113242
0.0120905
0.0128684
0.0136493
0.0144247
0.0151856
0.0159236
0.0166307
0.0172996
0.00431194
0.00444849
0.00465709
0.00493775
0.00528954
0.00571075
0.00619893
0.00675084
0.00736244
0.00802885
0.00874434
0.00950239
0.0102957
0.0111162
0.0119552
0.0128035
0.0136516
0.0144897
0.0153078
0.0160967
0.016847
0.017551
0.00325742
0.00342937
0.00367985
0.00400864
0.00441455
0.00489551
0.00544858
0.00607001
0.00675514
0.00749838
0.00829319
0.00913218
0.010007
0.0109087
0.0118274
0.0127529
0.0136742
0.0145804
0.0154605
0.0163039
0.0171003
0.0178409
0.00211784
0.00232974
0.00262717
0.00300967
0.00347574
0.00402291
0.00464777
0.00534597
0.00611214
0.00693993
0.00782193
0.00874975
0.00971402
0.0107045
0.0117103
0.0127197
0.0137206
0.0147008
0.0156477
0.0165495
0.0173947
0.0181733
0.00089059
0.0011472
0.00149691
0.00193903
0.0024717
0.003092
0.00379597
0.00457861
0.00543382
0.00635436
0.00733186
0.00835686
0.0094188
0.0105062
0.0116068
0.0127074
0.0137946
0.0148547
0.0158735
0.0168378
0.0177346
0.0185524
-0.000427539
-0.000121084
0.000286664
0.000794735
0.00140086
0.00210163
0.00289249
0.00376774
0.00472045
0.00574244
0.00682425
0.00795527
0.0091236
0.0103164
0.0115199
0.0127195
0.0139001
0.0150462
0.0161424
0.0171735
0.0181246
0.0189826
-0.00184007
-0.00147818
-0.00100619
-0.000425429
0.000261448
0.00105049
0.0019365
0.002913
0.00397216
0.0051048
0.00630027
0.00754663
0.00883059
0.0101378
0.0114528
0.0127594
0.0140406
0.0152795
0.0164586
0.017561
0.0185697
0.0194686
-0.00335052
-0.00292719
-0.0023844
-0.00172379
-0.000948466
-6.29223e-05
0.000926943
0.00201384
0.00318895
0.00444197
0.00576095
0.00713254
0.00854185
0.0099729
0.0114084
0.0128305
0.0142202
0.0155586
0.0168265
0.0180052
0.0190755
0.0200149
-0.00496244
-0.00447137
-0.00385088
-0.00310291
-0.00223102
-0.00124031
-0.000137409
0.00106952
0.0023706
0.00375427
0.00520719
0.00671441
0.00825935
0.0098242
0.0113898
0.0129361
0.0144424
0.0158875
0.0172501
0.0185103
0.0196486
0.0206259
-0.00667971
-0.00611423
-0.00540877
-0.00456556
-0.00358862
-0.00248367
-0.00125808
7.90171e-05
0.00151662
0.0030418
0.00463966
0.00629351
0.00798489
0.00969401
0.0113996
0.0130796
0.0147108
0.0162699
0.0177331
0.0190788
0.020299
0.0213045
-0.00850625
-0.00785941
-0.00706142
-0.00611479
-0.00502398
-0.0037953
-0.00243693
-0.000958996
0.000626248
0.00230439
0.00405879
0.00587086
0.00772006
0.00958445
0.0114405
0.0132639
0.015029
0.0167098
0.018279
0.0197079
0.0209472