/*--------------------------------*- C++ -*----------------------------------*\
  =========                 |
  \\      /  F ield         | OpenFOAM: The Open Source CFD Toolbox
   \\    /   O peration     | Website:  https://openfoam.org
    \\  /    A nd           | Version:  7
     \\/     M anipulation  |
\*---------------------------------------------------------------------------*/
FoamFile
{
    version     2.0;
    format      ascii;
    class       volVectorField;
    location    "80";
    object      U;
}
// * * * * * * * * * * * * * * * * * * * * * * * * * * * * * * * * * * * * * //

dimensions      [0 1 -1 0 0 0 0];

internalField   nonuniform List<vector> 
4575
(
(0.0338515 -0.677214 4.86679e-22)
(0.0379672 -0.682651 -2.17034e-22)
(0.0613976 -0.632596 -2.33051e-22)
(0.1265 -0.507042 2.53454e-22)
(0.22158 -0.314732 -2.74392e-22)
(0.327322 -0.0862101 -3.43367e-22)
(0.433817 0.14331 8.71926e-23)
(0.531927 0.339213 3.75151e-22)
(0.612955 0.479025 1.616e-22)
(0.671233 0.560339 -5.27688e-22)
(0.704802 0.595968 2.76901e-22)
(0.718527 0.600433 -1.08063e-22)
(0.717227 0.589603 -5.72716e-23)
(0.69481 0.58528 9.89707e-23)
(0.648141 0.591121 1.06417e-22)
(0.59751 0.566943 1.44311e-24)
(0.577372 0.457934 -1.47898e-22)
(0.602096 0.256187 1.52764e-23)
(0.659696 0.0129738 -3.53489e-22)
(0.729756 -0.206124 3.03138e-22)
(0.793341 -0.363224 -9.20171e-23)
(0.837383 -0.455659 5.00633e-23)
(0.860914 -0.496551 -2.04494e-22)
(0.0524358 -0.677967 2.35496e-21)
(0.0493979 -0.684141 -1.33034e-22)
(0.0620981 -0.638456 -1.28695e-21)
(0.116846 -0.518187 1.08103e-21)
(0.206028 -0.328847 -2.11359e-21)
(0.309021 -0.101081 2.128e-21)
(0.414879 0.129068 -9.68929e-23)
(0.514028 0.326843 -4.68129e-22)
(0.597357 0.469496 -1.15719e-21)
(0.658482 0.554101 1.28438e-21)
(0.695007 0.592732 -8.3193e-22)
(0.711646 0.599491 7.1226e-22)
(0.712435 0.590942 -7.8265e-23)
(0.690919 0.589303 -1.0676e-21)
(0.645086 0.596687 9.70006e-22)
(0.596774 0.570958 -6.60235e-22)
(0.580201 0.45784 7.21563e-22)
(0.60811 0.252007 -3.17289e-23)
(0.66762 0.00647491 -1.95351e-22)
(0.738161 -0.212891 7.39614e-22)
(0.801138 -0.368611 -1.05265e-21)
(0.843874 -0.45897 8.06908e-22)
(0.865594 -0.498129 -7.26006e-22)
(0.0727018 -0.677888 4.34719e-21)
(0.0630538 -0.684418 -3.26942e-21)
(0.0653294 -0.643005 -6.95605e-22)
(0.109155 -0.528531 -5.81362e-23)
(0.191821 -0.342843 4.27083e-21)
(0.291687 -0.116243 -2.75287e-23)
(0.396611 0.114324 -1.32688e-21)
(0.496577 0.313888 8.22341e-22)
(0.582034 0.459399 -6.41872e-22)
(0.645886 0.547371 4.79672e-23)
(0.685337 0.589086 4.2501e-23)
(0.704885 0.598248 -1.89344e-22)
(0.707739 0.59211 -1.04112e-22)
(0.687148 0.593212 -2.18005e-22)
(0.642267 0.602085 1.01603e-21)
(0.596399 0.574775 -1.16148e-21)
(0.583404 0.457673 -1.18013e-22)
(0.614445 0.247957 -1.08056e-21)
(0.675802 0.000249998 8.86328e-22)
(0.746748 -0.219342 1.00419e-23)
(0.809044 -0.373706 5.43871e-22)
(0.850442 -0.462028 -4.26049e-23)
(0.870351 -0.4995 2.15336e-22)
(0.0944847 -0.677052 3.53314e-21)
(0.0788025 -0.683539 -3.34206e-21)
(0.0710921 -0.646205 2.35013e-21)
(0.103548 -0.537966 -4.38448e-21)
(0.179032 -0.35663 2.10835e-21)
(0.275388 -0.131642 -1.06383e-21)
(0.379068 0.0991143 1.52121e-21)
(0.479614 0.300368 -2.29125e-21)
(0.56701 0.448742 1.38038e-21)
(0.63346 0.540146 7.21177e-22)
(0.675801 0.585021 5.51317e-22)
(0.698244 0.596694 4.71382e-22)
(0.703137 0.593098 -1.04761e-21)
(0.683499 0.59699 -7.58122e-22)
(0.639686 0.607298 -7.36344e-23)
(0.596376 0.578395 1.05873e-21)
(0.586964 0.457449 1.98292e-21)
(0.621083 0.244057 -2.28697e-22)
(0.684227 -0.00568789 2.17181e-22)
(0.755508 -0.225469 -1.00131e-21)
(0.817053 -0.378508 2.5994e-22)
(0.857086 -0.464837 -3.89552e-23)
(0.875186 -0.500669 -1.45067e-21)
(0.117619 -0.67554 2.52628e-21)
(0.0964941 -0.681579 -1.85465e-21)
(0.0793523 -0.648039 2.43372e-21)
(0.100139 -0.546384 -8.83702e-22)
(0.167734 -0.370114 9.02074e-22)
(0.260183 -0.14722 -3.70757e-21)
(0.362303 0.0834783 4.46593e-21)
(0.463176 0.286309 -3.65574e-23)
(0.552306 0.437538 -1.21288e-21)
(0.621219 0.532426 -2.11193e-21)
(0.666408 0.580532 4.87562e-22)
(0.691723 0.594823 -6.12634e-22)
(0.698627 0.593893 7.7864e-22)
(0.679973 0.600618 -1.97757e-22)
(0.637342 0.612315 -4.07882e-22)
(0.596694 0.581822 1.00555e-22)
(0.590862 0.457183 1.05161e-21)
(0.628005 0.240321 4.85779e-22)
(0.692881 -0.0113266 7.40279e-23)
(0.764434 -0.231263 1.40978e-21)
(0.825161 -0.383015 -6.53805e-22)
(0.863802 -0.467401 -1.46288e-21)
(0.880099 -0.501639 5.98119e-22)
(0.141939 -0.673428 -5.84129e-21)
(0.115965 -0.678623 2.05088e-21)
(0.0900423 -0.64851 -1.69202e-22)
(0.0990331 -0.553686 -5.1011e-21)
(0.158001 -0.383191 4.34056e-21)
(0.246123 -0.162916 -7.00427e-22)
(0.346364 0.0674579 -9.84882e-23)
(0.447298 0.271736 4.70046e-21)
(0.537945 0.4258 -3.30667e-21)
(0.609178 0.524212 2.19591e-21)
(0.657164 0.575613 -8.6342e-22)
(0.685321 0.592629 -1.22272e-21)
(0.694206 0.594483 1.74986e-21)
(0.676569 0.604077 -9.18301e-22)
(0.635235 0.61712 -7.22697e-22)
(0.597341 0.585057 5.30798e-23)
(0.59508 0.456893 -2.49512e-21)
(0.635192 0.236766 1.32848e-21)
(0.70175 -0.0166551 -2.79255e-21)
(0.773519 -0.236719 -6.13349e-22)
(0.833365 -0.387227 2.45536e-21)
(0.870588 -0.469723 1.06188e-21)
(0.88509 -0.502417 8.8452e-22)
(0.167288 -0.670796 -8.02586e-21)
(0.137041 -0.674767 3.85018e-21)
(0.103063 -0.647641 -5.469e-21)
(0.100317 -0.559781 -1.22481e-21)
(0.14991 -0.39575 1.83399e-21)
(0.233258 -0.178664 -1.95858e-21)
(0.331296 0.0510978 -1.3188e-21)
(0.432012 0.256679 -8.21086e-22)
(0.523946 0.413542 2.44845e-21)
(0.597352 0.515505 2.26199e-21)
(0.648078 0.570258 2.2052e-21)
(0.679036 0.590103 -2.40663e-21)
(0.68987 0.594857 2.66632e-21)
(0.673286 0.607352 -1.55623e-21)
(0.633359 0.621703 -2.00227e-21)
(0.598303 0.588107 2.70825e-21)
(0.599596 0.456592 2.39731e-21)
(0.642624 0.233407 -6.59816e-21)
(0.710817 -0.0216634 1.8115e-21)
(0.782753 -0.241831 9.95969e-22)
(0.84166 -0.391142 -1.30734e-21)
(0.87744 -0.471807 1.04531e-21)
(0.890158 -0.503005 -1.14372e-21)
(0.193513 -0.667714 -3.76461e-22)
(0.159542 -0.670115 1.57139e-21)
(0.118286 -0.645479 4.10317e-21)
(0.104052 -0.564592 -2.87541e-21)
(0.143549 -0.407675 4.79226e-22)
(0.221626 -0.194391 4.87235e-23)
(0.317139 0.0344428 -2.53829e-21)
(0.417349 0.241168 -1.739e-21)
(0.510331 0.40078 4.50499e-21)
(0.585755 0.506307 -5.33155e-22)
(0.639155 0.564463 -1.62404e-21)
(0.672866 0.587241 -1.62134e-21)
(0.685616 0.595002 2.75951e-21)
(0.670123 0.610423 -2.31223e-21)
(0.631712 0.626051 3.01124e-22)
(0.599564 0.590973 -1.85265e-21)
(0.604391 0.456294 4.35017e-21)
(0.650279 0.230257 -4.47685e-21)
(0.720065 -0.0263428 1.75214e-21)
(0.792127 -0.246593 3.00083e-21)
(0.850041 -0.39476 -4.19742e-21)
(0.884356 -0.473656 -7.78448e-22)
(0.895303 -0.503409 1.68986e-21)
(0.220472 -0.664253 4.41565e-21)
(0.183286 -0.664774 1.60389e-21)
(0.13556 -0.642095 -1.47907e-21)
(0.110268 -0.568055 1.99439e-21)
(0.139011 -0.418847 4.58046e-21)
(0.211267 -0.210021 -7.7259e-21)
(0.303927 0.017545 1.67236e-21)
(0.403336 0.225237 3.31033e-21)
(0.497118 0.387532 -1.57586e-21)
(0.574403 0.496621 4.27798e-21)
(0.630402 0.558224 -4.80356e-21)
(0.66681 0.584036 1.81084e-21)
(0.681439 0.594906 -2.70449e-21)
(0.667078 0.613274 2.31729e-22)
(0.630285 0.630155 -6.15601e-22)
(0.601108 0.593662 3.31716e-21)
(0.609441 0.456015 -1.71518e-21)
(0.658135 0.227328 -2.90263e-21)
(0.729478 -0.0306853 -1.05415e-21)
(0.801631 -0.251001 5.83728e-21)
(0.858505 -0.398081 2.29893e-21)
(0.891332 -0.475275 4.3642e-22)
(0.900524 -0.503633 -1.27168e-21)
(0.248032 -0.660471 5.62804e-21)
(0.208088 -0.658851 5.05639e-21)
(0.154714 -0.637579 -4.95505e-21)
(0.118961 -0.570127 -1.02158e-20)
(0.136398 -0.429144 -1.36115e-21)
(0.202215 -0.225467 1.23526e-21)
(0.29169 0.000495249 1.1721e-20)
(0.39 0.208921 -7.80638e-21)
(0.484328 0.373815 3.02794e-21)
(0.563309 0.486452 -4.25772e-21)
(0.621825 0.55154 2.52121e-21)
(0.660863 0.580481 -1.07116e-21)
(0.677336 0.594557 1.2462e-21)
(0.664147 0.615888 -1.84998e-21)
(0.629072 0.634004 1.17957e-23)
(0.602918 0.596177 -2.52845e-21)
(0.614724 0.455766 4.92272e-21)
(0.666169 0.224632 -3.83737e-21)
(0.739036 -0.0346841 2.73665e-21)
(0.811256 -0.255051 -5.18822e-21)
(0.867045 -0.401102 9.98723e-22)
(0.898365 -0.476668 -4.52921e-21)
(0.905819 -0.503681 2.24351e-21)
(0.276073 -0.656423 -1.32766e-21)
(0.233769 -0.652454 7.05098e-21)
(0.175562 -0.632037 -7.95883e-21)
(0.130085 -0.570786 1.48397e-21)
(0.135818 -0.438446 -5.37002e-21)
(0.194512 -0.240635 8.18384e-21)
(0.280452 -0.0166716 5.26105e-21)
(0.377356 0.192257 -3.78443e-23)
(0.471977 0.35965 -6.62324e-21)
(0.552488 0.475805 1.24096e-21)
(0.613428 0.544409 4.96032e-21)
(0.655024 0.576572 -8.54635e-22)
(0.673302 0.593942 -3.44537e-21)
(0.661327 0.618249 -1.40326e-21)
(0.628064 0.637589 8.15718e-21)
(0.604976 0.598525 -6.10211e-23)
(0.620216 0.455561 -2.36675e-21)
(0.674358 0.22218 1.12245e-21)
(0.748723 -0.0383335 -2.14831e-21)
(0.82099 -0.258741 6.44366e-21)
(0.875657 -0.403826 -2.55984e-21)
(0.905449 -0.477839 6.02295e-21)
(0.911188 -0.503559 -2.44647e-21)
(0.90314 -0.498273 2.58821e-21)
(0.304487 -0.652152 1.66144e-21)
(0.260157 -0.645683 -7.0505e-21)
(0.197906 -0.625588 -5.56356e-22)
(0.143557 -0.570039 1.14651e-20)
(0.137372 -0.446639 -5.48525e-21)
(0.188196 -0.255421 -1.06576e-20)
(0.270232 -0.0340054 9.96157e-21)
(0.365427 0.17528 8.6417e-22)
(0.460084 0.345057 -6.09484e-21)
(0.541953 0.464687 -1.91997e-21)
(0.605215 0.53683 1.75653e-21)
(0.649287 0.572304 2.989e-21)
(0.669332 0.593048 -6.23905e-21)
(0.658614 0.620341 1.00935e-21)
(0.627251 0.640904 1.62042e-21)
(0.607262 0.60071 -1.03025e-20)
(0.625893 0.455411 -5.2554e-21)
(0.68268 0.21998 1.30236e-21)
(0.758519 -0.0416288 1.80679e-20)
(0.830823 -0.262066 -6.93393e-21)
(0.884336 -0.40625 3.02659e-21)
(0.912582 -0.478791 -1.03944e-20)
(0.916628 -0.503272 1.69746e-21)
(0.906854 -0.497293 3.40635e-22)
(0.333175 -0.647693 -1.05325e-20)
(0.287086 -0.638636 2.23865e-21)
(0.221542 -0.618361 2.07373e-21)
(0.159258 -0.567921 -7.33479e-21)
(0.141154 -0.453617 1.26178e-20)
(0.183308 -0.269714 -9.34347e-21)
(0.261047 -0.0514041 7.6545e-21)
(0.354238 0.15803 -1.08859e-20)
(0.448667 0.330059 9.39315e-21)
(0.531717 0.453107 1.96251e-21)
(0.597191 0.528806 2.00551e-21)
(0.64365 0.567671 -6.53091e-21)
(0.665421 0.591864 2.14186e-21)
(0.656002 0.622148 -2.21171e-21)
(0.626621 0.64394 -1.66305e-22)
(0.609757 0.602737 8.73374e-21)
(0.631733 0.455326 -1.77418e-21)
(0.691111 0.21804 3.18825e-21)
(0.768406 -0.0445661 3.60642e-21)
(0.840742 -0.265027 -4.75575e-21)
(0.893076 -0.408376 2.82105e-21)
(0.919759 -0.479529 -5.18572e-21)
(0.922136 -0.502823 2.68205e-21)
(0.910652 -0.496214 -2.51464e-22)
(0.36205 -0.643075 -7.56715e-22)
(0.314405 -0.6314 -1.15523e-20)
(0.246262 -0.610488 9.49774e-21)
(0.177037 -0.564495 -6.45889e-21)
(0.147235 -0.459285 -5.5328e-21)
(0.179916 -0.283391 5.40389e-22)
(0.252911 -0.0687197 2.40445e-21)
(0.343802 0.140549 -3.76065e-21)
(0.437742 0.314678 4.76438e-21)
(0.521794 0.441074 3.6469e-21)
(0.589357 0.520337 -7.53598e-21)
(0.638107 0.56267 2.10853e-21)
(0.661563 0.590377 4.50307e-21)
(0.653486 0.623657 -7.46776e-21)
(0.626163 0.646691 1.12572e-20)
(0.612441 0.604611 4.8859e-21)
(0.637709 0.455317 -3.96541e-21)
(0.699628 0.216369 -4.40461e-21)
(0.778366 -0.0471427 5.1933e-21)
(0.850737 -0.267621 -7.43066e-21)
(0.901873 -0.410204 6.4799e-21)
(0.926976 -0.480056 3.41355e-21)
(0.927711 -0.502219 -1.13576e-22)
(0.914533 -0.495039 8.87691e-22)
(0.391035 -0.638316 -7.50277e-21)
(0.341972 -0.624054 -2.25337e-21)
(0.27186 -0.602103 -2.86764e-22)
(0.196713 -0.559851 2.57848e-21)
(0.155659 -0.463569 -3.77139e-21)
(0.178099 -0.296323 -1.25079e-21)
(0.24584 -0.0859066 1.25583e-22)
(0.334132 0.122878 6.16011e-21)
(0.427325 0.298939 -2.221e-21)
(0.512196 0.428598 -1.35553e-21)
(0.581717 0.511427 -7.55311e-21)
(0.632654 0.557297 -1.3094e-21)
(0.657751 0.588575 4.22608e-21)
(0.651059 0.624852 6.14634e-22)
(0.625864 0.64915 6.88237e-23)
(0.615293 0.606337 3.21598e-21)
(0.643798 0.455392 -2.71025e-21)
(0.708209 0.214972 -5.352e-21)
(0.788381 -0.0493564 -4.01384e-21)
(0.860796 -0.269849 5.45861e-21)
(0.91072 -0.411734 -8.1264e-21)
(0.934229 -0.480376 -1.18243e-22)
(0.93335 -0.501464 8.02933e-22)
(0.918499 -0.49377 -4.56118e-21)
(0.420058 -0.633428 5.79299e-21)
(0.369665 -0.616664 -5.92029e-21)
(0.298132 -0.593336 2.4604e-21)
(0.218085 -0.554099 4.18398e-21)
(0.166429 -0.46642 1.40069e-21)
(0.177953 -0.308379 -9.20156e-23)
(0.239849 -0.102898 1.71107e-21)
(0.325239 0.10506 -6.3711e-21)
(0.417431 0.282867 4.11129e-21)
(0.502933 0.415693 -2.73343e-22)
(0.574271 0.502081 4.41979e-21)
(0.627286 0.551548 -1.57024e-21)
(0.653982 0.586447 -1.60873e-21)
(0.648714 0.625721 1.0323e-21)
(0.625711 0.651311 -5.05324e-21)
(0.618292 0.607919 7.03595e-21)
(0.649977 0.45556 -3.87822e-21)
(0.716831 0.213854 5.14979e-21)
(0.798432 -0.0512061 -4.99759e-22)
(0.870906 -0.27171 -6.58753e-21)
(0.919612 -0.412966 3.02298e-21)
(0.941514 -0.480493 -1.06082e-21)
(0.939048 -0.500563 5.95968e-21)
(0.922547 -0.492409 -3.72301e-21)
(0.449057 -0.628416 1.2893e-20)
(0.397371 -0.609288 7.55008e-21)
(0.324886 -0.584315 -2.47032e-22)
(0.240936 -0.547368 4.03003e-21)
(0.179504 -0.467816 7.85804e-22)
(0.179582 -0.319432 -4.11065e-21)
(0.234962 -0.119598 -5.61221e-22)
(0.317133 0.0871397 2.50959e-21)
(0.408075 0.266488 4.39592e-21)
(0.494015 0.402371 -7.2181e-21)
(0.567021 0.492303 2.57409e-21)
(0.621996 0.545421 -2.21083e-21)
(0.650246 0.583983 5.84414e-21)
(0.646443 0.626252 -2.28252e-22)
(0.625691 0.65317 4.27479e-21)
(0.621418 0.609361 -4.84394e-21)
(0.656221 0.455827 -4.90969e-21)
(0.725473 0.21302 3.64442e-21)
(0.808503 -0.0526915 -6.25599e-21)
(0.881055 -0.273206 1.42205e-20)
(0.928543 -0.413901 -6.26403e-21)
(0.948826 -0.480409 6.10171e-21)
(0.944802 -0.499521 1.62216e-21)
(0.926679 -0.49096 -2.40607e-21)
(0.477973 -0.623282 8.69893e-21)
(0.424996 -0.60197 6.98581e-22)
(0.351941 -0.575158 -3.76627e-21)
(0.265036 -0.539799 1.63119e-21)
(0.194801 -0.467766 1.74951e-21)
(0.183098 -0.329355 1.8464e-21)
(0.231215 -0.135906 -2.43222e-21)
(0.309824 0.0691678 4.11747e-21)
(0.39927 0.249832 -8.076e-21)
(0.485452 0.388649 3.11307e-23)
(0.559965 0.482102 6.56775e-21)
(0.616778 0.538913 -6.11608e-21)
(0.646539 0.581171 -2.25668e-21)
(0.644238 0.626431 -1.41489e-21)
(0.625789 0.65472 1.563e-21)
(0.624651 0.610666 -8.20299e-22)
(0.662507 0.4562 -6.60101e-21)
(0.734113 0.212473 8.88438e-22)
(0.818577 -0.053813 1.07278e-20)
(0.891232 -0.274338 -1.16756e-21)
(0.937506 -0.414541 -6.54827e-21)
(0.956161 -0.480129 -4.46456e-21)
(0.950608 -0.498343 1.78225e-21)
(0.930892 -0.489426 4.0348e-21)
(0.506748 -0.618022 -7.01771e-21)
(0.452459 -0.594744 -5.20238e-21)
(0.379128 -0.565974 -3.48409e-21)
(0.290154 -0.531542 6.5242e-21)
(0.212191 -0.466313 -3.85315e-21)
(0.188609 -0.338038 4.42195e-21)
(0.228653 -0.151714 -1.27918e-21)
(0.303321 0.0511966 -3.22752e-21)
(0.391025 0.232927 -2.91587e-23)
(0.477251 0.374544 -4.54881e-21)
(0.553102 0.471484 -8.66709e-23)
(0.611627 0.532024 5.14171e-21)
(0.642852 0.578001 4.59476e-21)
(0.642091 0.626247 -5.75537e-21)
(0.625991 0.655958 -9.40173e-22)
(0.627969 0.611837 1.37961e-21)
(0.668812 0.456682 2.70008e-21)
(0.74273 0.212214 -1.20128e-20)
(0.828638 -0.0545716 8.28415e-21)
(0.901425 -0.275108 -3.77879e-21)
(0.946496 -0.414886 -5.1366e-21)
(0.963515 -0.479656 4.16565e-25)
(0.956463 -0.497034 -3.3099e-21)
(0.935186 -0.487807 5.7312e-22)
(0.535331 -0.612633 -3.13451e-20)
(0.479692 -0.587633 2.39539e-20)
(0.4063 -0.55686 -1.4217e-20)
(0.316059 -0.522749 5.44376e-22)
(0.231509 -0.463526 3.86497e-21)
(0.196203 -0.345384 -2.77041e-21)
(0.227343 -0.166902 -3.05728e-21)
(0.297633 0.0332839 4.16027e-21)
(0.38335 0.215804 1.4972e-21)
(0.469416 0.360073 -4.27221e-21)
(0.546429 0.460459 2.60711e-21)
(0.606534 0.524751 -3.13627e-22)
(0.63918 0.574465 -1.47647e-21)
(0.639992 0.625691 6.00044e-21)
(0.626283 0.656879 6.29273e-21)
(0.631352 0.612876 4.60987e-21)
(0.675114 0.457278 -1.4415e-20)
(0.751306 0.212246 5.83888e-21)
(0.83867 -0.054969 4.37373e-21)
(0.911622 -0.275519 -2.94713e-21)
(0.955504 -0.414937 4.62714e-21)
(0.970884 -0.478992 -1.58486e-22)
(0.962361 -0.495599 -3.36837e-21)
(0.93956 -0.486107 1.394e-21)
(0.563669 -0.607108 -2.33479e-20)
(0.506636 -0.580651 1.56421e-20)
(0.433324 -0.547898 6.59083e-21)
(0.342525 -0.513574 -5.63895e-21)
(0.252558 -0.459506 -8.10664e-21)
(0.205941 -0.351318 4.93686e-21)
(0.227369 -0.181344 -8.52707e-22)
(0.292776 0.0155199 -3.55494e-21)
(0.376251 0.198498 1.44579e-22)
(0.46195 0.345258 1.46672e-21)
(0.539944 0.449038 -1.8302e-22)
(0.601493 0.517096 1.99452e-21)
(0.635513 0.570553 2.7519e-21)
(0.637933 0.624751 -6.60685e-21)
(0.626649 0.657477 -6.64941e-22)
(0.634781 0.613785 2.64481e-22)
(0.68139 0.457991 -2.44564e-21)
(0.759819 0.212569 7.0775e-21)
(0.848658 -0.0550076 1.02019e-20)
(0.921811 -0.275572 -1.18869e-20)
(0.964526 -0.414697 1.81232e-21)
(0.978263 -0.478139 1.71265e-21)
(0.968298 -0.494044 5.52317e-21)
(0.944012 -0.484328 -2.06881e-21)
(0.591713 -0.60144 -2.04912e-20)
(0.533247 -0.573804 1.30258e-22)
(0.460087 -0.539158 -9.75863e-21)
(0.369339 -0.504167 1.20006e-20)
(0.275115 -0.454375 -7.76169e-21)
(0.217842 -0.355795 2.87718e-21)
(0.228836 -0.194909 -6.16376e-21)
(0.288769 -0.00194311 1.11286e-20)
(0.369731 0.181044 -7.69606e-21)
(0.454855 0.33012 4.6423e-21)
(0.533639 0.437231 1.8518e-21)
(0.596496 0.509058 -4.34983e-21)
(0.631845 0.566257 -5.51984e-22)
(0.635904 0.623418 -4.32813e-21)
(0.627076 0.65775 2.82233e-21)
(0.638236 0.614565 7.27595e-22)
(0.687621 0.458823 -1.10312e-20)
(0.768252 0.213182 7.10489e-21)
(0.858589 -0.0546904 1.7954e-21)
(0.931981 -0.275272 -7.33027e-21)
(0.973553 -0.414165 3.51031e-22)
(0.985648 -0.477102 -3.55377e-21)
(0.97427 -0.492373 1.36324e-21)
(0.94854 -0.482473 -9.46807e-22)
(0.619412 -0.595623 1.41768e-20)
(0.559484 -0.567091 -4.12239e-21)
(0.486497 -0.530693 -4.73877e-21)
(0.396303 -0.494667 6.7746e-22)
(0.298944 -0.448276 -8.64381e-22)
(0.23188 -0.358797 1.28898e-21)
(0.231868 -0.207468 -1.46521e-21)
(0.285644 -0.0192067 4.67537e-21)
(0.363783 0.163479 6.21556e-22)
(0.448127 0.314681 2.08512e-21)
(0.527508 0.425051 -5.6892e-21)
(0.591534 0.500638 4.64675e-21)
(0.628167 0.561569 1.61177e-21)
(0.633895 0.621682 -7.60587e-22)
(0.627549 0.657691 -3.22918e-21)
(0.641699 0.615215 6.99502e-21)
(0.693785 0.459773 -5.49875e-21)
(0.776587 0.214083 -2.84953e-21)
(0.86845 -0.0540208 1.63291e-20)
(0.942122 -0.274622 -2.22219e-21)
(0.982579 -0.413345 -2.46786e-22)
(0.993035 -0.475881 1.02145e-20)
(0.980271 -0.490591 -2.21441e-21)
(0.953142 -0.480544 -1.18915e-21)
(0.646723 -0.589652 -1.42624e-20)
(0.585316 -0.560506 4.55935e-21)
(0.512478 -0.522545 3.66903e-22)
(0.423234 -0.485206 1.14892e-20)
(0.323799 -0.441365 -2.50732e-21)
(0.247976 -0.360338 5.31473e-22)
(0.236563 -0.218906 8.03574e-23)
(0.283445 -0.0362129 -7.75386e-21)
(0.358429 0.145853 1.20485e-21)
(0.441762 0.298967 5.0317e-21)
(0.521545 0.412512 1.86002e-21)
(0.586598 0.491838 -2.46076e-21)
(0.624471 0.556483 4.97424e-22)
(0.631896 0.619537 1.24505e-21)
(0.628054 0.657297 4.55562e-21)
(0.645152 0.615734 -3.48168e-21)
(0.699863 0.460842 -1.62571e-20)
(0.784807 0.215269 7.61409e-21)
(0.87823 -0.053003 -3.43828e-21)
(0.952224 -0.273625 -1.14516e-20)
(0.991595 -0.412238 6.32195e-21)
(1.00042 -0.474479 3.79434e-22)
(0.986296 -0.488703 9.50522e-23)
(0.957816 -0.478542 -1.46451e-21)
(0.673597 -0.583524 2.28586e-20)
(0.610715 -0.554037 1.04535e-20)
(0.53797 -0.514739 -1.1377e-20)
(0.449973 -0.475898 6.7587e-21)
(0.349433 -0.433806 -2.20925e-21)
(0.266004 -0.360467 -5.96525e-22)
(0.24304 -0.22911 4.8298e-21)
(0.282233 -0.0526789 -6.9881e-22)
(0.353668 0.128215 -2.38399e-22)
(0.435754 0.283005 -8.15264e-22)
(0.515737 0.399626 -2.40507e-21)
(0.58168 0.482661 5.59467e-21)
(0.620749 0.550993 -1.65564e-21)
(0.629897 0.616974 6.76457e-21)
(0.628577 0.656564 -1.00436e-20)
(0.648577 0.616122 -8.77679e-21)
(0.705835 0.462028 2.12362e-20)
(0.792898 0.216739 -5.09529e-21)
(0.88792 -0.0516413 -1.23467e-21)
(0.962276 -0.272286 1.17806e-20)
(1.0006 -0.410845 -8.77877e-21)
(1.0078 -0.472898 3.0266e-22)
(0.992341 -0.486713 -8.30869e-22)
(0.96256 -0.476472 3.40646e-21)
(0.635657 -0.547673 -1.50386e-20)
(0.562933 -0.507289 1.84819e-21)
(0.476377 -0.466846 5.32807e-21)
(0.375606 -0.425768 4.8212e-21)
(0.285794 -0.359261 1.72173e-21)
(0.251397 -0.237988 1.27096e-21)
(0.282088 -0.0685147 -3.62526e-21)
(0.34951 0.110625 2.54362e-22)
(0.430096 0.266823 8.57599e-22)
(0.510077 0.386411 5.59688e-22)
(0.57677 0.473109 -1.19153e-21)
(0.616993 0.545093 -1.45345e-21)
(0.627889 0.613985 -6.35648e-21)
(0.629105 0.655485 -2.22308e-21)
(0.651959 0.616376 -8.90902e-22)
(0.711684 0.463328 5.42201e-21)
(0.800844 0.218486 -7.66526e-21)
(0.89751 -0.0499408 -1.57043e-20)
(0.97227 -0.270608 4.0656e-21)
(1.00957 -0.40917 1.53024e-21)
(1.01517 -0.471139 1.58237e-21)
(0.9984 -0.484625 7.22495e-21)
(0.967368 -0.474336 2.13965e-21)
(0.660121 -0.541399 -1.22882e-21)
(0.587334 -0.500199 2.3559e-21)
(0.502328 -0.458133 -5.29339e-21)
(0.402089 -0.417416 1.50331e-21)
(0.307141 -0.356825 3.41686e-21)
(0.261697 -0.245474 -4.09377e-21)
(0.283111 -0.0836037 3.4332e-22)
(0.345973 0.093148 6.27541e-22)
(0.42478 0.250454 1.98185e-21)
(0.504552 0.372881 -4.12659e-21)
(0.571858 0.463187 -2.53719e-22)
(0.613194 0.538778 9.42736e-21)
(0.625862 0.610564 -3.1237e-21)
(0.629626 0.654057 3.43005e-21)
(0.655281 0.616493 4.77738e-21)
(0.717391 0.464739 -1.49782e-20)
(0.808633 0.220506 2.08605e-20)
(0.906997 -0.0479069 -1.70754e-20)
(0.982198 -0.268595 1.52259e-20)
(1.01851 -0.407213 -1.20066e-20)
(1.02252 -0.469204 -1.12846e-20)
(1.00447 -0.482445 3.37021e-21)
(0.97224 -0.472136 2.1802e-21)
(0.684088 -0.535201 9.73807e-21)
(0.611157 -0.493463 -4.45881e-21)
(0.527731 -0.449827 3.21209e-21)
(0.428668 -0.40891 3.30864e-22)
(0.329816 -0.353289 3.64797e-22)
(0.273959 -0.251531 -1.61799e-21)
(0.285414 -0.0978308 5.24189e-23)
(0.343087 0.075863 1.98666e-21)
(0.419801 0.233936 5.13396e-22)
(0.499151 0.359055 1.3255e-21)
(0.566934 0.452898 -3.53815e-21)
(0.609343 0.532046 4.57707e-21)
(0.623806 0.606705 4.62185e-23)
(0.630126 0.652275 3.16995e-21)
(0.65853 0.616469 -1.45145e-20)
(0.72294 0.466256 2.80387e-20)
(0.816256 0.222791 5.42701e-21)
(0.916375 -0.0455456 -2.15735e-20)
(0.992054 -0.266252 2.17428e-20)
(1.02742 -0.404977 2.60838e-21)
(1.02985 -0.467095 -1.531e-21)
(1.01054 -0.480176 -1.06645e-20)
(0.97717 -0.469875 8.23916e-22)
(0.707541 -0.529064 2.18221e-20)
(0.634392 -0.487067 -7.71154e-21)
(0.55251 -0.441978 -3.31935e-21)
(0.455148 -0.400397 1.59851e-21)
(0.353574 -0.348801 2.26494e-21)
(0.288151 -0.256151 -9.1025e-22)
(0.289121 -0.111085 1.25995e-21)
(0.340902 0.0588588 -3.56518e-22)
(0.415161 0.217308 8.28753e-22)
(0.493866 0.344951 -1.16808e-21)
(0.56199 0.442249 1.03376e-22)
(0.605434 0.524893 -6.52371e-21)
(0.621711 0.602403 2.36082e-21)
(0.630595 0.650132 -1.88171e-21)
(0.661691 0.6163 -7.27264e-21)
(0.728315 0.467874 1.70978e-20)
(0.823704 0.225334 -1.44505e-20)
(0.925646 -0.0428628 2.45214e-20)
(1.00183 -0.263581 -7.39531e-21)
(1.03627 -0.402464 -9.06647e-22)
(1.03716 -0.464812 -6.62385e-21)
(1.01662 -0.477821 -3.65192e-21)
(0.982155 -0.467557 -1.82428e-21)
(0.730464 -0.522975 6.46565e-21)
(0.657037 -0.48099 -7.16386e-21)
(0.576609 -0.434621 7.93361e-21)
(0.481357 -0.392015 -3.55497e-21)
(0.378168 -0.343523 4.51828e-21)
(0.304189 -0.259359 -2.391e-21)
(0.294351 -0.123257 2.17452e-22)
(0.339484 0.0422323 -7.23843e-22)
(0.410867 0.20062 8.40848e-22)
(0.488687 0.330592 -1.5041e-21)
(0.557016 0.431246 5.16007e-21)
(0.601457 0.517316 -6.04247e-21)
(0.619569 0.597652 1.04971e-20)
(0.631021 0.647624 -7.85247e-21)
(0.664752 0.615979 3.15125e-21)
(0.733502 0.469585 8.86947e-21)
(0.830974 0.228127 -2.29783e-20)
(0.934814 -0.0398652 -6.85173e-21)
(1.01152 -0.260586 2.84126e-20)
(1.04506 -0.399675 -4.18039e-21)
(1.04444 -0.462356 4.06607e-21)
(1.02269 -0.475385 -3.3563e-21)
(0.98719 -0.465186 -2.02272e-21)
(0.752843 -0.51692 -1.51263e-21)
(0.679094 -0.475207 -2.65592e-20)
(0.599991 -0.427773 5.40123e-21)
(0.507145 -0.38388 1.48709e-21)
(0.403351 -0.337621 2.52033e-21)
(0.32194 -0.261209 -4.74533e-22)
(0.301207 -0.134254 6.80711e-22)
(0.338923 0.0260873 -4.32301e-22)
(0.40694 0.183926 -6.79575e-22)
(0.483613 0.316 2.42411e-21)
(0.552007 0.419896 -2.39882e-21)
(0.597406 0.509317 1.74843e-21)
(0.61737 0.592448 4.28385e-21)
(0.631394 0.644746 7.81788e-21)
(0.6677 0.615502 -1.21306e-20)
(0.738484 0.47138 -1.35312e-20)
(0.838068 0.231158 1.23074e-20)
(0.943886 -0.0365596 9.50348e-21)
(1.02112 -0.257271 -1.41695e-20)
(1.05379 -0.396613 1.48055e-21)
(1.05169 -0.459729 -6.17937e-21)
(1.02875 -0.47287 5.9156e-21)
(0.992271 -0.462762 3.88402e-21)
(0.774666 -0.510885 -7.90817e-21)
(0.70057 -0.469687 2.93448e-21)
(0.622637 -0.421438 2.44089e-21)
(0.532385 -0.376095 -3.53936e-21)
(0.428891 -0.331262 -9.61474e-22)
(0.341229 -0.261781 8.56165e-23)
(0.309763 -0.144005 -1.15978e-22)
(0.339328 0.0105664 1.62578e-22)
(0.40342 0.167292 -8.29775e-22)
(0.478647 0.301203 1.09884e-21)
(0.546959 0.40821 -6.33488e-23)
(0.593275 0.500894 -3.53437e-21)
(0.615106 0.586787 -3.81842e-21)
(0.631705 0.64149 1.79869e-21)
(0.670525 0.61486 7.38285e-23)
(0.743251 0.473251 -1.51576e-20)
(0.844994 0.234415 2.1854e-20)
(0.95288 -0.032953 -2.70646e-20)
(1.03063 -0.253636 3.22137e-20)
(1.06244 -0.393279 -7.80175e-21)
(1.0589 -0.45693 -7.89255e-21)
(1.03479 -0.470279 -1.08957e-21)
(0.997393 -0.460292 -3.99313e-21)
(0.795924 -0.50487 1.90793e-20)
(0.721471 -0.46441 -1.00145e-20)
(0.644539 -0.415613 4.6904e-21)
(0.556973 -0.368748 2.38663e-21)
(0.45457 -0.324615 -3.23673e-22)
(0.361852 -0.261186 -1.74554e-22)
(0.320053 -0.152461 -9.41974e-23)
(0.340819 -0.00416558 1.30034e-22)
(0.400364 0.15079 2.38285e-22)
(0.473806 0.286235 1.35935e-21)
(0.541871 0.396198 -1.43753e-21)
(0.589058 0.492049 -7.24407e-22)
(0.61277 0.580667 -4.91292e-21)
(0.631945 0.637852 1.71092e-20)
(0.673216 0.614047 -1.11461e-20)
(0.747791 0.475185 8.48981e-21)
(0.851774 0.237884 1.28366e-20)
(0.961819 -0.0290516 -1.68553e-20)
(1.04005 -0.249682 -1.31282e-20)
(1.07101 -0.389673 6.77712e-21)
(1.06606 -0.453961 5.08216e-21)
(1.04083 -0.467617 -7.95847e-21)
(1.00255 -0.457779 -4.44555e-21)
(0.816608 -0.498891 1.38544e-20)
(0.741807 -0.459365 -4.67461e-21)
(0.665703 -0.410298 6.52228e-21)
(0.580829 -0.361918 1.73971e-21)
(0.480191 -0.317846 -1.91715e-21)
(0.383587 -0.259555 3.13501e-22)
(0.332064 -0.159603 -2.95794e-22)
(0.343523 -0.0181923 -8.16856e-22)
(0.39785 0.134491 8.1209e-22)
(0.46912 0.271133 9.05827e-23)
(0.536751 0.383876 -1.09796e-21)
(0.584755 0.482786 3.73103e-21)
(0.610355 0.574086 -3.95409e-21)
(0.632108 0.633825 1.02248e-20)
(0.67576 0.613054 -5.526e-21)
(0.752097 0.477169 -6.38501e-21)
(0.858447 0.241552 2.59484e-21)
(0.97074 -0.0248572 1.81625e-20)
(1.04938 -0.245407 -2.5332e-20)
(1.07947 -0.3858 1.42831e-20)
(1.07317 -0.450829 1.55052e-20)
(1.04683 -0.46489 -1.80742e-20)
(1.00774 -0.45523 6.1833e-21)
(0.836714 -0.492926 -1.86963e-20)
(0.761588 -0.45451 1.21996e-20)
(0.686144 -0.405454 3.10079e-21)
(0.603893 -0.355645 9.89619e-22)
(0.505581 -0.311091 -4.12407e-22)
(0.406205 -0.257019 1.52573e-21)
(0.345708 -0.165441 -8.83719e-22)
(0.347554 -0.031426 -7.11213e-22)
(0.396008 0.118492 -8.86882e-23)
(0.464647 0.255941 7.22487e-22)
(0.53162 0.371261 -1.8785e-21)
(0.580369 0.47311 2.21125e-21)
(0.607856 0.567042 5.21895e-22)
(0.632187 0.629404 -1.41596e-21)
(0.678148 0.611873 -6.53311e-21)
(0.756171 0.479187 1.11279e-20)
(0.865083 0.245403 -8.31324e-21)
(0.979693 -0.0203727 1.26532e-20)
(1.05861 -0.240813 -8.39473e-21)
(1.08783 -0.381661 7.52049e-21)
(1.08023 -0.447528 -8.15385e-21)
(1.05282 -0.462093 3.73573e-21)
(1.01296 -0.452642 -4.12094e-21)
(0.856242 -0.486809 3.96467e-21)
(0.780823 -0.449678 1.67183e-20)
(0.705884 -0.400936 -1.28763e-21)
(0.626123 -0.349873 -2.16941e-22)
(0.530588 -0.304416 -1.2506e-21)
(0.429484 -0.253675 6.11842e-22)
(0.360874 -0.169963 7.89663e-22)
(0.353 -0.0435868 -2.90125e-21)
(0.394973 0.102895 1.90311e-21)
(0.460475 0.240719 -1.26761e-22)
(0.526517 0.35838 9.25252e-22)
(0.575911 0.46303 -5.09727e-21)
(0.605273 0.559535 4.44629e-22)
(0.632181 0.624582 1.04388e-20)
(0.680371 0.610492 -1.36119e-20)
(0.760041 0.481211 8.23404e-21)
(0.871804 0.24939 3.31523e-22)
(0.98875 -0.0156299 9.19371e-21)
(1.06775 -0.23591 -2.85406e-21)
(1.09607 -0.37724 -2.44915e-21)
(1.08722 -0.444028 5.19162e-21)
(1.05877 -0.459195 -1.11266e-20)
(1.0182 -0.449992 6.62925e-21)
(0.875186 -0.480462 -2.11717e-20)
(0.799513 -0.444782 4.01963e-21)
(0.724941 -0.396655 2.90421e-21)
(0.647489 -0.344583 1.92922e-21)
(0.555079 -0.297924 1.14689e-21)
(0.453207 -0.249678 -2.6478e-24)
(0.377407 -0.173238 -7.10035e-22)
(0.359906 -0.0546462 7.66808e-22)
(0.394899 0.0878028 -1.25082e-22)
(0.45674 0.225543 -3.0384e-22)
(0.521518 0.345273 -1.46377e-21)
(0.571414 0.452565 2.27751e-21)
(0.602621 0.551568 -5.27542e-21)
(0.632097 0.619347 1.257e-20)
(0.682428 0.608879 -1.70168e-20)
(0.763792 0.483168 1.14569e-20)
(0.87882 0.253432 -8.23448e-21)
(0.998008 -0.010677 1.45085e-21)
(1.0768 -0.230679 2.00173e-21)
(1.10418 -0.372512 6.05593e-21)
(1.09415 -0.440313 -4.96584e-21)
(1.0647 -0.456193 -5.28982e-21)
(1.02345 -0.447285 7.0283e-21)
(0.817664 -0.440528 9.83434e-21)
(0.743343 -0.393175 -3.4481e-21)
(0.66798 -0.340268 2.59698e-21)
(0.578943 -0.292117 1.34985e-21)
(0.47718 -0.245507 1.6011e-21)
(0.39513 -0.175612 1.32243e-21)
(0.368268 -0.0647874 -4.50019e-21)
(0.395948 0.0731684 2.68539e-21)
(0.45364 0.210419 -1.0913e-21)
(0.516765 0.331961 -1.92189e-22)
(0.566956 0.441733 -1.09449e-21)
(0.599949 0.543159 7.23408e-21)
(0.631981 0.613715 -7.65284e-21)
(0.684377 0.607041 7.76812e-21)
(0.76767 0.485086 -1.85088e-20)
(0.886503 0.257698 2.32856e-20)
(1.0076 -0.00533737 -1.74396e-20)
(1.08575 -0.224989 -6.98937e-21)
(1.11215 -0.367538 1.6235e-20)
(1.101 -0.436555 -1.02621e-20)
(1.07058 -0.453283 -3.07112e-21)
(1.02871 -0.444697 4.30453e-21)
(0.835319 -0.437961 -7.84367e-22)
(0.761153 -0.391351 1.30918e-21)
(0.687629 -0.337628 -1.08214e-21)
(0.602114 -0.287582 -2.25637e-21)
(0.501248 -0.241602 5.76946e-22)
(0.413873 -0.177357 -1.41224e-21)
(0.378038 -0.0742228 1.5813e-21)