/*--------------------------------*- C++ -*----------------------------------*\
  =========                 |
  \\      /  F ield         | OpenFOAM: The Open Source CFD Toolbox
   \\    /   O peration     | Website:  https://openfoam.org
    \\  /    A nd           | Version:  7
     \\/     M anipulation  |
\*---------------------------------------------------------------------------*/
FoamFile
{
    version     2.0;
    format      ascii;
    class       surfaceScalarField;
    location    "280";
    object      phi;
}
// * * * * * * * * * * * * * * * * * * * * * * * * * * * * * * * * * * * * * //

dimensions      [0 3 -1 0 0 0 0];

internalField   nonuniform List<scalar> 
72657
(
-1.61778e-06
3.9148e-05
-3.75303e-05
-6.01511e-06
9.62005e-05
-9.18032e-05
-1.29166e-05
0.000136564
-0.000129662
-2.20721e-05
0.000161935
-0.000152779
-3.32615e-05
0.00017429
-0.0001631
-4.63003e-05
0.000175747
-0.000162708
-6.10395e-05
0.000168415
-0.000153676
-7.73638e-05
0.00015424
-0.000137916
-9.51878e-05
0.000134856
-0.000117032
-0.000114451
0.000111481
-9.22174e-05
-0.000135117
8.48577e-05
-6.41917e-05
-0.000157172
5.52502e-05
-3.31954e-05
-0.000180629
2.24807e-05
9.76203e-07
-0.000205535
-1.40053e-05
3.89108e-05
-0.000231975
-5.50722e-05
8.15123e-05
-0.000260079
-0.000101845
0.000129949
-0.000290019
-0.000155689
0.00018563
-0.000322001
-0.000218214
0.000250195
-0.000356228
-0.000291279
0.000325506
-0.000377156
0.000413839
-0.000392911
-1.5717e-06
4.07197e-05
-5.87578e-06
0.000100505
-1.26698e-05
0.000143358
-2.17271e-05
0.000170992
-3.28425e-05
0.000185405
-4.58377e-05
0.000188742
-6.05635e-05
0.000183141
-7.68996e-05
0.000170576
-9.4752e-05
0.000152709
-0.000114051
0.00013078
-0.000134751
0.000105558
-0.000156832
7.73307e-05
-0.000180303
4.59514e-05
-0.000205211
1.09029e-05
-0.000231649
-2.86337e-05
-0.000259761
-7.37328e-05
-0.000289742
-0.000125708
-0.000321831
-0.000186125
-0.000356276
-0.000256834
-0.000340082
-0.000393351
-1.51144e-06
4.22312e-05
-5.68638e-06
0.00010468
-1.23192e-05
0.00014999
-2.12094e-05
0.000179882
-3.2168e-05
0.000196364
-4.50236e-05
0.000201597
-5.96261e-05
0.000197744
-7.58485e-05
0.000186799
-9.35863e-05
0.000170446
-0.000112758
0.000149951
-0.000133303
0.000126104
-0.000155191
9.92188e-05
-0.000178422
6.91819e-05
-0.000203036
3.55169e-05
-0.000229124
-2.54588e-06
-0.000256834
-4.60231e-05
-0.000286374
-9.61677e-05
-0.000318009
-0.00015449
-0.000352027
-0.000222816
-0.000303355
-0.000388755
-1.43699e-06
4.36682e-05
-5.44651e-06
0.000108689
-1.18634e-05
0.000156407
-2.05159e-05
0.000188535
-3.1233e-05
0.000207081
-4.38507e-05
0.000214215
-5.82177e-05
0.000212111
-7.41989e-05
0.00020278
-9.16775e-05
0.000187925
-0.000110556
0.00016883
-0.000130759
0.000146307
-0.000152238
0.000120697
-0.000174976
9.19202e-05
-0.000199
5.95414e-05
-0.000224391
2.28444e-05
-0.000251289
-1.91246e-05
-0.000279908
-6.75489e-05
-0.000310528
-0.00012387
-0.000343468
-0.000189876
-0.000267717
-0.000379106
-1.3485e-06
4.50167e-05
-5.15638e-06
0.000112497
-1.13024e-05
0.000162553
-1.96461e-05
0.000196878
-3.0036e-05
0.000217471
-4.23165e-05
0.000226496
-5.63347e-05
0.000226129
-7.19467e-05
0.000218392
-8.90216e-05
0.000205
-0.000107444
0.000187252
-0.000127118
0.000165981
-0.000147974
0.000141553
-0.000169972
0.000113919
-0.000193119
8.26878e-05
-0.000217472
4.71978e-05
-0.000243158
6.56177e-06
-0.000270383
-4.03247e-05
-0.000299432
-9.48213e-05
-0.000330651
-0.000158656
-0.000233906
-0.000364463
-1.24637e-06
4.6263e-05
-4.81712e-06
0.000116068
-1.0638e-05
0.000168374
-1.86023e-05
0.000204843
-2.85795e-05
0.000227448
-4.04234e-05
0.000238339
-5.39797e-05
0.000239685
-6.90954e-05
0.000233508
-8.56236e-05
0.000221528
-0.000103429
0.000205058
-0.000122392
0.000184944
-0.000142417
0.000161578
-0.000163437
0.000134939
-0.000185427
0.000104678
-0.000208417
7.01874e-05
-0.000232505
3.06501e-05
-0.000257878
-1.49522e-05
-0.000284818
-6.7881e-05
-0.000313691
-0.000129783
-0.000202639
-0.000344958
-1.13123e-06
4.73943e-05
-4.4306e-06
0.000119367
-9.87359e-06
0.000173817
-1.73893e-05
0.000212358
-2.68697e-05
0.000236928
-3.81787e-05
0.000249648
-5.11616e-05
0.000252668
-6.56555e-05
0.000248002
-8.14971e-05
0.00023737
-9.85289e-05
0.00022209
-0.000116606
0.000203021
-0.000135601
0.000180573
-0.000155414
0.000154752
-0.000175984
0.000125248
-0.000197301
9.15042e-05
-0.000219426
5.27749e-05
-0.000242513
8.13489e-06
-0.000266831
-4.35626e-05
-0.000292759
-0.000103855
-0.000174606
-0.000320792
-1.00396e-06
4.83982e-05
-3.99948e-06
0.000122363
-9.01413e-06
0.000178832
-1.60144e-05
0.000219359
-2.49161e-05
0.00024583
-3.55944e-05
0.000260327
-4.78947e-05
0.000264969
-6.16447e-05
0.000261752
-7.66639e-05
0.000252389
-9.27714e-05
0.000238197
-0.000109793
0.000220043
-0.00012757
0.000198349
-0.000145963
0.000173145
-0.000164866
0.000144152
-0.000184223
0.000110861
-0.000204046
7.25976e-05
-0.000224445
2.85336e-05
-0.000245662
-2.23458e-05
-0.00026808
-8.14366e-05
-0.000150455
-0.000292231
-8.65752e-07
4.9264e-05
-3.52737e-06
0.000125024
-8.06588e-06
0.00018337
-1.44873e-05
0.00022578
-2.27315e-05
0.000254074
-3.26865e-05
0.000270282
-4.41989e-05
0.000276481
-5.70871e-05
0.00027464
-7.11532e-05
0.000266455
-8.61923e-05
0.000253236
-0.000102
0.000235851
-0.000118382
0.00021473
-0.000135155
0.000189919
-0.000152166
0.000161163
-0.000169302
0.000127997
-0.000186516
8.98107e-05
-0.00020386
4.58779e-05
-0.000221537
-4.66849e-06
-0.000239929
-6.30451e-05
-0.000130789
-0.000259595
-7.18038e-07
4.9982e-05
-3.0187e-06
0.000127325
-7.03712e-06
0.000187389
-1.28195e-05
0.000231562
-2.0332e-05
0.000261587
-2.94756e-05
0.000279425
-4.00992e-05
0.000287104
-5.20129e-05
0.000286554
-6.50015e-05
0.000279444
-7.88358e-05
0.00026707
-9.32806e-05
0.000250296
-0.000108102
0.000229552
-0.000123075
0.000204891
-0.00013799
0.000176078
-0.000152672
0.000142679
-0.000167004
0.000104143
-0.00018097
5.98442e-05
-0.000194718
9.07948e-06
-0.000208617
-4.91464e-05
-0.000116156
-0.000223251
-5.62455e-07
5.05445e-05
-2.47848e-06
0.000129241
-5.93721e-06
0.000190848
-1.10256e-05
0.000236651
-1.77366e-05
0.000268298
-2.59861e-05
0.000287675
-3.56257e-05
0.000296744
-4.6458e-05
0.000297386
-5.82515e-05
0.000291237
-7.07527e-05
0.000279572
-8.36952e-05
0.000263239
-9.68065e-05
0.000242663
-0.000109814
0.000217899
-0.000122452
0.000188716
-0.000134477
0.000154704
-0.000145694
0.00011536
-0.000156006
7.01558e-05
-0.000165489
1.85626e-05
-0.000174489
-4.01464e-05
-0.000107043
-0.000183602
-4.00693e-07
5.09452e-05
-1.9124e-06
0.000130753
-4.77679e-06
0.000193712
-9.12161e-06
0.000240996
-1.49676e-05
0.000274144
-2.22462e-05
0.000294953
-3.08128e-05
0.000305311
-4.04636e-05
0.000307037
-5.09517e-05
0.000301725
-6.20001e-05
0.00029062
-7.33117e-05
0.00027455
-8.45754e-05
0.000253927
-9.54709e-05
0.000228794
-0.000105674
0.000198919
-0.000114869
0.000163899
-0.000122777
0.000123268
-0.000129206
7.65846e-05
-0.000134147
2.35039e-05
-0.000137908
-3.63857e-05
-0.000103871
-0.00014108
-2.34525e-07
5.11797e-05
-1.32628e-06
0.000131844
-3.56766e-06
0.000195953
-7.12592e-06
0.000244554
-1.20501e-05
0.000279068
-1.82877e-05
0.000301191
-2.56993e-05
0.000312722
-3.40758e-05
0.000315413
-4.31559e-05
0.000310805
-5.26406e-05
0.000300105
-6.22029e-05
0.000284112
-7.14942e-05
0.000263218
-8.01471e-05
0.000237447
-8.77789e-05
0.000206551
-9.40004e-05
0.000170121
-9.84425e-05
0.00012771
-0.00010081
7.89523e-05
-0.000100993
2.36871e-05
-9.92457e-05
-3.81334e-05
-0.000106984
-9.61321e-05
-6.59053e-08
5.12456e-05
-7.26404e-07
0.000132505
-2.32214e-06
0.000197549
-5.05822e-06
0.00024729
-9.01134e-06
0.000283021
-1.41457e-05
0.000306325
-2.03278e-05
0.000318904
-2.73448e-05
0.00032243
-3.49225e-05
0.000318383
-4.27412e-05
0.000307923
-5.04458e-05
0.000291817
-5.76517e-05
0.000270424
-6.39465e-05
0.000243742
-6.88897e-05
0.000211494
-7.20195e-05
0.000173251
-7.28742e-05
0.000128565
-7.10479e-05
7.71259e-05
-6.63145e-05
1.89538e-05
-5.88756e-05
-4.55723e-05
-0.000116627
-4.92333e-05
1.03748e-07
5.11418e-05
-1.19302e-07
0.000132728
-1.05338e-06
0.000198483
-2.93928e-06
0.000249176
-5.88052e-06
0.000285962
-9.85767e-06
0.000310302
-1.47443e-05
0.000323791
-2.03248e-05
0.000328011
-2.63139e-05
0.000324372
-3.2373e-05
0.000313982
-3.81208e-05
0.000297565
-4.3139e-05
0.000275442
-4.69725e-05
0.000247575
-4.91265e-05
0.000213649
-4.90683e-05
0.000173192
-4.62435e-05
0.00012574
-4.01298e-05
7.10123e-05
-3.0354e-05
9.17796e-06
-1.70516e-05
-5.88747e-05
-0.000132039
-1.63947e-06
2.71555e-07
5.08703e-05
4.88129e-07
0.000132511
2.2568e-07
0.000198746
-7.90923e-07
0.000250192
-2.6883e-06
0.00028786
-5.46334e-06
0.000313077
-8.99727e-06
0.000327325
-1.30732e-05
0.000332087
-1.73963e-05
0.000328695
-2.16107e-05
0.000318197
-2.53111e-05
0.000301265
-2.80483e-05
0.000278179
-2.93278e-05
0.000248855
-2.86045e-05
0.000212925
-2.52786e-05
0.000169867
-1.87054e-05
0.000119167
-8.24547e-06
6.05523e-05
6.59984e-06
-5.66735e-06
2.6085e-05
-7.83599e-05
-0.000154949
4.89952e-05
4.36058e-07
5.04342e-05
1.08878e-06
0.000131859
1.4992e-06
0.000198335
1.36453e-06
0.000250327
5.33706e-07
0.000288691
-1.00413e-06
0.000314615
-3.13786e-06
0.000329459
-5.65043e-06
0.000334599
-8.23886e-06
0.000331284
-1.05319e-05
0.00032049
-1.21026e-05
0.000302836
-1.24732e-05
0.00027855
-1.11138e-05
0.000247496
-7.43348e-06
0.000209245
-7.71443e-07
0.000163205
9.60263e-06
0.000108793
2.44541e-05
4.57009e-05
4.44691e-05
-2.56824e-05
6.98474e-05
-0.000103738
-0.000185091
9.99888e-05
5.95091e-07
4.98391e-05
1.67573e-06
0.000130778
2.75459e-06
0.000197256
3.5039e-06
0.000249578
3.75287e-06
0.000288442
3.4773e-06
0.000314891
2.78115e-06
0.000330155
1.88084e-06
0.000335499
1.0865e-06
0.000332078
7.82789e-07
0.000320794
1.41688e-06
0.000302202
3.49161e-06
0.000276475
7.56974e-06
0.000243417
1.4282e-05
0.000202533
2.43437e-05
0.000153143
3.85626e-05
9.45738e-05
5.78209e-05
2.64425e-05
8.2967e-05
-5.08284e-05
0.000114411
-0.000135182
-0.000222305
0.000151626
7.46661e-07
4.90925e-05
2.24193e-06
0.000129283
3.97701e-06
0.000195521
5.60425e-06
0.000247951
6.93637e-06
0.000287109
7.9376e-06
0.00031389
8.70569e-06
0.000329387
9.45662e-06
0.000334749
1.05062e-05
0.000331029
1.22517e-05
0.000319048
1.51581e-05
0.000299295
1.97522e-05
0.000271881
2.66245e-05
0.000236545
3.64422e-05
0.000192715
4.99672e-05
0.000139618
6.80752e-05
7.64658e-05
9.17543e-05
2.76347e-06
0.000122022
-8.10959e-05
0.000159505
-0.000172666
-0.000266615
0.000203815
8.88888e-07
4.82036e-05
2.78068e-06
0.000127391
5.15245e-06
0.000193149
7.64273e-06
0.00024546
1.00512e-05
0.000284701
1.23331e-05
0.000311608
1.45813e-05
0.000327138
1.70114e-05
0.000332318
1.99448e-05
0.000328095
2.37902e-05
0.000315203
2.90296e-05
0.000294056
3.62113e-05
0.000264699
4.59522e-05
0.000226804
5.89507e-05
0.000179716
7.60084e-05
0.00012256
9.80579e-05
5.44164e-05
0.000126179
-2.53575e-05
0.000161549
-0.000116467
0.000205026
-0.000216142
-0.000318017
0.000256428
1.02003e-06
4.71836e-05
3.28567e-06
0.000125125
6.26773e-06
0.000190167
9.59717e-06
0.000242131
1.30655e-05
0.000281233
1.6621e-05
0.000308052
2.03539e-05
0.000323405
2.44804e-05
0.000328192
2.93272e-05
0.000323248
3.53143e-05
0.000309216
4.294e-05
0.00028643
5.27734e-05
0.000254866
6.5456e-05
0.000214122
8.17142e-05
0.000163458
0.000102383
0.000101891
0.000128441
2.83584e-05
0.000161043
-5.79589e-05
0.00020151
-0.000156934
0.000250932
-0.000265565
-0.00037649
0.000309406
1.13847e-06
4.60451e-05
3.75103e-06
0.000122513
7.31048e-06
0.000186608
1.14467e-05
0.000237995
1.59482e-05
0.000276731
2.07598e-05
0.000303241
2.59709e-05
0.000318194
3.17997e-05
0.000322363
3.85792e-05
0.000316469
4.67406e-05
0.000301054
5.67986e-05
0.000276372
6.93431e-05
0.000242322
8.50399e-05
0.000198425
0.000104642
0.000143857
0.000129012
7.75202e-05
0.000159166
-1.7951e-06
0.000196313
-9.51054e-05
0.000241895
-0.000202517
0.000297227
-0.000320897
-0.000442012
0.000362749
1.24282e-06
4.48023e-05
4.17151e-06
0.000119584
8.26932e-06
0.00018251
1.31723e-05
0.000233092
1.86708e-05
0.000271233
2.47103e-05
0.000297201
3.13821e-05
0.000311523
3.89084e-05
0.000314837
4.76294e-05
0.000307748
5.79885e-05
0.000290695
7.05175e-05
0.000263843
8.58283e-05
0.000227011
0.000104611
0.000179642
0.000127646
0.000120822
0.000155822
4.9344e-05
0.000190181
-3.61541e-05
0.00023197
-0.000136895
0.000282725
-0.000253271
0.000343956
-0.000382128
-0.000514562
0.000416506
1.33186e-06
4.34704e-05
4.54255e-06
0.000116373
9.13433e-06
0.000177918
1.47564e-05
0.00022747
2.12073e-05
0.000264782
2.8437e-05
0.000289971
3.65417e-05
0.000303418
4.57501e-05
0.000305628
5.64114e-05
0.000297087
6.89826e-05
0.000278124
8.40144e-05
0.000248811
0.000102142
0.000208883
0.000124084
0.0001577
0.000150646
9.42601e-05
0.000182744
1.72451e-05
0.000221443
-7.48523e-05
0.000268008
-0.00018346
0.000324034
-0.000309297
0.000391192
-0.000449286
-0.000594125
0.000470755
1.40466e-06
4.20658e-05
4.86051e-06
0.000112917
9.89737e-06
0.000172882
1.61848e-05
0.000221182
2.35356e-05
0.000257431
3.19091e-05
0.000281598
4.14093e-05
0.000293918
5.22747e-05
0.000294763
6.48661e-05
0.000284495
7.96559e-05
0.000263334
9.72161e-05
0.000231251
0.000118208
0.000187891
0.000143381
0.000132528
0.000173571
6.40699e-05
0.000209723
-1.8907e-05
0.000252918
-0.000118047
0.000304429
-0.000234971
0.00036587
-0.000370739
0.000439026
-0.000522442
-0.000680696
0.000525597
1.46055e-06
4.06052e-05
5.1227e-06
0.000109255
1.05523e-05
0.000167452
1.74465e-05
0.000214288
2.56382e-05
0.000249239
3.51016e-05
0.000272134
4.59523e-05
0.000283067
5.84414e-05
0.000282274
7.29446e-05
0.000269992
8.99531e-05
0.000246326
0.000110063
0.000211142
0.000133965
0.000163988
0.000162442
0.000104051
0.000196368
3.0144e-05
0.000236717
-5.92561e-05
0.000284588
-0.000165918
0.000341247
-0.000291629
0.000408291
-0.000437783
0.000487559
-0.000601709
-0.000774269
0.000581132
1.4992e-06
3.9106e-05
5.32758e-06
0.000105427
1.10952e-05
0.000161684
1.85339e-05
0.000206849
2.75032e-05
0.00024027
3.79967e-05
0.000261641
5.01465e-05
0.000270917
6.42201e-05
0.0002682
8.06116e-05
0.000253601
9.98344e-05
0.000227103
0.000122512
0.000188464
0.000149371
0.000137129
0.000181233
7.21897e-05
0.00021901
-7.63355e-06
0.000263714
-0.00010396
0.000316459
-0.000218663
0.000378495
-0.000353666
0.000451364
-0.000510652
0.000536894
-0.000687239
-0.000874826
0.000637451
1.52061e-06
3.75854e-05
5.47481e-06
0.000101473
1.15247e-05
0.000155635
1.94439e-05
0.00019893
2.91242e-05
0.00023059
4.05851e-05
0.00025018
5.39791e-05
0.000257523
6.95941e-05
0.000252585
8.78477e-05
0.000235347
0.00010928
0.000205671
0.000134546
0.000163197
0.000164413
0.000107263
0.000199744
3.68582e-05
0.000241501
-4.93901e-05
0.00029073
-0.000153189
0.000348566
-0.000276499
0.00041623
-0.00042133
0.000495165
-0.000589587
0.000587131
-0.000779206
-0.000982313
0.000694618
1.52514e-06
3.60603e-05
5.56543e-06
9.74325e-05
1.18424e-05
0.000149358
2.0178e-05
0.000190594
3.05026e-05
0.000220265
4.28665e-05
0.000237816
5.7449e-05
0.000242941
7.45628e-05
0.000235472
9.4653e-05
0.000215257
0.000118292
0.000182032
0.000146173
0.000135316
0.000179106
7.433e-05
0.000218006
-2.04196e-06
0.000263883
-9.52672e-05
0.000317826
-0.000207132
0.000380982
-0.000339655
0.000454535
-0.000494883
0.000539781
-0.000674832
0.000638359
-0.000877785
-0.00109661
0.000752655
1.51357e-06
3.45467e-05
5.60188e-06
9.33441e-05
1.20528e-05
0.000142907
2.07428e-05
0.000181904
3.16467e-05
0.000209361
4.48519e-05
0.000224611
6.05693e-05
0.000227223
7.91424e-05
0.000216898
0.000101049
0.00019335
0.0001269
0.000156182
0.000157432
0.000104784
0.000193505
3.82569e-05
0.000236089
-4.46257e-05
0.000286246
-0.000145424
0.000345105
-0.000265991
0.000413819
-0.000408369
0.000493521
-0.000574585
0.000585302
-0.000766614
0.000690644
-0.000983126
-0.00121749
0.000811521
1.48709e-06
3.30596e-05
5.5881e-06
8.92431e-05
1.21635e-05
0.000136331
2.11503e-05
0.000172918
3.25734e-05
0.000197938
4.65629e-05
0.000210622
6.3368e-05
0.000210418
8.33686e-05
0.000196898
0.000107082
0.000169637
0.000135162
0.000128102
0.000168396
7.15487e-05
0.000207701
-1.04777e-06
0.000254104
-9.10281e-05
0.000308719
-0.00020004
0.000372711
-0.000329983
0.000447224
-0.000482882
0.000533315
-0.000660676
0.000631814
-0.000865112
0.00074401
-0.00109532
-0.00134457
0.000871094
1.44731e-06
3.16123e-05
5.52951e-06
8.51609e-05
1.21854e-05
0.000129675
2.14178e-05
0.000163685
3.33075e-05
0.000186048
4.80331e-05
0.000195896
6.58883e-05
0.000192563
8.72963e-05
0.00017549
0.00011282
0.000144113
0.000143164
9.77576e-05
0.000179174
3.5539e-05
0.000221824
-4.36984e-05
0.000272203
-0.000141407
0.000331476
-0.000259312
0.000400826
-0.000399333
0.000481369
-0.000563425
0.000574052
-0.000753358
0.000679373
-0.000970433
0.000798416
-0.00121437
-0.00147729
0.000931141
1.39623e-06
3.02161e-05
5.43304e-06
8.11241e-05
1.21325e-05
0.000122976
2.1568e-05
0.00015425
3.3882e-05
0.000173734
4.93074e-05
0.00018047
6.81889e-05
0.000173681
9.10003e-05
0.000152679
0.000118357
0.000116757
0.000151022
6.50925e-05
0.000189903
-3.34167e-06
0.000236038
-8.98339e-05
0.000290574
-0.000195943
0.000354716
-0.000323454
0.000429651
-0.000474268
0.000516427
-0.000650201
0.000615841
-0.000852772
0.000727987
-0.00108258
0.000853732
-0.00134011
-0.00161487
0.000991306
1.33626e-06
2.88798e-05
5.30697e-06
7.71534e-05
1.20216e-05
0.000116261
2.16289e-05
0.000144642
3.43376e-05
0.000161026
5.04413e-05
0.000164367
7.03426e-05
0.00015378
9.45731e-05
0.000128448
0.000123809
8.75211e-05
0.000158876
3.00249e-05
0.00020075
-4.52155e-05
0.000250534
-0.000139618
0.000309427
-0.000254836
0.000378658
-0.000392685
0.000459388
-0.000554998
0.000552556
-0.000743369
0.000658747
-0.000958963
0.00077759
-0.00120142
0.000909708
-0.00147223
-0.00175625
0.00105109
1.27018e-06
2.76096e-05
5.16086e-06
7.32627e-05
1.18723e-05
0.00010955
2.16326e-05
0.000134882
3.4722e-05
0.000147936
5.15005e-05
0.000147588
7.24353e-05
0.000132845
9.81235e-05
0.00010276
0.000129308
5.63363e-05
0.000166886
-7.55327e-06
0.000211902
-9.02307e-05
0.00026552
-0.000193236
0.00032898
-0.000318297
0.000403514
-0.000467219
0.000490214
-0.000641699
0.00058986
-0.000843014
0.000702753
-0.00107186
0.000828019
-0.00132669
0.000965964
-0.00161017
-0.00190012
0.00110983
1.20103e-06
2.64086e-05
5.00528e-06
6.94585e-05
1.17064e-05
0.000102849
2.16154e-05
0.000124973
3.50885e-05
0.000134463
5.25581e-05
0.000130119
7.45629e-05
0.00011084
0.000101772
7.55505e-05
0.000135003
2.31051e-05
0.000175227
-4.77766e-05
0.000223555
-0.000138559
0.000281207
-0.000250889
0.000349446
-0.000386535
0.00042947
-0.000547242
0.00052226
-0.000734489
0.000628371
-0.000949125
0.000747739
-0.00119122
0.000878989
-0.00145794
0.00102196
-0.00175315
-0.00204492
0.00116676
1.13209e-06
2.52765e-05
4.85159e-06
6.5739e-05
1.15474e-05
9.61528e-05
2.16161e-05
0.000114904
3.54946e-05
0.000120585
5.36933e-05
0.00011192
7.68285e-05
8.77053e-05
0.000105648
4.67308e-05
0.000141049
-1.22952e-05
0.000184075
-9.08033e-05
0.000235905
-0.000190388
0.000297797
-0.000312781
0.000371009
-0.000459747
0.000456666
-0.0006329
0.000555581
-0.000833404
0.000668019
-0.00106156
0.000793464
-0.00131667
0.000930085
-0.00159456
0.00107696
-0.00190002
-0.00218902
0.00122106
1.06678e-06
2.42097e-05
4.71161e-06
6.20941e-05
1.14194e-05
8.9445e-05
2.16752e-05
0.000104649
3.60002e-05
0.00010626
5.49881e-05
9.29319e-05
7.93383e-05
6.3355e-05
0.000109883
1.61863e-05
0.000147599
-5.00115e-05
0.000193606
-0.00013681
0.000249134
-0.000245917
0.000315462
-0.000379108
0.000393807
-0.000538093
0.000485172
-0.000724265
0.000590139
-0.000938371
0.000708628
-0.00118005
0.000839597
-0.00144764
0.000980845
-0.00173581
0.00113001
-0.00204919
-0.00233105
0.00127205
1.00853e-06
2.32012e-05
4.5972e-06
5.85055e-05
1.13471e-05
8.26951e-05
2.18335e-05
9.41622e-05
3.66655e-05
9.14278e-05
5.65242e-05
7.30732e-05
8.21973e-05
3.76819e-05
0.000114603
-1.62198e-05
0.000154801
-9.02095e-05
0.000203977
-0.000185986
0.0002634
-0.000305339
0.000334336
-0.000450044
0.00041792
-0.000621677
0.000514974
-0.000821319
0.000625786
-0.00104918
0.000749883
-0.00130415
0.000885718
-0.00158347
0.0010309
-0.00188099
0.00118044
-0.00219873
-0.00246959
0.00131897
9.60672e-07
2.22405e-05
4.51995e-06
5.49462e-05
1.13543e-05
7.58607e-05
2.21306e-05
8.3386e-05
3.75485e-05
7.60099e-05
5.83803e-05
5.22413e-05
8.55048e-05
1.05575e-05
0.000119928
-5.06434e-05
0.000162787
-0.000133069
0.000215323
-0.000238522
0.000278819
-0.000368835
0.000354495
-0.00052572
0.00044335
-0.000710531
0.000545959
-0.000923929
0.000662253
-0.00116548
0.000791317
-0.00143321
0.000931177
-0.00172333
0.00107958
-0.00202939
0.00122897
-0.00234812
-0.00260102
0.00136041
9.26217e-07
2.13143e-05
4.49052e-06
5.13819e-05
1.14633e-05
6.8888e-05
2.26033e-05
7.22459e-05
3.87032e-05
5.99101e-05
6.06285e-05
3.0316e-05
8.93502e-05
-1.81643e-05
0.000125961
-8.72538e-05
0.000171666
-0.000178774
0.000227744
-0.0002946
0.000295466
-0.000436556
0.000375957
-0.000606212
0.000470023
-0.000804597
0.000577927
-0.00103183
0.000699169
-0.00128672
0.000832343
-0.00156639
0.000975013
-0.001866
0.00112472
-0.00217909
0.00127587
-0.00249928
-0.00278591
0.00146077
9.08217e-07
2.04061e-05
4.51911e-06
4.7771e-05
1.16946e-05
6.17125e-05
2.32854e-05
6.06551e-05
4.01777e-05
4.30178e-05
6.33315e-05
7.16226e-06
9.38089e-05
-4.86418e-05
0.000132783
-0.000126228
0.000181515
-0.000227506
0.0002413
-0.000354386
0.000313356
-0.000508612
0.000398668
-0.000691523
0.000497782
-0.000903711
0.000610582
-0.00114463
0.000736083
-0.00141222
0.000872335
-0.00170264
0.00101642
-0.00201009
0.00116536
-0.00232804
0.00131415
-0.00264807
-0.00294831
0.00147655
9.08932e-07
1.94972e-05
4.61388e-06
4.4066e-05
1.20653e-05
5.42611e-05
2.42048e-05
4.85156e-05
4.20119e-05
2.52106e-05
6.65402e-05
-1.7366e-05
9.89391e-05
-8.10407e-05
0.000140453
-0.000167741
0.000192382
-0.000279436
0.000256008
-0.000418011
0.000332454
-0.000585058
0.000422508
-0.000781577
0.000526399
-0.0010076
0.000643571
-0.0012618
0.000772507
-0.00154116
0.000910699
-0.00184083
0.00105474
-0.00215413
0.001201
-0.0024743
0.00134472
-0.00279178
-0.00309431
0.00149071
9.30266e-07
1.85669e-05
4.78155e-06
4.02148e-05
1.25891e-05
4.64536e-05
2.53835e-05
3.57211e-05
4.42365e-05
6.35771e-06
7.02916e-05
-4.34212e-05
0.00010478
-0.000115529
0.000149002
-0.000211963
0.000204277
-0.000334711
0.000271836
-0.00048557
0.000352665
-0.000665886
0.000447296
-0.000876209
0.000555582
-0.00111589
0.000676482
-0.0013827
0.000807931
-0.00167261
0.000946879
-0.00197978
0.00108949
-0.00229675
0.00123167
-0.00261648
0.00136887
-0.00292898
-0.0032273
0.00150186
9.73583e-07
1.75933e-05
5.02701e-06
3.61613e-05
1.3276e-05
3.82046e-05
2.68375e-05
2.21596e-05
4.68719e-05
-1.36767e-05
7.46083e-05
-7.11575e-05
0.000111348
-0.000152268
0.000158434
-0.000259049
0.000217174
-0.000393451
0.000288711
-0.000557107
0.000373842
-0.000751017
0.000472793
-0.000975159
0.000584988
-0.00122808
0.000708872
-0.00150659
0.000841842
-0.00180558
0.000980368
-0.0021183
0.0011203
-0.00243668
0.0012573
-0.00275347
0.00138715
-0.00305883
-0.00334908
0.00150892
1.03969e-06
1.65536e-05
5.35324e-06
3.18478e-05
1.4132e-05
2.94258e-05
2.85755e-05
7.71616e-06
4.99283e-05
-3.50295e-05
7.94973e-05
-0.000100726
0.000118642
-0.000191413
0.000168724
-0.000309132
0.000231011
-0.000455737
0.000306515
-0.000632612
0.000395794
-0.000840297
0.000498715
-0.00107808
0.000614239
-0.00134361
0.000740285
-0.00163263
0.000873751
-0.00193904
0.00101072
-0.00225527
0.00114685
-0.00257282
0.00127782
-0.00288444
0.00139985
-0.00318086
-0.00346075
0.00151152
1.12885e-06
1.54248e-05
5.76139e-06
2.72152e-05
1.51594e-05
2.00278e-05
3.05999e-05
-7.72431e-06
5.34056e-05
-5.78352e-05
8.49511e-05
-0.000132272
0.000126638
-0.000233099
0.000179822
-0.000362317
0.000245694
-0.000521609
0.000325093
-0.000712011
0.000418289
-0.000933492
0.000524745
-0.00118454
0.000642935
-0.0014618
0.000770269
-0.00175997
0.000903203
-0.00207197
0.00103754
-0.00238961
0.00116893
-0.0027042
0.00129323
-0.00300874
0.00140723
-0.00329486
-0.00356309
0.00150956
1.24081e-06
1.4184e-05
6.25082e-06
2.22052e-05
1.63564e-05
9.92216e-06
3.29065e-05
-2.42744e-05
5.72938e-05
-8.22225e-05
9.09483e-05
-0.000165926
0.000135294
-0.000277445
0.000191654
-0.000418677
0.000261103
-0.000591058
0.000344262
-0.000795171
0.000441068
-0.0010303
0.000550547
-0.00129402
0.000670677
-0.00158193
0.000798394
-0.00188769
0.000929799
-0.00220338
0.00106055
-0.00252036
0.00118641
-0.00283006
0.00130359
-0.00312592
0.00140952
-0.00340078
-0.0036567
0.00150313
1.37493e-06
1.2809e-05
6.81939e-06
1.67608e-05
1.77184e-05
-9.76839e-07
3.54857e-05
-4.20417e-05
6.15745e-05
-0.000108311
9.74553e-05
-0.000201807
0.000144552
-0.000324541
0.000204124
-0.000478249
0.000277092
-0.000664026
0.000363814
-0.000881892
0.000463851
-0.00113034
0.000575773
-0.00140594
0.000697073
-0.00170323
0.00082427
-0.00201488
0.000953207
-0.00233232
0.00107953
-0.00264668
0.00119924
-0.00294976
0.00130904
-0.00323573
0.001407
-0.00349874
-0.00374219
0.00149248
1.53016e-06
1.12789e-05
7.46364e-06
1.08273e-05
1.92376e-05
-1.27508e-05
3.83229e-05
-6.1127e-05
6.62218e-05
-0.00013621
0.000104428
-0.000240013
0.000154341
-0.000374454
0.000217123
-0.000541031
0.000293499
-0.000740402
0.000383523
-0.000971917
0.000486351
-0.00123316
0.000600084
-0.00151967
0.000721762
-0.00182491
0.000847556
-0.00214068
0.000973169
-0.00245793
0.00109435
-0.00276787
0.00120747
-0.00306288
0.00130978
-0.00333804
0.00139999
-0.00358895
-0.00382012
0.00147792
1.70525e-06
9.57362e-06
8.17915e-06
4.35339e-06
2.09043e-05
-2.5476e-05
4.13998e-05
-8.16224e-05
7.12036e-05
-0.000166014
0.000111814
-0.000280624
0.000164578
-0.000427219
0.000230526
-0.000606978
0.000310148
-0.000820024
0.000403157
-0.00106493
0.00050828
-0.00133829
0.000623155
-0.00163455
0.000744414
-0.00194616
0.000867973
-0.00226423
0.000989504
-0.00257946
0.00110499
-0.00288335
0.00121122
-0.00316912
0.00130608
-0.00343289
0.00138886
-0.00367174
-0.00389107
0.00145981
1.89875e-06
7.67487e-06
8.96076e-06
-2.70862e-06
2.2707e-05
-3.92223e-05
4.46947e-05
-0.00010361
7.64832e-05
-0.000197803
0.000119553
-0.000323694
0.000175172
-0.000482838
0.000244201
-0.000676007
0.000326857
-0.00090268
0.00042248
-0.00116055
0.000529356
-0.00144516
0.000644683
-0.00174987
0.000764747
-0.00206623
0.000885304
-0.00238479
0.00100211
-0.00269627
0.00111147
-0.00299271
0.00121069
-0.00326834
0.00129824
-0.00352044
0.00137399
-0.00374749
-0.00395562
0.00143854
2.10915e-06
5.56572e-06
9.8029e-06
-1.04024e-05
2.46331e-05
-5.40525e-05
4.81841e-05
-0.000127161
8.20204e-05
-0.000231639
0.000127583
-0.000369256
0.000186027
-0.000541282
0.000258009
-0.000747989
0.00034344
-0.000988111
0.00044126
-0.00125837
0.000549314
-0.00155322
0.000664399
-0.00186496
0.000782528
-0.00218436
0.000899399
-0.00250166
0.00101096
-0.00280783
0.00111391
-0.00309567
0.00120611
-0.00336054
0.0012866
-0.00360093
0.00135576
-0.00381664
-0.00401435
0.00141449
2.33493e-06
3.23079e-06
1.06998e-05
-1.87672e-05
2.66691e-05
-7.00218e-05
5.18428e-05
-0.000152335
8.77727e-05
-0.000267569
0.000135834
-0.000417318
0.000197041
-0.000602489
0.00027181
-0.000822758
0.000359711
-0.00107601
0.000459273
-0.00135793
0.000567911
-0.00166185
0.00068207
-0.00197912
0.000797577
-0.00229987
0.000910174
-0.00261426
0.00101609
-0.00291374
0.00111248
-0.00319207
0.00119777
-0.00344582
0.00127153
-0.00367469
0.00133456
-0.00387967
-0.00406781
0.00138801
2.57461e-06
6.5618e-07
1.16455e-05
-2.78381e-05
2.88016e-05
-8.71779e-05
5.56449e-05
-0.000179178
9.36956e-05
-0.000305619
0.000144238
-0.00046786
0.000208112
-0.000666363
0.000285461
-0.000900106
0.00037549
-0.00116604
0.000476307
-0.00145875
0.000584929
-0.00177048
0.000697506
-0.00209169
0.000809771
-0.00241213
0.000917605
-0.00272209
0.00101759
-0.00301372
0.00110739
-0.00328187
0.00118596
-0.00352438
0.00125337
-0.0037421
0.00131075
-0.00393706
-0.00411651
0.00135946
2.82679e-06
-2.17061e-06
1.26343e-05
-3.76456e-05
3.10166e-05
-0.00010556
5.95638e-05
-0.000207725
9.97441e-05
-0.0003458
0.000152724
-0.000520841
0.000219137
-0.000732776
0.000298822
-0.000979792
0.000390602
-0.00125782
0.00049217
-0.00156032
0.000600178
-0.00187848
0.000710558
-0.00220207
0.000819038
-0.00252061
0.000921724
-0.00282478
0.00101561
-0.00310761
0.00109889
-0.00336515
0.00117101
-0.0035965
0.00123247
-0.00380357
0.00128469
-0.00398928
-0.00416096
0.00132914
3.09015e-06
-5.26076e-06
1.36606e-05
-4.82161e-05
3.33004e-05
-0.0001252
6.35728e-05
-0.000237998
0.000105872
-0.000388099
0.00016122
-0.000576188
0.000230012
-0.000801568
0.000311758
-0.00106154
0.000404885
-0.00135095
0.000506687
-0.00166212
0.000613502
-0.0019853
0.000721122
-0.00230969
0.000825356
-0.00262484
0.000922613
-0.00292204
0.00101034
-0.00319534
0.00108724
-0.00344205
0.00115323
-0.00366249
0.00120919
-0.00385952
0.0012567
-0.0040368
-0.00420157
0.00129732
3.36347e-06
-8.62423e-06
1.47189e-05
-5.95715e-05
3.56393e-05
-0.00014612
6.7645e-05
-0.000270003
0.000112034
-0.000432489
0.000169655
-0.000633809
0.000240637
-0.00087255
0.000324139
-0.00114504
0.000418188
-0.001445
0.000519707
-0.00176364
0.000624779
-0.00209037
0.000729135
-0.00241405
0.00082875
-0.00272446
0.000920391
-0.00301368
0.00100199
-0.00327693
0.00107273
-0.00351279
0.00113295
-0.00372271
0.00118382
-0.00391039
0.00122707
-0.00408005
-0.00423876
0.00126426
3.64556e-06
-1.22698e-05
1.58036e-05
-7.17295e-05
3.80195e-05
-0.000168336
7.17533e-05
-0.000303737
0.000118184
-0.000478919
0.000177958
-0.000693583
0.000250913
-0.000945505
0.000335841
-0.00122997
0.000430375
-0.00153953
0.000531105
-0.00186437
0.000633922
-0.00219319
0.000734577
-0.0025147
0.000829284
-0.00281917
0.000915215
-0.00309961
0.000990779
-0.0033525
0.00105563
-0.00357764
0.00111046
-0.00377754
0.00115667
-0.0039566
0.00119606
-0.00411943
-0.00427287
0.00123016
3.93528e-06
-1.62051e-05
1.69093e-05
-8.47036e-05
4.04274e-05
-0.000191854
7.58706e-05
-0.00033918
0.000124275
-0.000527324
0.00018606
-0.000755368
0.000260747
-0.00102019
0.00034675
-0.00131597
0.000441328
-0.00163411
0.000540778
-0.00196382
0.000640874
-0.00229328
0.000737463
-0.00261129
0.000827057
-0.00290876
0.000907263
-0.00317982
0.00097696
-0.00342219
0.00103622
-0.0036369
0.00108604
-0.00382737