/*--------------------------------*- C++ -*----------------------------------*\
  =========                 |
  \\      /  F ield         | OpenFOAM: The Open Source CFD Toolbox
   \\    /   O peration     | Website:  https://openfoam.org
    \\  /    A nd           | Version:  7
     \\/     M anipulation  |
\*---------------------------------------------------------------------------*/
FoamFile
{
    version     2.0;
    format      ascii;
    class       volVectorField;
    location    "280";
    object      U;
}
// * * * * * * * * * * * * * * * * * * * * * * * * * * * * * * * * * * * * * //

dimensions      [0 1 -1 0 0 0 0];

internalField   nonuniform List<vector> 
36600
(
(-0.000684279 0.0221711 -1.05989e-21)
(-0.0035861 0.0523915 -5.53801e-21)
(-0.00912089 0.0714872 6.60108e-22)
(-0.0162934 0.0814178 9.83676e-22)
(-0.0247561 0.084075 1.74168e-21)
(-0.0342086 0.0812133 -1.27201e-20)
(-0.0443881 0.0743861 2.17218e-21)
(-0.0550911 0.0648915 -8.46206e-21)
(-0.0661577 0.0537393 -1.79674e-20)
(-0.0774623 0.0416431 1.52303e-20)
(-0.0889066 0.0290383 4.4937e-21)
(-0.100415 0.0161212 -5.35317e-21)
(-0.111936 0.00290004 6.51287e-21)
(-0.123436 -0.0107503 8.81779e-21)
(-0.134909 -0.0250412 -5.51723e-21)
(-0.146371 -0.0402365 -7.43909e-21)
(-0.157859 -0.0566324 -1.77082e-20)
(-0.169443 -0.0745478 -1.36229e-21)
(-0.181088 -0.0943131 -2.97532e-21)
(-0.19276 -0.116318 -5.87509e-21)
(-0.00112948 0.0230776 -5.24986e-21)
(-0.00460259 0.0547429 4.23586e-21)
(-0.0104488 0.0749861 -4.96672e-21)
(-0.0177545 0.0858165 -1.94279e-20)
(-0.0262253 0.0891633 8.93257e-21)
(-0.0356024 0.0868172 5.346e-20)
(-0.0456536 0.0803646 -3.26312e-20)
(-0.0561964 0.0711325 5.35567e-21)
(-0.0670834 0.0601543 2.60805e-20)
(-0.0781951 0.0481634 9.09978e-23)
(-0.0894345 0.0356118 1.53934e-20)
(-0.100725 0.0227103 -2.01978e-20)
(-0.112011 0.00948182 2.10202e-20)
(-0.123259 -0.00418419 -1.77645e-20)
(-0.134462 -0.0184846 -6.98672e-21)
(-0.145636 -0.0336695 3.45287e-20)
(-0.156825 -0.0500244 -1.1111e-20)
(-0.168105 -0.0678627 1.63243e-21)
(-0.179462 -0.0875192 -2.02006e-20)
(-0.190886 -0.109385 -2.32358e-21)
(-0.00160462 0.0239444 -4.10162e-20)
(-0.00568335 0.0570133 5.14281e-21)
(-0.011845 0.0783908 7.79077e-21)
(-0.0192684 0.0901253 4.9432e-20)
(-0.0277159 0.0941761 -3.92606e-20)
(-0.0369728 0.092364 -6.04588e-20)
(-0.0468398 0.0863043 5.46051e-20)
(-0.057156 0.0773499 -1.49274e-20)
(-0.0677869 0.0665569 -7.18685e-21)
(-0.0786187 0.0546781 -3.7174e-20)
(-0.0895553 0.0421828 1.0337e-20)
(-0.100518 0.0292979 3.55419e-20)
(-0.111446 0.0160624 -6.87057e-21)
(-0.122302 0.00238205 2.89781e-20)
(-0.133077 -0.0119235 -2.40061e-20)
(-0.143785 -0.0270885 -6.79101e-21)
(-0.154474 -0.0433852 5.58615e-20)
(-0.165226 -0.0611193 -3.44368e-21)
(-0.176044 -0.080628 8.71928e-20)
(-0.186932 -0.102301 -2.12887e-20)
(-0.00210719 0.0247625 6.74286e-20)
(-0.00682288 0.0591813 -2.95741e-20)
(-0.0133024 0.0816716 -2.02264e-20)
(-0.0208265 0.0943098 -4.6435e-20)
(-0.0292181 0.0990763 2.76835e-20)
(-0.0383092 0.0978153 -5.5457e-21)
(-0.0479349 0.0921659 -9.22814e-20)
(-0.0579571 0.0835039 -9.82676e-21)
(-0.0682545 0.0729066 -1.99217e-20)
(-0.078719 0.0611458 -3.63982e-21)
(-0.0892546 0.0487085 -3.41433e-20)
(-0.0997783 0.0358392 3.8806e-20)
(-0.110225 0.022594 -5.6839e-20)
(-0.120551 0.00889676 -1.74086e-21)
(-0.13074 -0.00541438 1.52692e-20)
(-0.140806 -0.0205558 -1.19006e-19)
(-0.150794 -0.0367835 -9.56836e-20)
(-0.160794 -0.0543922 5.1797e-20)
(-0.170823 -0.0737188 -6.76922e-20)
(-0.180886 -0.0951473 9.82461e-22)
(-0.00263406 0.0255232 -8.97147e-21)
(-0.00801447 0.061226 1.17408e-19)
(-0.0148124 0.0848001 5.47489e-20)
(-0.0224195 0.0983363 -2.31837e-21)
(-0.030722 0.103827 1.42012e-20)
(-0.0396011 0.103133 1.71655e-21)
(-0.0489281 0.09791 4.75604e-20)
(-0.0585886 0.0895547 5.61476e-20)
(-0.068475 0.0791631 2.37455e-20)
(-0.0784849 0.0675256 8.26166e-20)
(-0.0885216 0.0551473 -9.51877e-20)
(-0.0984978 0.0422906 -1.96293e-20)
(-0.108341 0.0290303 4.15152e-20)
(-0.117999 0.0153098 -7.27349e-20)
(-0.127449 0.000987319 3.30858e-20)
(-0.136697 -0.0141329 7.51326e-20)
(-0.145788 -0.0302876 1.67561e-20)
(-0.154815 -0.0477566 2.68597e-20)
(-0.163806 -0.0668719 -4.1705e-20)
(-0.172756 -0.0880076 4.35946e-21)
(-0.00318157 0.026218 -4.51515e-20)
(-0.00925031 0.0631269 2.85353e-20)
(-0.0163652 0.0877472 -4.45132e-20)
(-0.024037 0.10217 4.13715e-20)
(-0.0322174 0.108391 3.58876e-20)
(-0.0408386 0.108277 1.58105e-20)
(-0.0498098 0.103497 3.05767e-20)
(-0.0590412 0.0954626 -2.08095e-20)
(-0.0684396 0.0852867 -1.29438e-19)
(-0.0779083 0.0737776 -1.15609e-19)
(-0.0873499 0.0614585 -7.51554e-20)
(-0.0966715 0.0486101 2.79139e-20)
(-0.105792 0.0353269 -1.57545e-20)
(-0.114649 0.0215729 1.20066e-19)
(-0.123209 0.00722837 -4.29975e-20)
(-0.13147 -0.0078795 3.53481e-20)
(-0.139471 -0.0239646 5.02479e-20)
(-0.147309 -0.041287 -2.77766e-20)
(-0.15502 -0.0601682 2.50163e-19)
(-0.162578 -0.0809658 -9.51452e-20)
(-0.00374549 0.026839 5.50824e-20)
(-0.0105215 0.0648644 -6.72388e-20)
(-0.0179503 0.0904856 -1.02667e-19)
(-0.025668 0.10578 -2.57874e-20)
(-0.0336938 0.112732 1.17211e-20)
(-0.042012 0.11321 1.79128e-20)
(-0.050571 0.108888 5.95685e-20)
(-0.0593069 0.101188 1.33808e-20)
(-0.0681416 0.0912386 3.42206e-21)
(-0.0769843 0.0798631 2.08082e-19)
(-0.0857364 0.0676028 1.55511e-19)
(-0.094299 0.0547575 -9.3382e-20)
(-0.102581 0.0414416 -1.35327e-20)
(-0.110508 0.0276406 -3.64071e-20)
(-0.118034 0.0132582 3.61315e-20)
(-0.125145 -0.00185276 -1.91726e-19)
(-0.131872 -0.0178794 -4.09192e-20)
(-0.138315 -0.0350567 -5.95251e-20)
(-0.144514 -0.0536877 -1.4356e-19)
(-0.150407 -0.074106 7.81812e-20)
(-0.00432119 0.0273787 9.51544e-21)
(-0.0118182 0.0664201 -3.35591e-20)
(-0.0195558 0.0929887 9.3028e-20)
(-0.027301 0.109132 -3.49619e-20)
(-0.0351403 0.116815 -3.18267e-20)
(-0.0431117 0.117895 5.05053e-20)
(-0.0512037 0.114045 -8.33495e-20)
(-0.0593795 0.106694 -1.08276e-20)
(-0.0675765 0.0969806 1.5623e-19)
(-0.0757104 0.0857444 -9.91753e-20)
(-0.0836815 0.0735429 -4.05358e-20)
(-0.0913843 0.0606949 4.69885e-20)
(-0.0987167 0.0473348 -1.22761e-20)
(-0.105591 0.0334703 -6.29451e-21)
(-0.111946 0.0190299 5.36422e-20)
(-0.117753 0.00389391 -1.44448e-19)
(-0.12303 -0.0120935 4.80936e-20)
(-0.127883 -0.0291361 -3.77497e-20)
(-0.132349 -0.0475091 -8.496e-20)
(-0.136318 -0.0675114 2.9583e-20)
(-0.00490367 0.0278306 -2.6204e-20)
(-0.01313 0.0677768 1.84588e-19)
(-0.0211694 0.0952323 -4.04519e-20)
(-0.0289233 0.112197 -4.78018e-20)
(-0.0365459 0.120605 1.15058e-19)
(-0.0441282 0.122294 -1.18194e-19)
(-0.0517006 0.11893 -5.81859e-20)
(-0.0592538 0.111942 -1.00206e-19)
(-0.0667416 0.102476 -1.08778e-19)
(-0.0740866 0.0913852 -7.20144e-20)
(-0.0811884 0.0792431 -9.71417e-20)
(-0.0879346 0.0663864 1.74589e-19)
(-0.0942117 0.0529699 -1.85697e-20)
(-0.099917 0.0390233 -4.11387e-20)
(-0.104972 0.0245006 -2.13014e-19)
(-0.10933 0.00931159 1.18073e-19)
(-0.112996 -0.00666431 2.79274e-20)
(-0.116074 -0.0235923 7.46575e-20)
(-0.118605 -0.0417086 5.10215e-20)
(-0.120404 -0.0612637 -1.38389e-19)
(-0.00548764 0.028189 -8.27006e-20)
(-0.0144457 0.0689198 1.0983e-19)
(-0.0227781 0.0971928 6.09868e-20)
(-0.0305222 0.114946 2.74704e-20)
(-0.0378989 0.12407 1.04328e-19)
(-0.0450526 0.126374 -8.07231e-20)
(-0.0520551 0.123508 1.72565e-19)
(-0.0589259 0.116896 9.26405e-21)
(-0.0656358 0.107689 1.5848e-19)
(-0.0721149 0.096751 -9.27145e-20)
(-0.0782627 0.0846696 1.46832e-19)
(-0.08396 0.071799 -1.45929e-19)
(-0.0890814 0.0583136 -1.30276e-19)
(-0.0935084 0.0442649 1.11768e-19)
(-0.0971431 0.0296323 3.96151e-19)
(-0.0999204 0.0143568 -2.19901e-19)
(-0.101826 -0.00164325 1.79897e-19)
(-0.102962 -0.0184871 4.24181e-20)
(-0.103371 -0.0363587 -1.57374e-19)
(-0.102773 -0.0554421 1.32471e-19)
(-0.00606763 0.0284493 1.51661e-19)
(-0.0157538 0.0698358 -8.32996e-20)
(-0.0243686 0.098851 2.92662e-20)
(-0.0320846 0.117354 1.06184e-19)
(-0.039188 0.12718 -8.01968e-20)
(-0.0458757 0.1301 1.88566e-19)
(-0.0522614 0.127743 -3.37247e-20)
(-0.0583931 0.12152 4.15304e-21)
(-0.0642596 0.112586 -2.19822e-19)
(-0.0697993 0.101809 1.3815e-19)
(-0.0749122 0.0897905 3.26349e-20)
(-0.0794728 0.0769021 -4.35383e-20)
(-0.083344 0.0633359 5.30792e-20)
(-0.0863907 0.0491646 -2.09415e-19)
(-0.0884952 0.0343925 -1.15457e-19)
(-0.0895704 0.0189925 2.46358e-19)
(-0.0895806 0.00292499 -1.38257e-19)
(-0.0886236 -0.0138757 -1.9881e-19)
(-0.0867458 -0.0315264 3.68353e-19)
(-0.0835399 -0.0501231 8.52014e-22)
(-0.00663797 0.0286083 1.28916e-19)
(-0.0170422 0.0705144 -1.56023e-19)
(-0.0259269 0.100188 -1.6123e-19)
(-0.0335973 0.119396 -7.62514e-20)
(-0.0404021 0.129906 -5.31198e-20)
(-0.0465895 0.133442 -6.13954e-20)
(-0.0523144 0.131602 -2.60228e-19)
(-0.0576538 0.125783 3.13808e-20)
(-0.0626147 0.117133 -1.09995e-19)
(-0.067145 0.106526 3.82496e-19)
(-0.071146 0.0945759 -2.21795e-19)
(-0.0744867 0.0816673 1.34392e-19)
(-0.0770188 0.0680101 -4.12623e-20)
(-0.0785906 0.0536965 2.28557e-19)
(-0.0790638 0.0387545 1.91227e-20)
(-0.0783279 0.0231888 -1.97882e-19)
(-0.0763226 0.00700393 -3.66727e-20)
(-0.0731381 -0.00980499 7.3751e-21)
(-0.0688325 -0.027272 -1.30123e-20)
(-0.0628267 -0.0453806 2.58522e-19)
(-0.007193 0.0286638 -1.59988e-19)
(-0.0182987 0.0709477 -1.51198e-19)
(-0.0274391 0.101191 6.19452e-20)
(-0.035047 0.121053 1.53817e-19)
(-0.0415302 0.132223 -1.32513e-20)
(-0.0471862 0.136371 -1.04691e-19)
(-0.0522099 0.135056 2.30044e-19)
(-0.0567071 0.129652 -2.62126e-20)
(-0.060704 0.121298 2.78283e-19)
(-0.0641585 0.110873 -3.07529e-19)
(-0.0669745 0.0989973 8.05079e-20)
(-0.0690167 0.0860687 9.63187e-20)
(-0.0701259 0.0723126 -2.84475e-21)
(-0.0701349 0.057839 -1.80129e-21)
(-0.0688842 0.0426976 -1.84272e-19)
(-0.0662394 0.0269233 2.37548e-20)
(-0.062113 0.0105665 2.48367e-19)
(-0.0565837 -0.00631093 3.22382e-19)
(-0.0497343 -0.0236456 -3.82489e-19)
(-0.0407547 -0.0412848 -2.45631e-19)
(-0.00772716 0.0286147 6.81156e-20)
(-0.0195113 0.0711303 1.00187e-19)
(-0.0288911 0.101848 1.22617e-19)
(-0.0364207 0.122306 -2.04077e-19)
(-0.0425619 0.134109 1.98985e-19)
(-0.0476585 0.138861 2.01334e-19)
(-0.0519442 0.138074 -7.76112e-20)
(-0.0555533 0.133096 3.41382e-19)
(-0.0585313 0.125053 -3.44221e-19)
(-0.0608474 0.114821 1.52372e-19)
(-0.0624091 0.103028 1.54409e-19)
(-0.0630777 0.0900821 -1.11969e-20)
(-0.0626852 0.0762225 2.6641e-21)
(-0.0610489 0.0615743 2.00275e-20)
(-0.0579894 0.0462065 -1.46062e-19)
(-0.0533477 0.0301818 1.45898e-19)
(-0.0470073 0.0135957 -7.43714e-20)
(-0.0390312 -0.00341744 -1.68286e-19)
(-0.0295515 -0.0206835 2.19105e-19)
(-0.0174475 -0.0378666 4.63166e-20)
(-0.00823508 0.0284615 -3.89147e-20)
(-0.0206682 0.0710599 4.76261e-20)
(-0.0302692 0.102152 -1.02527e-19)
(-0.0377055 0.123144 -1.52498e-19)
(-0.0434868 0.135544 -1.33529e-19)
(-0.0479997 0.140887 -1.38922e-19)
(-0.0515145 0.14063 2.26379e-19)
(-0.0541933 0.136087 -1.12191e-19)
(-0.0561014 0.128367 8.97585e-20)
(-0.0572199 0.118342 1.09812e-20)
(-0.0574612 0.106642 -2.4606e-20)
(-0.0566851 0.0936848 6.20029e-20)
(-0.0547155 0.079721 -1.19502e-19)
(-0.0513563 0.0648882 6.10685e-20)
(-0.0464088 0.0492713 2.02239e-19)
(-0.0396899 0.0329572 -2.96725e-19)
(-0.0310526 0.0160846 -1.90697e-19)
(-0.020538 -0.00113778 2.51499e-19)
(-0.00835384 -0.0184103 -1.46481e-19)
(0.00695875 -0.0350334 -2.33337e-19)
(-0.00871165 0.0282057 1.4685e-19)
(-0.0217582 0.070737 -1.4532e-19)
(-0.0315605 0.102099 1.15929e-19)
(-0.0388891 0.123556 1.84876e-19)
(-0.0442953 0.136515 -3.32136e-20)
(-0.0482035 0.14243 -1.20875e-19)
(-0.0509182 0.1427 -2.21585e-19)
(-0.0526285 0.138598 -1.67699e-19)
(-0.0534194 0.131214 -3.39037e-19)
(-0.0532848 0.121408 3.49478e-20)
(-0.052143 0.109814 -3.10461e-20)
(-0.0498536 0.0968551 -2.38639e-19)
(-0.0462345 0.0827908 2.08861e-19)
(-0.0410778 0.0677688 2.54477e-19)
(-0.0341669 0.0518861 -1.34769e-20)
(-0.0252957 0.0352489 1.56165e-19)
(-0.0142867 0.0180352 -7.89744e-20)
(-0.00115033 0.000528367 1.33917e-20)
(0.0138753 -0.016847 2.27109e-19)
(0.032443 -0.0328994 5.46231e-19)
(-0.00915236 0.0278502 -6.29204e-20)
(-0.022771 0.0701647 -4.35561e-20)
(-0.0327528 0.101688 1.203e-19)
(-0.0399599 0.123537 -1.66521e-19)
(-0.0449779 0.137008 -9.36881e-20)
(-0.048264 0.143472 1.63006e-19)
(-0.0501534 0.144261 -5.96814e-20)
(-0.0508611 0.140605 -1.71359e-19)
(-0.0504912 0.133566 2.7607e-19)
(-0.049051 0.123994 -7.27465e-20)
(-0.0464661 0.11252 5.37557e-20)
(-0.0425973 0.0995717 2.94255e-19)
(-0.0372582 0.0854153 -4.0737e-19)
(-0.030231 0.0702057 -1.11197e-19)
(-0.0212831 0.0540479 -2.21628e-19)
(-0.0101866 0.0370617 4.49366e-19)
(0.00326619 0.0194574 1.40139e-20)
(0.0190892 0.00158523 2.50901e-19)
(0.0370471 -0.0159958 -8.76525e-20)
(0.0589958 -0.031635 -5.20963e-19)
(-0.00955317 0.0273993 -1.48554e-19)
(-0.0236974 0.0693494 2.09403e-19)
(-0.0338354 0.100924 2.54823e-21)
(-0.0409077 0.123085 -2.26824e-21)
(-0.0455265 0.137018 2.11478e-19)
(-0.0481761 0.143999 1.01343e-19)
(-0.0492189 0.145295 -6.21723e-21)
(-0.0488934 0.142085 4.46352e-19)
(-0.0473229 0.135399 1.70141e-19)
(-0.044528 0.126074 -3.123e-19)
(-0.0404424 0.114735 1.45484e-20)
(-0.0349297 0.101813 -8.90612e-21)
(-0.0278008 0.0875776 4.3542e-19)
(-0.01883 0.0721887 -4.87064e-19)
(-0.00777119 0.055755 1.33787e-19)
(0.00562359 0.0384039 6.85098e-21)
(0.0215908 0.0203679 -3.46382e-19)
(0.0401722 0.00205504 -3.61084e-19)
(0.0611157 -0.0158187 -4.22389e-20)
(0.086571 -0.0311619 5.33466e-19)
(-0.00991067 0.0268582 4.85906e-20)
(-0.0245293 0.0683 -1.49457e-19)
(-0.0347987 0.0998139 1.42753e-19)
(-0.0417234 0.122204 -2.11658e-19)
(-0.0459338 0.13654 2.60813e-19)
(-0.0479353 0.144003 -3.85742e-19)
(-0.0481137 0.145787 -1.06288e-19)
(-0.0467285 0.143017 -2.33336e-19)
(-0.0439207 0.136691 -1.0959e-19)
(-0.0397248 0.127624 1.94372e-19)
(-0.034083 0.116436 3.97023e-19)
(-0.026863 0.103557 -4.45627e-19)
(-0.0178745 0.08926 -1.66904e-19)
(-0.00688583 0.0737066 6.04586e-19)
(0.00636051 0.0570058 -2.21495e-19)
(0.0221297 0.0392856 -3.18788e-19)
(0.040685 0.0207903 4.05561e-19)
(0.0621005 0.00197484 8.52012e-20)
(0.0860801 -0.0162989 8.28427e-20)
(0.115154 -0.0314315 -3.4498e-19)
(-0.0102222 0.0262334 1.91385e-20)
(-0.0252601 0.0670284 -7.84272e-20)
(-0.0356347 0.0983683 2.52056e-19)
(-0.0423992 0.1209 -3.22383e-19)
(-0.0461935 0.135574 -2.62178e-19)
(-0.0475383 0.143477 6.70034e-20)
(-0.0468373 0.145724 4.53665e-19)
(-0.044369 0.143385 -2.84452e-19)
(-0.0402908 0.137419 6.89524e-20)
(-0.0346501 0.12862 -1.35337e-19)
(-0.0273985 0.117598 -5.47075e-19)
(-0.0184083 0.104781 3.29888e-19)
(-0.00748938 0.0904434 2.68491e-19)
(0.00559417 0.0747465 -4.74283e-19)
(0.021109 0.0577967 1.09799e-19)
(0.0393348 0.0397163 4.44552e-19)
(0.0605581 0.0207505 1.7671e-19)
(0.0848905 0.00138577 6.17186e-20)
(0.111961 -0.0173955 -3.62226e-19)
(0.144764 -0.0323995 -1.77396e-19)
(-0.0104858 0.0255323 -1.32428e-19)
(-0.0258846 0.0655486 -2.36056e-19)
(-0.0363368 0.096602 -1.33431e-19)
(-0.0429288 0.119183 1.74768e-19)
(-0.0463006 0.134127 -1.00941e-20)
(-0.0469817 0.142419 3.65026e-20)
(-0.0453897 0.145097 -6.20656e-20)
(-0.0418179 0.143174 4.17865e-20)
(-0.0364386 0.137564 2.72183e-19)
(-0.0293118 0.12904 3.42952e-19)
(-0.020398 0.118197 -1.59978e-20)
(-0.00957466 0.105462 -7.53095e-20)
(0.00334707 0.0911069 -4.43034e-19)
(0.0186062 0.0752929 3.32198e-19)
(0.0364766 0.0581208 -2.88706e-20)
(0.0572494 0.0397027 -1.99148e-19)
(0.0812306 0.0202737 -1.0044e-18)
(0.108573 0.000334229 3.57522e-19)
(0.138799 -0.0190487 1.91118e-20)
(0.175455 -0.0340109 -2.21528e-19)
(-0.0107005 0.0247632 1.22967e-19)
(-0.0263994 0.0638774 3.09138e-19)
(-0.0369006 0.0945331 -2.32274e-19)
(-0.0433072 0.117069 -1.11505e-19)
(-0.046251 0.132206 9.17774e-20)
(-0.046263 0.140831 -2.1935e-19)
(-0.0437703 0.143903 -3.82382e-19)
(-0.0390771 0.142372 2.37864e-19)
(-0.0323687 0.137111 -2.67291e-20)
(-0.0237161 0.128862 -5.42038e-19)
(-0.0130886 0.118211 1.03107e-19)
(-0.000368793 0.105576 5.83516e-20)
(0.0146306 0.0912283 -1.02308e-19)
(0.0321506 0.0753274 2.68916e-19)
(0.0524709 0.0579678 5.26028e-19)
(0.0758915 0.0392472 -3.44177e-19)
(0.102733 0.0193816 2.77962e-19)
(0.133193 -0.00113216 6.83446e-20)
(0.166649 -0.0211896 3.91949e-19)
(0.207304 -0.0361946 1.77201e-19)
(-0.010866 0.0239353 -1.35266e-19)
(-0.0268029 0.0620331 -1.488e-20)
(-0.0373233 0.0921824 3.2967e-19)
(-0.0435312 0.114576 3.23572e-19)
(-0.0460415 0.129826 -6.57833e-20)
(-0.0453803 0.138722 -4.09466e-20)
(-0.0419782 0.14214 4.37384e-19)
(-0.0361477 0.140972 -3.14953e-19)
(-0.0280836 0.136044 9.58249e-20)
(-0.0178668 0.12807 3.94716e-19)
(-0.0054743 0.117618 3.78574e-19)
(0.00920657 0.105099 1.48271e-19)
(0.0263615 0.0907843 6.44351e-19)
(0.0462333 0.0748295 -8.85287e-20)
(0.0691063 0.057323 -6.85204e-19)
(0.095287 0.0383468 3.37159e-19)
(0.125104 0.0180902 -1.81557e-19)
(0.158808 -0.00296861 -4.21386e-19)
(0.195583 -0.023746 -2.99346e-19)
(0.240406 -0.0388637 -3.01996e-19)
(-0.0109831 0.023058 8.6942e-20)
(-0.027095 0.060036 1.76295e-19)
(-0.0376039 0.0895735 -1.20501e-19)
(-0.0435989 0.111727 -1.47825e-19)
(-0.0456699 0.127005 -1.52518e-19)
(-0.044331 0.136101 -4.06477e-20)
(-0.040012 0.139813 -5.6044e-19)
(-0.0330285 0.138972 2.14977e-19)
(-0.0235829 0.134356 -1.97507e-19)
(-0.0117638 0.126649 -3.32606e-19)
(0.00244563 0.116399 1.2049e-20)
(0.0191542 0.104011 -8.396e-19)
(0.0385466 0.0897519 -6.52089e-19)
(0.0608674 0.0737773 2.06506e-19)
(0.086405 0.0561691 1.04991e-19)
(0.115471 0.0369939 -2.25515e-19)
(0.148396 0.0164096 8.77968e-19)
(0.185486 -0.00513561 -1.3827e-19)
(0.225684 -0.0266457 3.76471e-19)
(0.27487 -0.0419198 3.39929e-19)
(-0.0110533 0.0221415 -1.19083e-19)
(-0.0272776 0.0579075 -3.82349e-19)
(-0.0377433 0.0867326 1.20266e-19)
(-0.0435098 0.108547 6.76227e-21)
(-0.0451342 0.123763 4.98505e-19)
(-0.0431124 0.132984 -2.94763e-19)
(-0.0378677 0.136932 -2.50468e-19)
(-0.0297158 0.136372 2.99991e-19)
(-0.0188625 0.132041 -1.74748e-20)
(-0.00540189 0.124586 1.39305e-19)
(0.0106783 0.114538 4.22304e-19)
(0.0294844 0.102291 8.81341e-19)
(0.0512014 0.0881105 7.10281e-20)
(0.076076 0.07215 -3.91628e-19)
(0.104401 0.054488 7.04745e-20)
(0.136489 0.0351776 6.95652e-19)
(0.172668 0.0143438 -4.73816e-19)
(0.213307 -0.00759973 2.71857e-21)
(0.257043 -0.0298192 3.68262e-19)
(0.31081 -0.0452547 -2.26814e-19)
(-0.011079 0.0211958 -1.14477e-19)
(-0.0273542 0.0556701 4.53064e-19)
(-0.0377441 0.0836875 -3.41094e-19)
(-0.0432643 0.105066 -6.88128e-20)
(-0.0444324 0.120127 -1.14958e-19)
(-0.0417203 0.129392 -2.96379e-19)
(-0.0355395 0.133509 2.92124e-19)
(-0.0262014 0.133182 -7.64401e-20)
(-0.0139124 0.1291 -1.70596e-19)
(0.0012313 0.121878 2.77029e-19)
(0.0192396 0.112025 -3.22074e-19)
(0.0402182 0.0999263 -1.03951e-19)
(0.0643536 0.0858433 -1.16868e-20)
(0.091896 0.06993 2.7538e-19)
(0.123141 0.0522634 -2.49306e-19)
(0.158405 0.0328871 -4.73812e-19)
(0.197997 0.0118945 -1.46673e-19)
(0.242361 -0.0103323 -2.11791e-19)
(0.289761 -0.0332012 -6.46152e-19)
(0.348338 -0.0487535 -1.93301e-19)
(-0.0110635 0.0202314 1.62823e-19)
(-0.0273296 0.0533467 -1.98626e-19)
(-0.0376101 0.0804675 -2.46476e-19)
(-0.0428637 0.101313 -2.301e-19)
(-0.0435625 0.116125 7.56815e-20)
(-0.040149 0.125351 4.17099e-20)
(-0.033018 0.129564 1.0434e-19)
(-0.0224728 0.129413 -3.61456e-19)
(-0.00871575 0.125539 2.06732e-19)
(0.00815711 0.118524 -6.18885e-19)
(0.0281564 0.108856 -3.09815e-19)
(0.0513896 0.0969088 4.49369e-21)
(0.0780465 0.0829403 2.73324e-19)
(0.108381 0.0671062 -1.8004e-19)
(0.142693 0.0494851 4.60444e-19)
(0.181297 0.0301161 -1.12949e-19)
(0.224478 0.00906493 1.47112e-19)
(0.272752 -0.0133059 5.58681e-19)
(0.323943 -0.0367291 7.42138e-20)
(0.387559 -0.0522943 3.57492e-19)
(-0.0110106 0.0192581 -3.4363e-19)
(-0.0272102 0.0509603 2.6858e-19)
(-0.0373462 0.0771027 2.97027e-19)
(-0.0423094 0.0973215 -1.71038e-19)
(-0.0425213 0.111791 2.88856e-19)
(-0.0383904 0.120888 2.75853e-19)
(-0.0302897 0.125123 -4.92876e-20)
(-0.0185103 0.125086 -2.75477e-19)
(-0.00324722 0.121373 -4.0645e-19)
(0.0154081 0.114536 1.17095e-19)
(0.0374697 0.105037 1.13226e-20)
(0.0630493 0.0932402 -3.0554e-19)
(0.0923423 0.0794009 2.28296e-19)
(0.125608 0.0636773 -1.7875e-19)
(0.163146 0.0461526 -3.26572e-19)
(0.205269 0.0268679 -4.27185e-19)
(0.252223 0.00586583 1.04785e-19)
(0.304598 -0.0164892 1.45398e-19)
(0.359704 -0.0403398 -1.4097e-19)
(0.428558 -0.055748 5.90485e-19)
(-0.0109248 0.0182857 -2.71795e-19)
(-0.0270031 0.0485334 -2.47013e-19)
(-0.036958 0.0736235 1.92643e-19)
(-0.0416026 0.0931266 1.10702e-19)
(-0.0413042 0.10716 4.48477e-20)
(-0.0364328 0.116039 -8.1005e-20)
(-0.0273356 0.120215 -5.67724e-20)
(-0.0142869 0.120226 1.28589e-19)
(0.00252933 0.116625 -1.15878e-19)
(0.02303 0.109929 9.6391e-19)
(0.0472364 0.100581 6.99434e-20)
(0.0752675 0.0889327 -1.08598e-19)
(0.107326 0.0752365 -7.09478e-19)
(0.143675 0.0596552 1.37772e-19)
(0.184616 0.04228 -3.50733e-19)
(0.23045 0.0231599 2.33071e-19)
(0.281368 0.0023213 2.14081e-19)
(0.338026 -0.0198411 -8.18675e-19)
(0.397156 -0.0439654 -2.55451e-19)
(0.471393 -0.0589776 -8.82357e-19)
(-0.0108109 0.0173233 1.31374e-19)
(-0.0267161 0.0460877 2.55759e-19)
(-0.0364511 0.0700601 -4.54954e-19)
(-0.0407437 0.088763 -3.44226e-19)
(-0.039904 0.102267 1.72644e-19)
(-0.0342604 0.110839 1.60858e-19)
(-0.0241302 0.114876 -3.30521e-19)
(-0.00976662 0.114866 -2.94922e-20)
(0.00866162 0.111323 4.01403e-20)
(0.031084 0.104732 -2.90537e-19)
(0.0575324 0.0955147 4.19854e-19)
(0.088136 0.0840113 2.87752e-21)
(0.123106 0.0704728 5.30521e-19)
(0.16271 0.0550677 3.59729e-19)
(0.207245 0.0378986 5.94851e-20)
(0.256991 0.0190289 7.64805e-19)
(0.312067 -0.00152566 -6.95352e-19)
(0.373172 -0.0233054 3.22216e-19)
(0.436411 -0.0475279 2.53293e-19)
(0.516077 -0.0618377 2.18567e-19)
(-0.010674 0.0163791 6.33169e-19)
(-0.0263574 0.0436436 -4.33015e-19)
(-0.0358309 0.0664417 1.03638e-19)
(-0.0397316 0.0842662 3.34035e-19)
(-0.0383108 0.0971542 -3.56158e-19)
(-0.0318524 0.105329 1.73833e-20)
(-0.0206405 0.109146 2.65505e-19)
(-0.00490297 0.109047 4.85006e-19)
(0.015211 0.105507 4.88118e-19)
(0.0396475 0.0989828 -4.80622e-19)
(0.0684532 0.0898756 -3.70499e-19)
(0.10177 0.078515 1.75164e-19)
(0.139818 0.0651515 -5.04311e-19)
(0.182867 0.049961 3.35099e-20)
(0.231201 0.0330606 1.94868e-19)
(0.285066 0.0145335 1.48487e-19)
(0.344486 -0.0056093 4.6907e-19)
(0.410163 -0.0268074 9.99048e-20)
(0.477563 -0.0509359 -3.53821e-19)
(0.562558 -0.0641766 3.7922e-19)
(-0.0105192 0.0154605 -6.0032e-19)
(-0.0259347 0.0412198 4.31068e-19)
(-0.0351015 0.0627962 1.03335e-19)
(-0.0385629 0.079671 -3.31235e-19)
(-0.0365105 0.0918598 1.38381e-19)
(-0.0291822 0.0995541 -6.60504e-20)
(-0.0168253 0.103071 -4.9372e-20)
(0.000361454 0.102815 -4.08777e-19)
(0.0222529 0.0992253 -6.41948e-19)
(0.0488159 0.0927304 4.15835e-19)
(0.0801152 0.0837147 -2.13725e-19)
(0.116307 0.0724982 6.87072e-21)
(0.157621 0.0593318 1.20464e-19)
(0.204323 0.0444008 2.56723e-19)
(0.256672 0.0278394 -3.12622e-20)
(0.314861 0.00975551 -7.24344e-20)
(0.378794 -0.00983947 -3.75559e-19)
(0.449111 -0.0302535 -2.51489e-19)
(0.520679 -0.0540811 -2.36541e-19)
(0.610703 -0.0658406 3.82485e-19)
(-0.0103515 0.0145737 4.80909e-19)
(-0.0254553 0.0388326 -1.21776e-19)
(-0.0342656 0.0591494 4.08266e-19)
(-0.0372313 0.0750115 9.77902e-20)
(-0.0344849 0.0864248 -2.13176e-19)
(-0.0262166 0.0935587 3.42013e-20)
(-0.0126344 0.0967006 -4.45896e-19)
(0.00609587 0.0962226 2.01485e-19)
(0.0298774 0.0925328 1.0838e-19)
(0.0587017 0.0860346 1.68284e-20)
(0.0926547 0.0770961 1.49115e-19)
(0.131908 0.0660304 5.285e-20)
(0.176696 0.0530902 -2.41676e-19)
(0.227272 0.0384722 -5.63909e-19)
(0.283858 0.0223302 2.84239e-19)
(0.346561 0.00479934 -1.45297e-19)
(0.415142 -0.0141026 -3.63755e-20)
(0.490084 -0.0335339 6.07699e-19)
(0.565776 -0.0568383 6.38886e-19)
(0.660269 -0.0666824 -9.72976e-19)
(-0.0101755 0.0137235 -1.23059e-19)
(-0.024925 0.0364963 -1.30911e-19)
(-0.0333237 0.0555247 -2.55965e-19)
(-0.0357273 0.0703196 1.85202e-19)
(-0.0322105 0.0808892 3.32418e-19)
(-0.0229155 0.0873904 -4.25473e-19)
(-0.0080085 0.0900884 6.73446e-19)
(0.0123811 0.089329 -1.30556e-19)
(0.0381887 0.0854941 1.86428e-20)
(0.0694339 0.0789653 -4.46704e-19)
(0.106225 0.0700965 1.51157e-20)
(0.148749 0.0591958 -3.66997e-19)
(0.197238 0.0465202 4.90798e-19)
(0.251921 0.0322789 3.22956e-19)
(0.312956 0.0166475 -6.30551e-19)
(0.380336 -0.000211626 -5.37575e-19)
(0.453649 -0.0182659 1.24899e-19)
(0.533098 -0.0365295 7.23919e-19)
(0.612807 -0.0590668 3.34703e-19)
(0.710891 -0.0665741 1.79568e-19)
(-0.00999494 0.0129134 3.772e-20)
(-0.0243481 0.0342219 1.26886e-19)
(-0.0322734 0.0519426 1.50701e-19)
(-0.034037 0.0656254 -1.24543e-19)
(-0.0296583 0.0752923 3.08068e-19)
(-0.0192315 0.0810969 4.08551e-19)
(-0.00287901 0.0832902 6.22486e-21)
(0.0193091 0.0821979 -5.18334e-19)
(0.0473039 0.0781805 -4.11568e-19)
(0.0811555 0.0716017 4.28719e-19)
(0.120995 0.0628039 -6.9719e-19)
(0.167019 0.0520925 -6.40556e-19)
(0.219449 0.0397301 -6.36757e-20)
(0.27847 0.0259403 -3.18696e-20)
(0.34415 0.0109212 2.24288e-19)
(0.416321 -0.00513995 1.47186e-19)
(0.494379 -0.0221836 1.90701e-19)
(0.57809 -0.0391217 -8.9361e-19)
(0.661647 -0.060617 -2.49533e-19)
(0.762076 -0.0654339 6.46958e-19)
(-0.0098129 0.0121456 -2.27863e-19)
(-0.0237267 0.0320177 2.15728e-19)
(-0.0311089 0.0484201 -1.57357e-19)
(-0.0321421 0.060956 -7.71258e-20)
(-0.0267937 0.0696715 -2.08022e-19)
(-0.0151101 0.0747261 -1.55903e-19)
(0.00283107 0.076364 -2.76426e-19)
(0.0269818 0.0748968 4.52744e-19)
(0.0573509 0.0706693 1.79213e-19)
(0.0940198 0.0640312 -4.35162e-19)
(0.137141 0.0553164 -5.27596e-19)
(0.186911 0.0448295 2.822e-19)
(0.243526 0.0328407 -2.62158e-19)
(0.307104 0.019588 -3.68899e-19)
(0.377587 0.00529219 -4.80877e-20)
(0.454599 -0.00984054 3.77077e-19)
(0.537318 -0.0257044 -2.53961e-19)
(0.624907 -0.0412019 9.64403e-20)
(0.712075 -0.0613365 2.14862e-19)
(0.813211 -0.0632495 5.45485e-19)
(-0.00963129 0.0114205 -2.35455e-20)
(-0.0230603 0.0298891 -5.32493e-19)
(-0.0298207 0.0449708 1.28085e-19)
(-0.0300199 0.0563352 2.8168e-19)
(-0.0235764 0.064062 -5.1305e-20)
(-0.0104903 0.0683246 -3.33455e-19)
(0.00920637 0.0693679 3.63924e-19)
(0.035509 0.0674959 4.13272e-19)
(0.0684651 0.0630423 1.56787e-19)
(0.108186 0.0563473 7.73991e-19)
(0.154839 0.0477396 -3.58497e-19)
(0.208612 0.0375248 1.29462e-19)
(0.269652 0.0259812 -1.7504e-19)
(0.337977 0.0133611 4.2365e-19)
(0.413365 -9.43295e-05 -3.66293e-20)
(0.495182 -0.0141679 -9.92704e-20)
(0.582361 -0.0286811 -1.5514e-19)
(0.673299 -0.0426778 2.45624e-19)
(0.763738 -0.0610483 -6.17529e-19)
(0.863509 -0.0600263 -8.35399e-19)
(-0.00945074 0.0107372 -1.31862e-19)
(-0.0223454 0.0278379 -4.70088e-20)
(-0.0283955 0.0416048 -4.24562e-19)
(-0.0276424 0.0517834 2.56732e-19)
(-0.0199604 0.0584959 -2.5901e-19)
(-0.005305 0.0619374 -2.60187e-19)
(0.0163375 0.0623601 -2.32653e-20)
(0.045006 0.0600661 -4.16561e-19)
(0.0807857 0.0553837 -6.55367e-19)
(0.123814 0.0486477 1.778e-19)
(0.174263 0.0401842 1.98422e-19)
(0.232292 0.0303016 -8.41088e-20)
(0.297976 0.0192857 6.56433e-19)
(0.371194 0.0074006 -5.95255e-20)
(0.451516 -0.00509572 -1.31521e-19)
(0.538001 -0.0179849 -1.97775e-20)
(0.629308 -0.0309867 3.28696e-19)
(0.722949 -0.0434815 5.82726e-19)
(0.816149 -0.0594834 -1.63364e-19)
(0.911899 -0.05565 6.04946e-19)
(-0.00927047 0.0100935 4.11773e-19)
(-0.0215755 0.0258634 -6.43834e-20)
(-0.0268157 0.0383282 3.74265e-19)
(-0.024977 0.0473171 -3.79254e-19)
(-0.0158948 0.0530019 5.53504e-19)
(0.000517835 0.0556066 4.58197e-19)
(0.0243193 0.0553967 -3.72539e-19)
(0.0555905 0.0526782 -6.87345e-19)
(0.0944512 0.0477788 1.12996e-18)
(0.141057 0.0410316 2.77131e-19)
(0.195569 0.0327631 -2.15009e-19)
(0.258097 0.0232846 -2.11469e-19)
(0.328607 0.012888 -2.21125e-19)
(0.4068 0.00184468 -1.63543e-19)
(0.491991 -0.00957853 -5.40746e-19)
(0.582895 -0.0211724 -1.47764e-19)
(0.677869 -0.0325413 1.13652e-20)
(0.773549 -0.04358 -3.99899e-19)
(0.868849 -0.0562804 1.97324e-19)
(0.957301 -0.0501906 -4.27173e-19)
(-0.00908817 0.00948558 -6.57225e-19)
(-0.0207408 0.0239618 4.29207e-19)
(-0.0250594 0.0351437 -6.30975e-19)
(-0.0219869 0.0429489 -3.39314e-19)
(-0.0113247 0.0476053 1.2503e-19)
(0.00705354 0.0493712 -4.94599e-19)
(0.0332482 0.0485315 7.67291e-19)
(0.0673792 0.0454012 1.35416e-20)
(0.109594 0.0403115 -4.2033e-19)
(0.160054 0.0335977 -3.64016e-19)
(0.218892 0.0255881 -6.45776e-19)
(0.286135 0.0165968 -7.39584e-21)
(0.361603 0.00691819 -9.16291e-20)
(0.444772 -0.00317642 -2.64618e-19)
(0.534655 -0.0134228 6.50146e-19)
(0.629597 -0.0236357 4.00783e-19)
(0.72764 -0.0333269 9.86401e-20)
(0.824775 -0.0429628 -4.2328e-19)
(0.921606 -0.0513487 -2.18681e-20)
(1.00034 -0.0456595 -6.83158e-19)
(-0.00890003 0.00890889 2.3342e-19)
(-0.0198281 0.0221269 -4.27994e-19)
(-0.0231009 0.0320505 5.44199e-19)
(-0.0186311 0.0386876 7.55977e-19)
(-0.00619152 0.042327 -2.43119e-19)
(0.0143793 0.0432665 3.16175e-20)
(0.0432203 0.0418148 -6.46008e-19)
(0.0804842 0.0383007 -1.58442e-19)
(0.126336 0.0330631 -4.91768e-19)
(0.180927 0.0264416 6.36267e-19)
(0.244334 0.0187675 5.86399e-19)
(0.316469 0.0103559 -1.03264e-19)
(0.396959 0.00149832 -7.79319e-20)
(0.485007 -0.00754359 -1.24146e-19)
(0.57928 -0.0165235 1.15359e-19)
(0.677737 -0.0252999 -2.08404e-19)
(0.778084 -0.0333538 -2.41797e-19)
(0.876027 -0.0416138 5.08987e-19)
(0.973588 -0.0457209 -1.60354e-19)
(1.04448 -0.0471458 3.35176e-20)
(-0.00870065 0.00835778 6.15991e-20)
(-0.0188212 0.0203505 8.70863e-20)
(-0.020911 0.0290449 -2.84525e-19)
(-0.0148653 0.0345385 -7.78075e-19)
(-0.000434784 0.0371843 1.24972e-19)
(0.0225725 0.0373235 3.73735e-19)
(0.054328 0.0352928 1.68975e-19)
(0.0950089 0.0314385 7.18074e-19)
(0.144784 0.0261102 -4.46641e-19)
(0.203772 0.0196539 -5.76557e-19)
(0.271962 0.0124034 -1.04723e-19)
(0.349111 0.00467137 2.60641e-19)
(0.434606 -0.00326045 5.67889e-20)
(0.527327 -0.0111516 2.34522e-20)
(0.625561 -0.0187909 -2.57552e-19)
(0.726868 -0.0260993 7.48156e-20)
(0.828611 -0.0325982 -9.3479e-20)
(0.926407 -0.0395567 -5.25401e-20)
(1.02195 -0.0417535 1.14915e-19)
(1.09284 -0.0505652 1.18203e-18)
(-0.00848315 0.007826 -3.02928e-19)
(-0.0177009 0.0186227 2.03839e-20)
(-0.0184569 0.0261208 -5.55597e-20)
(-0.0106427 0.0305038 6.74128e-19)
(0.00600706 0.0321909 2.10822e-19)