/*--------------------------------*- C++ -*----------------------------------*\
  =========                 |
  \\      /  F ield         | OpenFOAM: The Open Source CFD Toolbox
   \\    /   O peration     | Website:  https://openfoam.org
    \\  /    A nd           | Version:  7
     \\/     M anipulation  |
\*---------------------------------------------------------------------------*/
FoamFile
{
    version     2.0;
    format      ascii;
    class       surfaceScalarField;
    location    "100";
    object      phi;
}
// * * * * * * * * * * * * * * * * * * * * * * * * * * * * * * * * * * * * * //

dimensions      [0 3 -1 0 0 0 0];

internalField   nonuniform List<scalar> 
8924
(
0.00137294
-0.00512962
0.00511206
0.00143248
-0.000826625
0.000767087
0.00151073
0.00332299
-0.00340124
0.00158555
0.00650001
-0.00657482
0.0016441
0.00843281
-0.00849136
0.00167651
0.00936765
-0.00940006
0.00167096
0.0099083
-0.00990274
0.00162301
0.0105435
-0.0104955
0.00154746
0.0110429
-0.0109674
0.00147409
0.0105584
-0.010485
0.00142884
0.00838617
-0.00834092
0.00142254
0.00466798
-0.00466169
0.00145319
0.000256964
-0.000287605
0.00150809
-0.00380984
0.00375494
0.00156404
-0.00683783
0.00678188
0.00159357
-0.00879756
0.00876803
0.00158005
-0.0100594
0.0100729
0.00152963
-0.0109069
0.0109573
0.00146819
-0.010884
0.0109454
0.00142503
-0.00943443
0.00947759
0.00141722
-0.00625483
0.00626263
0.00144499
-0.00207464
0.00204687
0.00149034
0.00218437
-0.00222972
0.00578252
-0.00581561
0.00136048
-0.00515073
0.00142478
-0.000890923
0.0015079
0.00323988
0.00158721
0.0064207
0.0016495
0.00837051
0.00168468
0.00933247
0.00168112
0.00991185
0.00163479
0.0105898
0.00156037
0.0111173
0.00148691
0.0106318
0.00143957
0.00843352
0.0014294
0.00467815
0.00145544
0.000230928
0.00150618
-0.00386059
0.00155921
-0.00689085
0.00158705
-0.00882541
0.00157263
-0.010045
0.00152182
-0.0108561
0.00146072
-0.0108229
0.00141909
-0.0093928
0.00141397
-0.00624971
0.00144467
-0.00210534
0.00149226
0.00213679
0.00574806
0.00134782
-0.00517519
0.00141672
-0.000959821
0.00150463
0.00315196
0.00158841
0.00633692
0.00165448
0.00830445
0.0016925
0.00929445
0.00169109
0.00991326
0.00164652
0.0106344
0.00157335
0.0111905
0.00149981
0.0107054
0.00145029
0.00848303
0.00143616
0.00469229
0.00145751
0.000209579
0.00150403
-0.00390711
0.00155412
-0.00694094
0.00158036
-0.00885164
0.00156513
-0.0100297
0.00151401
-0.010805
0.00145329
-0.0107622
0.00141315
-0.00935267
0.00141063
-0.00624719
0.00144419
-0.0021389
0.00149399
0.00208699
0.00571218
0.00133495
-0.00520275
0.00140828
-0.00103315
0.00150091
0.00305934
0.00158916
0.00624867
0.00165902
0.00823459
0.00169996
0.0092535
0.00170083
0.00991239
0.00165818
0.010677
0.00158637
0.0112623
0.00151276
0.010779
0.001461
0.00853478
0.00144282
0.00471048
0.0014594
0.000192992
0.00150165
-0.00394937
0.0015488
-0.00698809
0.00157349
-0.00887632
0.00155754
-0.0100138
0.00150619
-0.0107536
0.00144588
-0.0107019
0.0014072
-0.00931398
0.0014072
-0.00624719
0.00144354
-0.00217523
0.00149553
0.00203499
0.00567485
0.00132186
-0.00523319
0.00139946
-0.00111075
0.00149672
0.00296207
0.00158942
0.00615597
0.00166311
0.0081609
0.00170706
0.00920955
0.00171034
0.00990911
0.00166977
0.0107176
0.00159943
0.0113327
0.00152575
0.0108527
0.0014717
0.00858883
0.00144938
0.0047328
0.00146113
0.000181236
0.00149905
-0.00398729
0.00154325
-0.00703229
0.00156644
-0.00889951
0.00154986
-0.0099972
0.00149837
-0.0107021
0.0014385
-0.010642
0.00140123
-0.00927671
0.00140367
-0.00624964
0.00144271
-0.00221427
0.00149688
0.00198082
0.00563601
0.00130857
-0.00526623
0.00139025
-0.00119244
0.00149206
0.00286027
0.00158918
0.00605885
0.00166673
0.00808336
0.00171376
0.00916252
0.00171959
0.00990329
0.00168125
0.0107559
0.0016125
0.0114014
0.00153877
0.0109264
0.00148236
0.00864524
0.00145584
0.00475931
0.00146271
0.000174371
0.00149625
-0.00402082
0.00153747
-0.00707352
0.00155922
-0.00892126
0.00154211
-0.00998009
0.00149055
-0.0106506
0.00143114
-0.0105826
0.00139523
-0.0092408
0.00140002
-0.00625443
0.0014417
-0.00225595
0.00149803
0.00192449
0.00559563
0.00129506
-0.00530162
0.00138064
-0.00127802
0.00148691
0.002754
0.00158843
0.00595732
0.00166985
0.00800194
0.00172006
0.00911231
0.00172856
0.00989479
0.00169262
0.0107919
0.00162556
0.0114685
0.0015518
0.0110002
0.00149299
0.00870404
0.00146222
0.00479009
0.00146413
0.000172457
0.00149324
-0.00404993
0.00153148
-0.00711176
0.00155184
-0.00894161
0.00153428
-0.00996254
0.00148272
-0.010599
0.00142379
-0.0105236
0.0013892
-0.00920622
0.00139625
-0.00626148
0.00144049
-0.00230018
0.00149897
0.00186601
0.00555366
0.00128134
-0.00533907
0.00137063
-0.00136731
0.00148125
0.00264338
0.00158715
0.00585142
0.00167248
0.00791662
0.00172593
0.00905886
0.00173724
0.00988347
0.00170385
0.0108253
0.00163859
0.0115337
0.00156482
0.0110739
0.00150358
0.00876528
0.0014685
0.00482517
0.00146542
0.000175541
0.00149004
-0.00407455
0.00152528
-0.007147
0.00154429
-0.00896062
0.00152637
-0.00994462
0.00147487
-0.0105475
0.00141644
-0.0104652
0.00138314
-0.00917291
0.00139236
-0.0062707
0.00143908
-0.0023469
0.00149969
0.00180539
0.00551004
0.00126741
-0.00537829
0.0013602
-0.0014601
0.00147508
0.0025285
0.00158532
0.00574118
0.00167457
0.00782737
0.00173135
0.00900208
0.00174561
0.00986921
0.00171492
0.0108559
0.00165158
0.0115971
0.00157782
0.0111477
0.00151412
0.00882898
0.00147469
0.00486459
0.00146657
0.000183667
0.00148667
-0.00409465
0.00151887
-0.0071792
0.00153657
-0.00897832
0.00151838
-0.00992643
0.00146701
-0.0104961
0.0014091
-0.0104073
0.00137702
-0.00914083
0.00138832
-0.006282
0.00143745
-0.00239603
0.0015002
0.00174264
0.00546474
0.00125327
0.00134935
-0.00155618
0.00146838
0.00240947
0.00158293
0.00562663
0.00167612
0.00773418
0.0017363
0.00894191
0.00175363
0.00985187
0.0017258
0.0108838
0.00166448
0.0116584
0.00159078
0.0112214
0.0015246
0.00889517
0.00148079
0.00490841
0.00146759
0.000196866
0.00148312
-0.00411018
0.00151226
-0.00720834
0.00152869
-0.00899475
0.0015103
-0.00990804
0.00145914
-0.010445
0.00140176
-0.0103499
0.00137085
-0.00910993
0.00138414
-0.00629528
0.00143561
-0.0024475
0.00150047
0.00167777
0.00541769
0.00133808
-0.00165532
0.00146114
0.00228641
0.00157996
0.00550781
0.0016771
0.00763704
0.00174075
0.00887826
0.0017613
0.00983133
0.00173647
0.0109086
0.0016773
0.0117176
0.00160369
0.011295
0.00153501
0.00896384
0.00148679
0.00495663
0.00146849
0.000215166
0.00147941
-0.00412111
0.00150546
-0.0072344
0.00152065
-0.00900994
0.00150214
-0.00988953
0.00145123
-0.0103941
0.0013944
-0.0102931
0.00136462
-0.00908015
0.0013798
-0.00631046
0.00143353
-0.00250124
0.00150051
0.00161079
0.00536886
0.00132638
-0.00175728
0.00145335
0.00215943
0.00157639
0.00538478
0.0016775
0.00753592
0.0017447
0.00881106
0.00176857
0.00980746
0.00174691
0.0109303
0.00168998
0.0117745
0.00161652
0.0113685
0.00154535
0.00903501
0.00149269
0.00500929
0.00146927
0.000238589
0.00147555
-0.00412739
0.00149847
-0.00725732
0.00151245
-0.00902391
0.0014939
-0.00987098
0.0014433
-0.0103435
0.00138702
-0.0102368
0.00135831
-0.00905144
0.00137529
-0.00632744
0.00143122
-0.00255716
0.0015003
0.00154171
0.00531819
0.00131425
-0.00186181
0.001445
0.00202868
0.00157221
0.00525757
0.0016773
0.00743083
0.00174811
0.00874025
0.00177544
0.00978012
0.00175708
0.0109486
0.00170252
0.0118291
0.00162925
0.0114418
0.00155559
0.00910867
0.00149849
0.00506639
0.00146993
0.000267151
0.00147154
-0.00412899
0.0014913
-0.00727709
0.00150407
-0.00903668
0.00148556
-0.00985247
0.00143534
-0.0102933
0.00137961
-0.010181
0.00135193
-0.00902376
0.00137061
-0.00634613
0.00142866
-0.00261521
0.00149984
0.00147054
0.00526562
0.0013017
-0.00196866
0.00143609
0.00189429
0.0015674
0.00512626
0.00167647
0.00732176
0.00175096
0.00866576
0.00178187
0.00974921
0.00176696
0.0109635
0.00171488
0.0118811
0.00164186
0.0115148
0.00156574
0.0091848
0.00150419
0.00512793
0.00147048
0.000300865
0.00146739
-0.0041259
0.00148396
-0.00729366
0.00149554
-0.00904827
0.00147713
-0.00983405
0.00142734
-0.0102435
0.00137217
-0.0101259
0.00134545
-0.00899705
0.00136575
-0.00636643
0.00142585
-0.00267531
0.00149911
0.00139727
0.00521112
0.00128872
-0.00207753
0.00142659
0.00175642
0.00156195
0.00499091
0.001675
0.00720871
0.00175322
0.00858754
0.00178783
0.00971461
0.00177652
0.0109748
0.00172704
0.0119306
0.00165435
0.0115875
0.00157578
0.00926337
0.00150979
0.00519392
0.00147092
0.000339733
0.0014631
-0.00411808
0.00147644
-0.007307
0.00148684
-0.00905867
0.00146859
-0.00981581
0.0014193
-0.0101942
0.00136468
-0.0100713
0.00133888
-0.00897125
0.00136071
-0.00638825
0.00142278
-0.00273738
0.00149812
0.00132193
0.00515462
0.00127531
-0.00218814
0.00141651
0.00161522
0.00155584
0.00485158
0.00167287
0.00709168
0.00175488
0.00850552
0.0017933
0.00967619
0.00178572
0.0109824
0.00173897
0.0119774
0.00166667
0.0116598
0.0015857
0.00934434
0.00151528
0.00526434
0.00147125
0.000383753
0.00145869
-0.00410552
0.00146875
-0.00731706
0.00147796
-0.00906788
0.00145996
-0.00979781
0.0014112
-0.0101454
0.00135714
-0.0100172
0.0013322
-0.00894631
0.00135546
-0.00641151
0.00141943
-0.00280135
0.00149685
0.00124451
0.00509608
0.0012615
-0.00230019
0.00140584
0.00147088
0.00154907
0.00470835
0.00167005
0.0069707
0.00175591
0.00841966
0.00179825
0.00963386
0.00179455
0.0109861
0.00175064
0.0120213
0.00167882
0.0117316
0.00159548
0.00942768
0.00152065
0.00533918
0.00147148
0.00043292
0.00145416
-0.0040882
0.0014609
-0.0073238
0.00146892
-0.0090759
0.00145121
-0.0097801
0.00140305
-0.0100973
0.00134954
-0.00996369
0.00132541
-0.00892218
0.00135001
-0.00643611
0.00141581
-0.00286715
0.00149529
0.00116503
0.00503546
0.00124728
-0.00241336
0.00139458
0.00132358
0.00154162
0.00456132
0.00166654
0.00684578
0.00175629
0.00832992
0.00180265
0.0095875
0.00180295
0.0109858
0.00176201
0.0120622
0.00169077
0.0118028
0.00160513
0.00951332
0.0015259
0.0054184
0.0014716
0.00048722
0.00144952
-0.00406612
0.0014529
-0.00732717
0.00145971
-0.00908271
0.00144235
-0.00976274
0.00139485
-0.0100498
0.00134188
-0.00991072
0.00131849
-0.00889879
0.00134435
-0.00646196
0.0014119
-0.0029347
0.00149343
0.00108349
0.00497269
0.00123268
-0.00252732
0.00138273
0.00117352
0.00153348
0.00441057
0.00166232
0.00671694
0.00175599
0.00823624
0.00180647
0.00953702
0.00181092
0.0109814
0.00177307
0.0121001
0.0017025
0.0118734
0.00161461
0.00960121
0.00153103
0.00550198
0.00147162
0.000546636
0.00144476
-0.00403926
0.00144473
-0.00732715
0.00145032
-0.00908829
0.00143336
-0.00974578
0.00138657
-0.010003
0.00133415
-0.00985829
0.00131144
-0.00887609
0.00133847
-0.00648899
0.0014077
-0.00300393
0.00149128
0.000999913
0.00490773
0.0012177
-0.00264174
0.00137029
0.00102093
0.00152464
0.00425623
0.00165736
0.00658422
0.00175499
0.0081386
0.00180969
0.00948233
0.0018184
0.0109726
0.00178378
0.0121347
0.00171399
0.0119432
0.00162393
0.00969127
0.00153603
0.00558988
0.00147152
0.000611147
0.00143989
-0.00400763
0.00143642
-0.00732369
0.00144075
-0.00909262
0.00142425
-0.00972928
0.00137823
-0.00995696
0.00132633
-0.00980639
0.00130425
-0.00885401
0.00133236
-0.00651709
0.0014032
-0.00307477
0.00148881
0.000914307
0.00484054
0.00120237
-0.00275628
0.00135726
0.000866043
0.00151509
0.0040984
0.00165165
0.00644766
0.00175328
0.00803698
0.00181227
0.00942334
0.00182537
0.0109595
0.00179411
0.012166
0.00172522
0.0120121
0.00163307
0.00978342
0.0015409
0.00568205
0.00147132
0.000680724
0.00143492
-0.00397122
0.00142797
-0.00731674
0.001431
-0.00909565
0.00141499
-0.00971327
0.00136981
-0.00991178
0.00131843
-0.00975501
0.00129692
-0.0088325
0.00132602
-0.00654619
0.0013984
-0.00314715
0.00148602
0.000826688
0.00477107
0.00118672
-0.00287059
0.00134365
0.000709105
0.00150483
0.00393722
0.00164519
0.0063073
0.00175082
0.00793135
0.00181419
0.00935997
0.0018318
0.0109419
0.00180402
0.0121937
0.00173616
0.0120799
0.00164202
0.00987756
0.00154563
0.00577844
0.00147102
0.000755336
0.00142984
-0.00393004
0.00141937
-0.00730626
0.00142108
-0.00909736
0.0014056
-0.00969779
0.00136131
-0.00986749
0.00131044
-0.00970415
0.00128942
-0.00881148
0.00131944
-0.00657621
0.00139328
-0.00322099
0.0014829
0.000737072
0.00469928
0.00117076
-0.00298433
0.00132947
0.000550387
0.00149386
0.00377283
0.00163795
0.00616321
0.0017476
0.0078217
0.00181542
0.00929214
0.00183766
0.0109197
0.0018135
0.0122179
0.00174679
0.0121466
0.00165076
0.00997359
0.00155021
0.00587898
0.0014706
0.000834947
0.00142467
-0.00388411
0.00141063
-0.00729223
0.00141097
-0.0090977
0.00139605
-0.00968286
0.00135271
-0.00982415
0.00130235
-0.00965379
0.00128177
-0.00879089
0.00131262
-0.00660706
0.00138785
-0.00329623
0.00147944
0.00064548
0.00462514
0.00115452
-0.00309716
0.00131474
0.000390174
0.00148217
0.00360539
0.00162993
0.00601546
0.00174359
0.00770804
0.00181593
0.0092198
0.0018429
0.0108927
0.00182251
0.0122383
0.0017571
0.0122121
0.00165928
0.0100714
0.00155464
0.00598362
0.00147007
0.000919516
0.0014194
-0.00383344
0.00140176
-0.0072746
0.00140068
-0.00909662
0.00138634
-0.00966852
0.00134402
-0.00978183
0.00129417
-0.00960393
0.00127394
-0.00877067
0.00130554
-0.00663866
0.0013821
-0.00337278
0.00147565
0.000551932
0.00454859
0.00113805
-0.00320876
0.00129946
0.000228765
0.00146977
0.00343509
0.00162111
0.00586411
0.00173879
0.00759035
0.0018157
0.00914289
0.00184751
0.0108609
0.00183101
0.0122548
0.00176705
0.012276
0.00166756
0.0101709
0.00155891
0.00609227
0.00146943
0.001009
0.00141403
-0.00377804
0.00139276
-0.00725333
0.00139021
-0.00909406
0.00137646
-0.00965477
0.00133523
-0.0097406
0.00128587
-0.00955458
0.00126594
-0.00875073
0.00129821
-0.00667094
0.00137602
-0.0034506
0.0014715
0.000456453
0.00446961
0.00112137
-0.00331882
0.00128366
6.64711e-05
0.00145665
0.0032621
0.00161149
0.00570928
0.00173317
0.00746867
0.0018147
0.00906136
0.00185144
0.0108242
0.00183899
0.0122672
0.00177662
0.0123384
0.00167561
0.0102719
0.00156302
0.00620485
0.00146868
0.00110334
0.00140857
-0.00371793
0.00138364
-0.0072284
0.00137955
-0.00908997
0.00136641
-0.00964163
0.00132633
-0.00970052
0.00127748
-0.00950573
0.00125776
-0.00873101
0.00129062
-0.0067038
0.00136962
-0.0035296
0.001467
0.000359069
0.00438816
0.00110451
-0.00342707
0.00126737
-9.6386e-05
0.00144283
0.00308664
0.00160106
0.00555105
0.00172671
0.00734302
0.0018129
0.00897518
0.00185467
0.0107824
0.00184639
0.0122755
0.00178579
0.012399
0.00168339
0.0103743
0.00156696
0.00632127
0.00146781
0.0012025
0.00140301
-0.00365313
0.00137438
-0.00719977
0.0013687
-0.00908429
0.00135617
-0.0096291
0.00131731
-0.00966165
0.00126897
-0.00945739
0.00124939
-0.00871143
0.00128275
-0.00673716
0.00136288
-0.00360972
0.00146214
0.000259809
0.00430422
0.00108753
-0.00353325
0.00125061
-0.000259468
0.00142831
0.00290894
0.00158982
0.00538954
0.0017194
0.00721343
0.00181027
0.00888431
0.00185716
0.0107355
0.00185321
0.0122795
0.00179454
0.0124577
0.00169089
0.010478
0.00157073
0.00644144
0.00146683
0.0013064
0.00139737
-0.00358367
0.00136501
-0.00716741
0.00135768
-0.00907696
0.00134575
-0.00961718
0.00130816
-0.00962406
0.00126035
-0.00940959
0.00124084
-0.00869191
0.00127462
-0.00677094
0.0013558
-0.00369091
0.00145691
0.000158703
0.00421776
0.00107043
-0.00363712
0.00123342
-0.000422463
0.00141311
0.00272925
0.00157776
0.0052249
0.00171124
0.00707996
0.00180681
0.00878873
0.00185889
0.0106834
0.0018594
0.0122789
0.00180285
0.0125142
0.00169811
0.0105827
0.00157432
0.00656523
0.00146572
0.001415
0.00139163
-0.00350958
0.00135552
-0.0071313
0.00134646
-0.0090679
0.00133513
-0.00960584
0.00129888
-0.00958782
0.00125162
-0.00936233
0.00123209
-0.00867238
0.00126621
-0.00680506
0.00134839
-0.00377309
0.00145131
5.5784e-05
0.00412876
0.00105324
-0.0037385
0.00121583
-0.00058505
0.00139726
0.00254782
0.0015649
0.00505726
0.0017022
0.00694266
0.00180248
0.00868846
0.00185983
0.0106261
0.00186494
0.0122738
0.00181068
0.0125685
0.00170503
0.0106884
0.00157772
0.00669254
0.0014645
0.00152822
0.00138581
-0.00343088
0.00134591
-0.0070914
0.00133506
-0.00905705
0.0013243
-0.00959508
0.00128946
-0.00955298
0.00124278
-0.00931564
0.00122316
-0.00865276
0.00125751
-0.00683941
0.00134064
-0.00385622
0.00144534
-4.89162e-05
0.00403722
0.00103599
-0.0038372
0.00119789
-0.000746946
0.00138078
0.00236494
0.00155124
0.00488679
0.00169228
0.00680162
0.00179726
0.00858348
0.00185994
0.0105634
0.0018698
0.012264
0.00181802
0.0126203
0.00171163
0.0107947
0.00158094
0.00682324
0.00146317
0.00164598
0.00137989
-0.0033476
0.00133619
-0.0070477
0.00132348
-0.00904434
0.00131327
-0.00958487
0.0012799
-0.00951961
0.00123382
-0.00926956
0.00121404
-0.00863298
0.00124853
-0.0068739
0.00133255
-0.00394024
0.00143899
-0.000155364
0.00394311
0.0010187
-0.00393309
0.00117964
-0.00090788
0.0013637
0.00218088
0.00153679
0.0047137
0.00168148
0.00665692
0.00179114
0.00847382
0.0018592
0.0104953
0.00187394
0.0122492
0.00182484
0.0126694
0.00171791
0.0109017
0.00158396
0.00695718
0.00146172
0.00176823
0.00137388
-0.00325977
0.00132636
-0.00700018
0.00131172
-0.0090297
0.00130201
-0.00957517
0.00127017
-0.00948776
0.00122474
-0.00922414
0.00120472
-0.00861297
0.00123926
-0.00690844
0.00132411
-0.00402509
0.00143227
-0.00026353
0.00384644
0.00100139
-0.00402609
0.00116112
-0.00106762
0.00134607
0.00199594
0.00152158
0.00453819
0.00166981
0.00650869
0.0017841
0.00835952
0.00185759
0.0104218
0.00187735
0.0122295
0.00183112
0.0127156
0.00172384
0.011009
0.0015868
0.00709422
0.00146016
0.00189488
0.00136779
-0.00316741
0.00131642
-0.0069488
0.00129977
-0.00901305
0.00129054
-0.00956594
0.00126028
-0.0094575
0.00121554
-0.0091794
0.00119523
-0.00859265
0.0012297
-0.00694291
0.00131532
-0.00411071
0.00142518
-0.000373386
0.0037472
0.000984047
-0.00411608
0.00114239
-0.00122596
0.00132794
0.00181039
0.00150564
0.00436049
0.00165726
0.00635708
0.00177614
0.00824065
0.00185508
0.0103429
0.00187999
0.0122046
0.00183684
0.0127587
0.00172942
0.0111164
0.00158945
0.00723419
0.00145849
0.00202584
0.00136162
-0.00307054
0.00130637
-0.00689356
0.00128764
-0.00899433
0.00127884
-0.00955714
0.00125021
-0.00942886
0.00120623
-0.00913543
0.00118555
-0.00857198
0.00121984
-0.0069772
0.00130619
-0.00419705
0.00141771
-0.000484908
0.0036454
0.00096668
-0.00420302
0.0011235
-0.00138278
0.0013094
0.00162448
0.00148903
0.00418087
0.00164386
0.00620224
0.00176724
0.00811727
0.00185165
0.0102585
0.00188183
0.0121744
0.00184197
0.0127986
0.00173464
0.0112237
0.00159191
0.00737692
0.00145671
0.00216104
0.00135535
-0.00296918
0.00129622
-0.00683443
0.00127534
-0.00897345
0.00126692
-0.00954872
0.00123996
-0.0094019
0.00119679
-0.00909226
0.00117571
-0.00855089
0.0012097
-0.00701119
0.00129671
-0.00428406
0.00140988
-0.000598081
0.00354104
0.000949269
-0.00428683
0.00110447
-0.00153799
0.00129053
0.00143843
0.00147182
0.00399957
0.00162966
0.00604441
0.00175741
0.00798952
0.00184729
0.0101686
0.00188286
0.0121388
0.00184648
0.012835
0.00173949
0.0113307
0.00159421
0.0075222
0.00145485
0.0023004
0.00134901
-0.00286333
0.00128597
-0.00677139
0.00126288
-0.00895035
0.00125477
-0.00954061
0.00122952
-0.00937665
0.00118724
-0.00904997
0.00116569
-0.00852934
0.00119927
-0.00704477
0.00128687
-0.00437166
0.00140168
-0.000712897
0.00343414
0.000931739
-0.00436743
0.00108531
-0.00169156
0.0012714
0.00125234
0.00145413
0.00381684
0.00161473
0.0058838
0.00174669
0.00785756
0.001842
0.0100733
0.00188305
0.0120978
0.00185038
0.0128676
0.00174399
0.0114371
0.00159638
0.00766981
0.00145293
0.00244384
0.0013426
-0.002753
0.00127563
-0.00670442
0.00125022
-0.00892495
0.00124236
-0.00953275
0.00121887
-0.00935316
0.00117754
-0.00900864
0.0011555
-0.00850731
0.00118853
-0.0070778
0.00127666
-0.0044598
0.00139313
-0.000829359
0.00332469
0.000914007
-0.00444468
0.00106593
-0.00184348
0.00125206
0.00106621
0.00143606
0.00363284
0.00159918
0.00572069
0.00173513
0.0077216
0.00183578
0.00997263
0.00188242
0.0120511
0.0018537
0.0128964
0.00174824
0.0115426
0.00159855
0.0078195
0.00145105
0.00259134
0.00133613
-0.00263808
0.00126513
-0.00663342
0.00123733
-0.00889715
0.00122966
-0.00952507
0.00120796
-0.00933146
0.00116768
-0.00896835
0.00114513
-0.00848477
0.00117748
-0.00711014
0.00126606
-0.00454838
0.00138419
-0.000947484
0.00321267
0.000896369
-0.00451841
0.00104657
-0.00199368
0.00123274
0.000880038
0.00141789
0.00344769
0.00158323
0.00555534
0.0017229
0.00758193
0.00182875
0.00986677
0.00188106
0.0119988
0.00185652
0.0129209
0.00175233
0.0116467
0.00160071
0.00797112
0.00144905
0.002743
0.00132947
-0.00251851
0.00125447
-0.00655842
0.00122427
-0.00886694
0.00121675
-0.00951755
0.00119689
-0.00931161
0.00115774
-0.0089292
0.00113468
-0.0084617
0.00116622
-0.00714168
0.00125515
-0.00463731
0.00137495
-0.00106728
0.00309807
0.000880566
0.00102889
-0.00214201
0.00121492
0.000694012
0.00140085
0.00326176
0.00156799
0.0053882
0.00171089
0.00743904
0.00182156
0.00975611
0.00187928
0.0119411
0.00185881
0.0129414
0.00175573
0.0117498
0.0016018
0.00812505
0.00144574
0.00289906
0.00132186
-0.00239463
0.00124346
-0.00648002
0.00121129
-0.00883477
0.00120406
-0.00951033
0.00118608
-0.00929363
0.00114815
-0.00889126
0.00112458
-0.00843814
0.00115523
-0.00717233
0.00124445
-0.00472654
0.00136592
-0.00118875
0.00298095
0.00394842
-0.00218548
0.00416317
0.000479264
0.00446827
0.00295667
0.00476857
0.00508789
0.00498881
0.0072188
0.00511084
0.00963408
0.00515977
0.0118922
0.00516459
0.0129366
0.00515939
0.011755
0.00518846
0.00809598
0.00525649
0.00283103
0.00533096
-0.0024691
0.00536033
-0.00650939
0.0053466
-0.00882103
0.00528396
-0.00944769
0.00513577
-0.00914544
0.00490668
-0.00866217
0.00468564
-0.0082171
0.00458092
-0.00706761
0.0046133
-0.00475892
0.0047277
-0.00130314
0.00287338
0.00408045
-0.00221189
0.00429006
0.000269657
0.00459893
0.00264779
0.00490499
0.00478183
0.00513724
0.00698654
0.00528133
0.00948999
0.00535599
0.0118175
0.00537975
0.0129128
0.00538219
0.0117526
0.00541277
0.0080654
0.00549286
0.00275094
0.00556738
-0.00254362
0.00558432
-0.00652633
0.00554855
-0.00878527
0.00546867
-0.00936782
0.00531202
-0.00898879
0.00507532
-0.00842547
0.00484225
-0.00798402
0.00472614
-0.0069515
0.00475511
-0.00478789
0.00487135
-0.00141938
0.00275586
0.00422527
-0.00222443
0.00442787
6.70525e-05
0.00473665
0.00233901
0.00504806
0.00447043
0.00529314
0.00674146
0.00545822
0.00932492
0.00555619
0.0117195
0.00559934
0.0128696
0.00561567
0.0117363
0.00565948
0.0080216
0.00574742
0.002663
0.00582118
-0.00261739
0.0058212
-0.00652634
0.00576062
-0.00872469
0.00566155
-0.00926874
0.00549576
-0.00882301
0.00525129
-0.008181
0.00500545
-0.00773819
0.00487677
-0.00682282
0.00490073
-0.00481186
0.00502199
-0.00154063
0.0026284
0.00438067
-0.00222188
0.00457423
-0.000126504
0.00488055
0.0020327
0.00519643
0.00415454
0.0054551
0.00648279
0.00564201
0.00913801
0.00576452
0.011597
0.00582939
0.0128048
0.00586338
0.0117023
0.00592244
0.00796253
0.00601916
0.00256628
0.00608912
-0.00268735
0.00607047
-0.00650769
0.00598287
-0.00863709
0.00586217
-0.00914804
0.00568642
-0.00864726
0.00543465
-0.00792923
0.00517564
-0.00747918
0.00503266
-0.00667984
0.00505055
-0.00482975
0.00517745
-0.00166753
0.00248924
0.00454573
-0.00220173
0.00472711
-0.00030788
0.00502886
0.00173094
0.00534887
0.00383453
0.00562214
0.00620953
0.00583242
0.00892773
0.00598165
0.0114478
0.00607038
0.0127161
0.0061244
0.0116482
0.00620132
0.00788561
0.00630706
0.00246054
0.00637102
-0.00275131
0.00633178
-0.00646845
0.00621494
-0.00852025
0.00607024
-0.00900334
0.00588362
-0.00846064
0.00562528
-0.00767089
0.00535318
-0.00720707
0.00519434
-0.006521
0.00520464
-0.00484005
0.00533705
-0.00179993
0.0023364
0.00471989
-0.00216121
0.00488516
-0.000473153
0.00518016
0.00143594
0.0055043
0.00351038
0.0057934
0.00592043
0.00602899
0.00869214
0.0062068
0.01127
0.00632096
0.0126019
0.00639849
0.0115707
0.00649649
0.00778761
0.00661051
0.00234652
0.00666609
-0.00280688
0.00660421
-0.00640658
0.00645626
-0.0083723
0.00628534
-0.00883242
0.00608695
-0.00826225
0.00582297
-0.00740691
0.00553831
-0.00692241
0.00536218
-0.00634487
0.00536294
-0.00484081
0.00550074
-0.00193773
0.00216811
0.00490301
-0.00209737
0.00504743
-0.000617573
0.00533317
0.0011502
0.00566156
0.003182
0.0059679
0.00561409
0.00623055
0.00842948
0.00643803
0.0110625
0.00657975
0.0124602
0.00668549
0.011465
0.00680742
0.00766569
0.00692863
0.0022253
0.00697307
-0.00285132
0.0068865
-0.00632
0.00670597
-0.00819177
0.00650694
-0.00863339
0.00629583
-0.00805114
0.00602735
-0.00713843
0.00573118
-0.00662625
0.00553658
-0.00615027
0.00552564
-0.00482987
0.00566842
-0.00208052
0.00198272
0.00509566
-0.00200771
0.00521366
-0.000735574
0.00548677
0.000877095
0.00581922
0.00284954
0.00614423
0.00528908
0.00643523
0.00813848
0.00667319
0.0108245
0.0068454
0.012288
0.00698431
0.0113261
0.00713282
0.00751718
0.00725996
0.00209817
0.00729026
-0.00288163
0.00717702
-0.00620676
0.00696295
-0.00797771
0.00673436
-0.0084048
0.00650966
-0.00782644
0.00623793
-0.0068667
0.00593185
-0.00632017
0.00571806
-0.00593647
0.00569306
-0.00480487
0.00583994
-0.00222739
0.00177877
0.00529927
-0.00189126
0.00538472
-0.000821024
0.00564033
0.000621489
0.00597584
0.00251403
0.00632062
0.0049443
0.00664078
0.00781833
0.00690993
0.0105554
0.00711591
0.012082
0.00729301
0.011149
0.00747068
0.00733951
0.00760232
0.00196652
0.00761542
-0.00289473
0.00747373
-0.00606507
0.00722581
-0.00772978
0.0069668
-0.00814579
0.00672771
-0.00758735
0.00645409
-0.00659308
0.00614029
-0.00600637
0.00590717
-0.00570336
0.0058657
-0.0047634
0.00601527
-0.00237696
0.00155522
0.0055158
-0.00174971
0.00556294
-0.000868164
0.00579442
0.000390016
0.0061304
0.00217804
0.00649516
0.00457955
0.00684458
0.00746891
0.00714539
0.0102546
0.00738858
0.0118388
0.00760893
0.0109286
0.00781815
0.00713029
0.00795282
0.00183185
0.00794575
-0.00288766
0.00777421
-0.00589353
0.00749286
-0.00744843
0.00720333
-0.00785626
0.00694924
-0.00733326
0.0066751
-0.00631895
0.00635631
-0.00568758
0.0061045
-0.00545155
0.00604425
-0.00470314
0.00619453
-0.00252725
0.00131161
0.00574708
-0.0015883
0.00575206
-0.00087314
0.00595138
0.000190701
0.00628285
0.00184657
0.00666596
0.00419644
0.00704351
0.00709135
0.00737606
0.00992203
0.00766008
0.0115548
0.00792863
0.01066
0.0081715
0.00688743
0.00830775
0.00169559
0.00827791
-0.00285781
0.00807567
-0.0056913
0.0077622
-0.00713496
0.00744293
-0.00753698
0.00717348
-0.00706381
0.00690014
-0.00604561
0.00657958
-0.00536702
0.00631059
-0.00518257
0.00622954
-0.00462209
0.00637802
-0.00267573
0.00104831
0.00599389
-0.00141584
0.00595657
-0.000835816
0.00611543
3.18424e-05
0.00643442
0.00152758
0.00683125
0.00379961
0.00723403
0.00668857
0.00759802
0.00955804
0.00792655
0.0112263
0.00824795
0.0103386
0.00852616
0.00660923
0.0086627
0.00155905
0.00860808
-0.00280319
0.00837507
-0.00545829
0.00803175
-0.00679164
0.00768451
-0.00718974
0.00739969
-0.00677899
0.00712834
-0.00577425
0.00680954
-0.00504823
0.00652586
-0.00489888
0.00642253
-0.00451876
0.00656613
-0.00281933
0.000766722
0.00625519
-0.00124375
0.00618052
-0.000761146
0.0062921
-7.97358e-05
0.00658756
0.00123212
0.00698953
0.00339764
0.00741239
0.00626571
0.00780706
0.00916337
0.00818377
0.0108496
0.00856217
0.00996023
0.00887691
0.00629449
0.00901267
0.0014233
0.00893212
-0.00272264
0.00866923
-0.0051954
0.00829936
-0.00642176
0.00792696
-0.00681734
0.00762717
-0.00647921
0.00735879
-0.00550587
0.0070455
-0.00473494
0.00675054
-0.00460392
0.00662416
-0.00439237
0.00675933
-0.00295449
0.00046935
0.00652774
-0.00108398
0.00642602
-0.000659425
0.00648695
-0.000140665
0.00674564
0.000973428
0.00713979
0.00300349
0.00757495
0.00583054
0.00799896
0.00873936
0.00842745
0.0104211
0.00886636
0.00952132
0.0092182
0.00594266
0.00935242
0.00128908
0.00924578