/*--------------------------------*- C++ -*----------------------------------*\
  =========                 |
  \\      /  F ield         | OpenFOAM: The Open Source CFD Toolbox
   \\    /   O peration     | Website:  https://openfoam.org
    \\  /    A nd           | Version:  7
     \\/     M anipulation  |
\*---------------------------------------------------------------------------*/
FoamFile
{
    version     2.0;
    format      ascii;
    class       volScalarField;
    location    "140";
    object      p;
}
// * * * * * * * * * * * * * * * * * * * * * * * * * * * * * * * * * * * * * //

dimensions      [0 2 -2 0 0 0 0];

internalField   nonuniform List<scalar> 
36600
(
-0.397613
-0.399269
-0.400167
-0.400878
-0.401504
-0.402113
-0.402781
-0.403558
-0.404474
-0.405542
-0.406767
-0.408147
-0.409677
-0.411351
-0.413161
-0.415098
-0.417155
-0.419328
-0.421495
-0.423689
-0.393081
-0.394815
-0.395736
-0.396444
-0.397038
-0.397582
-0.398151
-0.398791
-0.399528
-0.400375
-0.401334
-0.4024
-0.403565
-0.40482
-0.406153
-0.40755
-0.409001
-0.410501
-0.411913
-0.413273
-0.388628
-0.390427
-0.391365
-0.392065
-0.392625
-0.393104
-0.393572
-0.394074
-0.394634
-0.395261
-0.395955
-0.396708
-0.397509
-0.398345
-0.399202
-0.40006
-0.400907
-0.401737
-0.402397
-0.402924
-0.384263
-0.386115
-0.387065
-0.387755
-0.388278
-0.388691
-0.389059
-0.389425
-0.389809
-0.390218
-0.390649
-0.391092
-0.391532
-0.391954
-0.392338
-0.392663
-0.392912
-0.393083
-0.393002
-0.392705
-0.379996
-0.381891
-0.382847
-0.383524
-0.384009
-0.384356
-0.384626
-0.384857
-0.385068
-0.385263
-0.385435
-0.385573
-0.385658
-0.385672
-0.385592
-0.385393
-0.385057
-0.384584
-0.38378
-0.382676
-0.375838
-0.377763
-0.378722
-0.379382
-0.37983
-0.38011
-0.380284
-0.380384
-0.380426
-0.380411
-0.38033
-0.380169
-0.379908
-0.379522
-0.378989
-0.37828
-0.377374
-0.376276
-0.374776
-0.372889
-0.371794
-0.373741
-0.374698
-0.37534
-0.375749
-0.375965
-0.376045
-0.376018
-0.375895
-0.375676
-0.37535
-0.374898
-0.374298
-0.373525
-0.372552
-0.371348
-0.369893
-0.368195
-0.366028
-0.363389
-0.367871
-0.369832
-0.370784
-0.371406
-0.371777
-0.37193
-0.371919
-0.371768
-0.371487
-0.37107
-0.370505
-0.369772
-0.368845
-0.367697
-0.366299
-0.364619
-0.362637
-0.360367
-0.35757
-0.354215
-0.364076
-0.366043
-0.366987
-0.367588
-0.367921
-0.368014
-0.367915
-0.367645
-0.367211
-0.366604
-0.365809
-0.364804
-0.363561
-0.362052
-0.360247
-0.358112
-0.355627
-0.352815
-0.349427
-0.345396
-0.360412
-0.36238
-0.363313
-0.363893
-0.364188
-0.364223
-0.36404
-0.363657
-0.363075
-0.362286
-0.36127
-0.360003
-0.358458
-0.356603
-0.354407
-0.351839
-0.348878
-0.345556
-0.341618
-0.336955
-0.356885
-0.358848
-0.359769
-0.360327
-0.360586
-0.360565
-0.360302
-0.359809
-0.359087
-0.358123
-0.356895
-0.355378
-0.353543
-0.351357
-0.34879
-0.34581
-0.3424
-0.338601
-0.334158
-0.328906
-0.353496
-0.355452
-0.35636
-0.356896
-0.35712
-0.357046
-0.356705
-0.356109
-0.355253
-0.354121
-0.352691
-0.350935
-0.348822
-0.346321
-0.343401
-0.340033
-0.336201
-0.331958
-0.327054
-0.321259
-0.350249
-0.352195
-0.35309
-0.353604
-0.353795
-0.353669
-0.353256
-0.352561
-0.351576
-0.350285
-0.348661
-0.346677
-0.3443
-0.3415
-0.338246
-0.33451
-0.330283
-0.325629
-0.320308
-0.314017
-0.347146
-0.349082
-0.349964
-0.350457
-0.350615
-0.350441
-0.349958
-0.349168
-0.348062
-0.346618
-0.34481
-0.342608
-0.33998
-0.336895
-0.333324
-0.329244
-0.324647
-0.319612
-0.313921
-0.307177
-0.34419
-0.346116
-0.346985
-0.347458
-0.347584
-0.347363
-0.346814
-0.345935
-0.344712
-0.343123
-0.341139
-0.33873
-0.335863
-0.332508
-0.328638
-0.324234
-0.319291
-0.313905
-0.307888
-0.300734
-0.341383
-0.3433
-0.344156
-0.34461
-0.344706
-0.344441
-0.343829
-0.342864
-0.341531
-0.339803
-0.337652
-0.335045
-0.331951
-0.32834
-0.324188
-0.319478
-0.314212
-0.3085
-0.302199
-0.294671
-0.338728
-0.340638
-0.341482
-0.341917
-0.341985
-0.341677
-0.341004
-0.339958
-0.338519
-0.336659
-0.334348
-0.331554
-0.328245
-0.324391
-0.319971
-0.314974
-0.309405
-0.303388
-0.296839
-0.288943
-0.336228
-0.338133
-0.338966
-0.339383
-0.339423
-0.339074
-0.338343
-0.337219
-0.335678
-0.333693
-0.331231
-0.328259
-0.324746
-0.320662
-0.31599
-0.310721
-0.304868
-0.298565
-0.291794
-0.283508
-0.333886
-0.335788
-0.336611
-0.337011
-0.337024
-0.336635
-0.335849
-0.334649
-0.333012
-0.330908
-0.328302
-0.325161
-0.321454
-0.317153
-0.312242
-0.306718
-0.300598
-0.294031
-0.287062
-0.27844
-0.331705
-0.333607
-0.334421
-0.334804
-0.33479
-0.334363
-0.333522
-0.332251
-0.330522
-0.328304
-0.325563
-0.322263
-0.318373
-0.313868
-0.308731
-0.302966
-0.296597
-0.289784
-0.282629
-0.273842
-0.329689
-0.331593
-0.332398
-0.332765
-0.332725
-0.33226
-0.331367
-0.330027
-0.328211
-0.325885
-0.323015
-0.319566
-0.315505
-0.310807
-0.30546
-0.299467
-0.292862
-0.285811
-0.27842
-0.269602
-0.327844
-0.32975
-0.330546
-0.330896
-0.330831
-0.330328
-0.329385
-0.327979
-0.32608
-0.323653
-0.320663
-0.317074
-0.312854
-0.307977
-0.302431
-0.296225
-0.289396
-0.282133
-0.274506
-0.265615
-0.326173
-0.328082
-0.328869
-0.329202
-0.32911
-0.328571
-0.327579
-0.32611
-0.324133
-0.321612
-0.31851
-0.314791
-0.310424
-0.305382
-0.299653
-0.293246
-0.286204
-0.278729
-0.270893
-0.26188
-0.324681
-0.326592
-0.327369
-0.327684
-0.327566
-0.326991
-0.325951
-0.324422
-0.322371
-0.319763
-0.316558
-0.312722
-0.30822
-0.303028
-0.297132
-0.290539
-0.283293
-0.275606
-0.267568
-0.258382
-0.323374
-0.325284
-0.326049
-0.326345
-0.3262
-0.325589
-0.324503
-0.322918
-0.320799
-0.31811
-0.314813
-0.31087
-0.306249
-0.300923
-0.294876
-0.288112
-0.280673
-0.272776
-0.264532
-0.255102
-0.322256
-0.324162
-0.324913
-0.325188
-0.325015
-0.324368
-0.323238
-0.321599
-0.319418
-0.316656
-0.313276
-0.309241
-0.304516
-0.299072
-0.292892
-0.285977
-0.278357
-0.270249
-0.261791
-0.252022
-0.321333
-0.323228
-0.323962
-0.324214
-0.324012
-0.323329
-0.322156
-0.320468
-0.31823
-0.315404
-0.311952
-0.307836
-0.303023
-0.297481
-0.291189
-0.28414
-0.276354
-0.268037
-0.259357
-0.249131
-0.320608
-0.322486
-0.323199
-0.323425
-0.323192
-0.322473
-0.32126
-0.319525
-0.317236
-0.314353
-0.31084
-0.306659
-0.301774
-0.296153
-0.289769
-0.282608
-0.274673
-0.266151
-0.257244
-0.246425
-0.320085
-0.321937
-0.322625
-0.322821
-0.322555
-0.3218
-0.320547
-0.31877
-0.316436
-0.313505
-0.309942
-0.305708
-0.300768
-0.295087
-0.288633
-0.281383
-0.273319
-0.264598
-0.255465
-0.243903
-0.319768
-0.321584
-0.32224
-0.322402
-0.322101
-0.321309
-0.320018
-0.318202
-0.315828
-0.312858
-0.309255
-0.304982
-0.300002
-0.294279
-0.287776
-0.28046
-0.272287
-0.263378
-0.25403
-0.241575
-0.319659
-0.321425
-0.322044
-0.322168
-0.321828
-0.320998
-0.31967
-0.317818
-0.315409
-0.312407
-0.308774
-0.304474
-0.29947
-0.293722
-0.28719
-0.279829
-0.271569
-0.262484
-0.252943
-0.239455
-0.319758
-0.321462
-0.322035
-0.322116
-0.321734
-0.320865
-0.3195
-0.317615
-0.315176
-0.312147
-0.308494
-0.304177
-0.299161
-0.293403
-0.286858
-0.279471
-0.271147
-0.2619
-0.252193
-0.237564
-0.320064
-0.321692
-0.322213
-0.322245
-0.321817
-0.320906
-0.319504
-0.317586
-0.31512
-0.312071
-0.308404
-0.30408
-0.299062
-0.293307
-0.286762
-0.279366
-0.270995
-0.261603
-0.25176
-0.235926
-0.320578
-0.322113
-0.322574
-0.32255
-0.322071
-0.321115
-0.319674
-0.317724
-0.315234
-0.312169
-0.308493
-0.304169
-0.299157
-0.293413
-0.286881
-0.279488
-0.271086
-0.26157
-0.251609
-0.234573
-0.321295
-0.322723
-0.323114
-0.323027
-0.322491
-0.321486
-0.320005
-0.318023
-0.315509
-0.312429
-0.308748
-0.304428
-0.299428
-0.293702
-0.287189
-0.279811
-0.271394
-0.261782
-0.251708
-0.233562
-0.322211
-0.323516
-0.323829
-0.323671
-0.323072
-0.322013
-0.320487
-0.318471
-0.315933
-0.31284
-0.309155
-0.30484
-0.299856
-0.294153
-0.287666
-0.280313
-0.271893
-0.262232
-0.252031
-0.232995
-0.323322
-0.324489
-0.324714
-0.324477
-0.323807
-0.322688
-0.321113
-0.319059
-0.316494
-0.313386
-0.309697
-0.305389
-0.300422
-0.294744
-0.28829
-0.280975
-0.272567
-0.26292
-0.252514
-0.232866
-0.324622
-0.325637
-0.325763
-0.325438
-0.32469
-0.323504
-0.321873
-0.319776
-0.317182
-0.314055
-0.31036
-0.306058
-0.301106
-0.295457
-0.289044
-0.281787
-0.273425
-0.263899
-0.25304
-0.232776
-0.326105
-0.326952
-0.326971
-0.326549
-0.325713
-0.324452
-0.322759
-0.320612
-0.317982
-0.314833
-0.311129
-0.306829
-0.301893
-0.296274
-0.289913
-0.282743
-0.274507
-0.265333
-0.253793
-0.232945
-0.327763
-0.328431
-0.328332
-0.327802
-0.326869
-0.325524
-0.323761
-0.321558
-0.318886
-0.315708
-0.311989
-0.307688
-0.302765
-0.297178
-0.290878
-0.283831
-0.275826
-0.267352
-0.25584
-0.238956
-0.32959
-0.330067
-0.329841
-0.329194
-0.328154
-0.326715
-0.324872
-0.322604
-0.319882
-0.316669
-0.312929
-0.308622
-0.303709
-0.298152
-0.291919
-0.285015
-0.277297
-0.269637
-0.259629
-0.261067
-0.33158
-0.331855
-0.331492
-0.330718
-0.32956
-0.328017
-0.326085
-0.323743
-0.320962
-0.317707
-0.313939
-0.309619
-0.30471
-0.29918
-0.29301
-0.286246
-0.278805
-0.271848
-0.262839
-0.267505
-0.333728
-0.333791
-0.333283
-0.332371
-0.331084
-0.329427
-0.327394
-0.324969
-0.322121
-0.318815
-0.315011
-0.310671
-0.305759
-0.300248
-0.29413
-0.287483
-0.280264
-0.273741
-0.26524
-0.269625
-0.336028
-0.335872
-0.335208
-0.334149
-0.332724
-0.33094
-0.328798
-0.326278
-0.323354
-0.319988
-0.316141
-0.311772
-0.306846
-0.301341
-0.295258
-0.288692
-0.281624
-0.275299
-0.267066
-0.270367
-0.338477
-0.338093
-0.337268
-0.336051
-0.334476
-0.332557
-0.330293
-0.32767
-0.32466
-0.321225
-0.317325
-0.312917
-0.307966
-0.302451
-0.296377
-0.289847
-0.282851
-0.276539
-0.26839
-0.270132
-0.341073
-0.340455
-0.33946
-0.338076
-0.336341
-0.334275
-0.331881
-0.329145
-0.326039
-0.322526
-0.318563
-0.314105
-0.309114
-0.303567
-0.297471
-0.290927
-0.283925
-0.27748
-0.269273
-0.269286
-0.343815
-0.342957
-0.341784
-0.340224
-0.33832
-0.336098
-0.333564
-0.330706
-0.327495
-0.323895
-0.319857
-0.315335
-0.310284
-0.304682
-0.298529
-0.291918
-0.284836
-0.278149
-0.269785
-0.268102
-0.346703
-0.3456
-0.344241
-0.342498
-0.340415
-0.338029
-0.335346
-0.332356
-0.329033
-0.325334
-0.321209
-0.316606
-0.311476
-0.305788
-0.29954
-0.292809
-0.28558
-0.278575
-0.26999
-0.266746
-0.349739
-0.348385
-0.346835
-0.3449
-0.342631
-0.340072
-0.337232
-0.334103
-0.330657
-0.326848
-0.322623
-0.317921
-0.312686
-0.306881
-0.300495
-0.293594
-0.286159
-0.278786
-0.269939
-0.265311
-0.352927
-0.351315
-0.349567
-0.347434
-0.344972
-0.342233
-0.339229
-0.335953
-0.332374
-0.328445
-0.324102
-0.319278
-0.31391
-0.307952
-0.301388
-0.294269
-0.286578
-0.278808
-0.269675
-0.26385
-0.356269
-0.354394
-0.352443
-0.350106
-0.347444
-0.344519
-0.341345
-0.337913
-0.334192
-0.330128
-0.325649
-0.320679
-0.315146
-0.308998
-0.302211
-0.294829
-0.286842
-0.27866
-0.26923
-0.262386
-0.359771
-0.357626
-0.355466
-0.35292
-0.350054
-0.346937
-0.343586
-0.339992
-0.336117
-0.331902
-0.327265
-0.322121
-0.316389
-0.31001
-0.302959
-0.295275
-0.286958
-0.27836
-0.268628
-0.260928
-0.363438
-0.361015
-0.358642
-0.355881
-0.352807
-0.349494
-0.345961
-0.342195
-0.338155
-0.33377
-0.328952
-0.323602
-0.317633
-0.310983
-0.303626
-0.295605
-0.286933
-0.27792
-0.26789
-0.259471
-0.367273
-0.364566
-0.361975
-0.358997
-0.35571
-0.352198
-0.348476
-0.344529
-0.340309
-0.335735
-0.330707
-0.325117
-0.318872
-0.311908
-0.304208
-0.295817
-0.286771
-0.277352
-0.267029
-0.258009
-0.371283
-0.368283
-0.36547
-0.36227
-0.358769
-0.355053
-0.351136
-0.346999
-0.342583
-0.337796
-0.332526
-0.326658
-0.320096
-0.312779
-0.304698
-0.295913
-0.286478
-0.276663
-0.266054
-0.256531
-0.375471
-0.372169
-0.36913
-0.365707
-0.361988
-0.358065
-0.353947
-0.349607
-0.344975
-0.339949
-0.334404
-0.328219
-0.321296
-0.313586
-0.305092
-0.29589
-0.286059
-0.275859
-0.264974
-0.255026
-0.379839
-0.376227
-0.372958
-0.369311
-0.365372
-0.361238
-0.356911
-0.352354
-0.347485
-0.342189
-0.336331
-0.329787
-0.322463
-0.314321
-0.305385
-0.29575
-0.285517
-0.274944
-0.263792
-0.253481
-0.38439
-0.380458
-0.376958
-0.373084
-0.368924
-0.364574
-0.360028
-0.355238
-0.350108
-0.344508
-0.338298
-0.331351
-0.323584
-0.314975
-0.305572
-0.29549
-0.284855
-0.273921
-0.262511
-0.251885
-0.389123
-0.384863
-0.381129
-0.377027
-0.372644
-0.368072
-0.363297
-0.358255
-0.352835
-0.346896
-0.340291
-0.332897
-0.324646
-0.315539
-0.305647
-0.29511
-0.284073
-0.272792
-0.261133
-0.250229
-0.394037
-0.38944
-0.38547
-0.38114
-0.376531
-0.371732
-0.366714
-0.361397
-0.355656
-0.349339
-0.342295
-0.334411
-0.325638
-0.316003
-0.305606
-0.294608
-0.283175
-0.271556
-0.259656
-0.248502
-0.399128
-0.394187
-0.38998
-0.385421
-0.380583
-0.375549
-0.370272
-0.364656
-0.358559
-0.351821
-0.344293
-0.335876
-0.326546
-0.316359
-0.305444
-0.293983
-0.282158
-0.270213
-0.25808
-0.246696
-0.40439
-0.399099
-0.394654
-0.389865
-0.384795
-0.379515
-0.373961
-0.368017
-0.361527
-0.354324
-0.346266
-0.337276
-0.327356
-0.316597
-0.305156
-0.293233
-0.281022
-0.268761
-0.256404
-0.244805
-0.409815
-0.404168
-0.399486
-0.394467
-0.389159
-0.383622
-0.37777
-0.371466
-0.364542
-0.356828
-0.348196
-0.338593
-0.328056
-0.316708
-0.304735
-0.292354
-0.279766
-0.267199
-0.254623
-0.24282
-0.415392
-0.409385
-0.404466
-0.399216
-0.393666
-0.387858
-0.381683
-0.374984
-0.367582
-0.359312
-0.350061
-0.33981
-0.328631
-0.316683
-0.304177
-0.291343
-0.278386
-0.265523
-0.252735
-0.240736
-0.421109
-0.414739
-0.409585
-0.404103
-0.398303
-0.392208
-0.385682
-0.37855
-0.370626
-0.361751
-0.351841
-0.340909
-0.329069
-0.316513
-0.303476
-0.290196
-0.27688
-0.26373
-0.250735
-0.238547
-0.426949
-0.420216
-0.414828
-0.409114
-0.403054
-0.396653
-0.389746
-0.382141
-0.373647
-0.364122
-0.353512
-0.341871
-0.329355
-0.316189
-0.302625
-0.288908
-0.275244
-0.261815
-0.24862
-0.236247
-0.432895
-0.425801
-0.420182
-0.414232
-0.407904
-0.401174
-0.393851
-0.385729
-0.376619
-0.366399
-0.355053
-0.342681
-0.329479
-0.315701
-0.301618
-0.287475
-0.273472
-0.259774
-0.246385
-0.23383
-0.438927
-0.431473
-0.425626
-0.419439
-0.412829
-0.405746
-0.397972
-0.389288
-0.379514
-0.368556
-0.356443
-0.34332
-0.329425
-0.315041
-0.300448
-0.28589
-0.271559
-0.257602
-0.244025
-0.231292
-0.445019
-0.437212
-0.431141
-0.424713
-0.417807
-0.410344
-0.40208
-0.392787
-0.382302
-0.370567
-0.357658
-0.343771
-0.329183
-0.314199
-0.299107
-0.284148
-0.2695
-0.255292
-0.241534
-0.228626
-0.451149
-0.442995
-0.436703
-0.430029
-0.422811
-0.414938
-0.406142
-0.396195
-0.384954
-0.372405
-0.358678
-0.344018
-0.328739
-0.313165
-0.297589
-0.282241
-0.267288
-0.252839
-0.238906
-0.225829
-0.457286
-0.448795
-0.442286
-0.435362
-0.427813
-0.419498
-0.410128
-0.399478
-0.387438
-0.374044
-0.359481
-0.344045
-0.328081
-0.311931
-0.295885
-0.280163
-0.264917
-0.250236
-0.236136
-0.222894
-0.4634
-0.454583
-0.447862
-0.440681
-0.432781
-0.423989
-0.414001
-0.402603
-0.389725
-0.375458
-0.360047
-0.343834
-0.327197
-0.310486
-0.293986
-0.277905
-0.262378
-0.247478
-0.233217
-0.219816
-0.469458
-0.460329
-0.453399
-0.445954
-0.43768
-0.428376
-0.417725
-0.405535
-0.391783
-0.376621
-0.360355
-0.343372
-0.326075
-0.30882
-0.291884
-0.27546
-0.259666
-0.244556
-0.230144
-0.216589
-0.475425
-0.465999
-0.458865
-0.451146
-0.442475
-0.43262
-0.421263
-0.40824
-0.393582
-0.377509
-0.360385
-0.342643
-0.324704
-0.306924
-0.289572
-0.272821
-0.256773
-0.241465
-0.226911
-0.213209
-0.481264
-0.471557
-0.464223
-0.45622
-0.447125
-0.436683
-0.424577
-0.410682
-0.395092
-0.378096
-0.36012
-0.341633
-0.323071
-0.304788
-0.287038
-0.269978
-0.253691
-0.238197
-0.223511
-0.209671
-0.486935
-0.476965
-0.469435
-0.461137
-0.451592
-0.440524
-0.427628
-0.412826
-0.396283
-0.378361
-0.359541
-0.340326
-0.321164
-0.302402
-0.284276
-0.266924
-0.250412
-0.234746
-0.219938
-0.205969
-0.492398
-0.482186
-0.474462
-0.465857
-0.455834
-0.444102
-0.430377
-0.41464
-0.397129
-0.378281
-0.358631
-0.338711
-0.318974
-0.299755
-0.281274
-0.26365
-0.24693
-0.231105
-0.216185
-0.202097
-0.49761
-0.487176
-0.479263
-0.470336
-0.459807
-0.447375
-0.432787
-0.416088
-0.397601
-0.377833
-0.357372
-0.336772
-0.316487
-0.296839
-0.278026
-0.260148
-0.243236
-0.227267
-0.212249
-0.198052
-0.502528
-0.491895
-0.483794
-0.474532
-0.463469
-0.450301
-0.434818
-0.41714
-0.397673
-0.376999
-0.35575
-0.334499
-0.313694
-0.293643
-0.274522
-0.256411
-0.239323
-0.223226
-0.208121
-0.193829
-0.507107
-0.496298
-0.488012
-0.478401
-0.466775
-0.452839
-0.436434
-0.417764
-0.397321
-0.375758
-0.353748
-0.331877
-0.310585
-0.290158
-0.270753
-0.25243
-0.235185
-0.218976
-0.203798
-0.189423
-0.511302
-0.500343
-0.491873
-0.481896
-0.469681
-0.454948
-0.4376
-0.41793
-0.396521
-0.374093
-0.351354
-0.328896
-0.307148
-0.286375
-0.266711
-0.248197
-0.230814
-0.214511
-0.199275
-0.184831
-0.515068
-0.503983
-0.49533
-0.484973
-0.472143
-0.456587
-0.43828
-0.41761
-0.395251
-0.371986
-0.348553
-0.325545
-0.303374
-0.282285
-0.262388
-0.243706
-0.226205
-0.209824
-0.194545
-0.180047
-0.51836
-0.507173
-0.498339
-0.487588
-0.474119
-0.457718
-0.438441
-0.416778
-0.393492
-0.369423
-0.345333
-0.321812
-0.299254
-0.277879
-0.257776
-0.238949
-0.22135
-0.204912
-0.189605
-0.175069
-0.521132
-0.50987
-0.500855
-0.489695
-0.475567
-0.458304
-0.438053
-0.415409
-0.391223
-0.366387
-0.341681
-0.317688
-0.294779
-0.27315
-0.252868
-0.233921
-0.216245
-0.199769
-0.184451
-0.169893
-0.52334
-0.512029
-0.502834
-0.491251
-0.476446
-0.458309
-0.437086
-0.413481
-0.388428
-0.362867
-0.337589
-0.313164
-0.289941
-0.268091
-0.247658
-0.228614
-0.210884
-0.19439
-0.179078
-0.164518
-0.52494
-0.513606
-0.504232
-0.492214
-0.476718
-0.457699
-0.435514
-0.410973
-0.385091
-0.35885
-0.333045
-0.308231
-0.284733
-0.262694
-0.242139
-0.223025
-0.205263
-0.188771
-0.173485
-0.158939
-0.525891
-0.51456
-0.505007
-0.492545
-0.476345
-0.456444
-0.433311
-0.407865
-0.381198
-0.354325
-0.328041
-0.302883
-0.279147
-0.256953
-0.236307
-0.217147
-0.199376
-0.18291
-0.167667
-0.153155
-0.526152
-0.514849
-0.505118
-0.492203
-0.475294
-0.454516
-0.430456
-0.404143
-0.376737
-0.349282
-0.32257
-0.297112
-0.273178
-0.250864
-0.230155
-0.210977
-0.193222
-0.176802
-0.161622
-0.147164
-0.525685
-0.514435
-0.504528
-0.491154
-0.473532
-0.451887
-0.426928
-0.39979
-0.371698
-0.343715
-0.316624
-0.290912
-0.266821
-0.244421
-0.22368
-0.204511
-0.186796
-0.170444
-0.155348
-0.140966
-0.524452
-0.513281
-0.5032
-0.489362
-0.471031
-0.448535
-0.422711
-0.394795
-0.366071
-0.337616
-0.310199
-0.284279
-0.260071
-0.237621
-0.216879
-0.197746
-0.180095
-0.163836
-0.148849
-0.134571
-0.522421
-0.511352
-0.5011
-0.486798
-0.467764
-0.444439
-0.417789
-0.389148
-0.359849
-0.33098
-0.30329
-0.27721
-0.252926
-0.230461
-0.209749
-0.19068
-0.173117
-0.156973
-0.142125
-0.127979
-0.519559
-0.508617
-0.498196
-0.483432
-0.463707
-0.439581
-0.41215
-0.38284
-0.353028
-0.323803
-0.295894
-0.269701
-0.245382
-0.222939
-0.202289
-0.183311
-0.16586
-0.149853
-0.135165
-0.121141
-0.515838
-0.505046
-0.494462
-0.479241
-0.458841
-0.433948
-0.405785
-0.375866
-0.345603
-0.316083
-0.288009
-0.261751
-0.237439
-0.215054
-0.194498
-0.175639
-0.158326
-0.142477
-0.127941
-0.113934
-0.511233
-0.500613
-0.489872
-0.474202
-0.453148
-0.427528
-0.398687
-0.368221
-0.337572
-0.307819
-0.279635
-0.253361
-0.229097
-0.206806
-0.186377
-0.167667
-0.150518
-0.134853
-0.120452
-0.106323
-0.505721
-0.495295
-0.484403
-0.468297
-0.446616
-0.420311
-0.390851
-0.359905
-0.328936
-0.299011
-0.270773
-0.24453
-0.220357
-0.198197
-0.177927
-0.159395
-0.142437
-0.126985
-0.112762
-0.0988895
-0.499285
-0.489074
-0.47804
-0.461511
-0.439234
-0.412293
-0.382276
-0.350917
-0.319697
-0.289661
-0.261424
-0.23526
-0.21122
-0.189228
-0.16915
-0.150825
-0.134084
-0.118876
-0.104843
-0.0912917
-0.491908
-0.481932
-0.470765
-0.453833
-0.430994
-0.40347
-0.372961
-0.34126
-0.309856
-0.279774
-0.251592
-0.225556
-0.20169
-0.179903
-0.16005
-0.141963
-0.125474
-0.110517
-0.0967178
-0.0834728
-0.483578
-0.473857
-0.46257
-0.445256
-0.421895
-0.393844
-0.362911
-0.33094
-0.299421
-0.269353
-0.241283
-0.215421
-0.191771
-0.170226
-0.150631
-0.132811
-0.1166
-0.101922
-0.0883838
-0.0754337
-0.474289
-0.464841
-0.453445
-0.435774
-0.411935
-0.383418
-0.352131
-0.319961
-0.288397
-0.258406
-0.2305
-0.204861
-0.181469
-0.160202
-0.140898
-0.123375
-0.107467
-0.0930955
-0.0798392
-0.0671861
-0.464035
-0.454878
-0.443388
-0.425388
-0.401117
-0.372196
-0.340628
-0.308334
-0.276793
-0.246941
-0.219254
-0.193883
-0.17079
-0.149838
-0.130856
-0.11366
-0.0980802
-0.084041
-0.0710861
-0.0587404
-0.452815
-0.443967
-0.432399
-0.414101
-0.389448
-0.36019
-0.328414
-0.296069
-0.264619
-0.234966
-0.207551
-0.182495
-0.159741
-0.139139
-0.120513
-0.103672
-0.0884472
-0.0747639
-0.0621291
-0.050105
-0.440633
-0.43211
-0.420482
-0.401918
-0.376937
-0.347409
-0.3155
-0.283178
-0.251887
-0.222493
-0.195402
-0.170707
-0.148331
-0.128116
-0.109876
-0.0934192
-0.0785748
-0.0652705
-0.0529744
-0.0412879
-0.427496
-0.419314
-0.407643
-0.388851
-0.363597
-0.333869
-0.301901
-0.269675
-0.23861
-0.209535
-0.182818
-0.158528
-0.136571
-0.116776
-0.0989551
-0.0829096
-0.0684711
-0.0555684
-0.0436292
-0.0322968
-0.413413
-0.405587
-0.393894
-0.374912
-0.349443
-0.319585
-0.287634
-0.255577
-0.224803
-0.196103
-0.169812
-0.145971
-0.124471
-0.105131
-0.087759
-0.0721528
-0.0581452
-0.0456659
-0.0341017
-0.02314
-0.398399
-0.390943
-0.379249
-0.360117
-0.334493
-0.304577
-0.272718
-0.240901
-0.210483
-0.182215
-0.156398
-0.133049
-0.112042
-0.0931922
-0.0762989
-0.0611591
-0.0476069
-0.0355726
-0.0244012
-0.0138265
-0.38247
-0.375398
-0.363726
-0.344487
-0.318768
-0.288866
-0.257175
-0.225666
-0.195667
-0.167886
-0.14259
-0.119774
-0.0992988
-0.0809709
-0.0645865
-0.0499397
-0.0368672
-0.0252989
-0.014538
-0.00436605
-0.365649
-0.358972
-0.347345
-0.328043
-0.302292
-0.272478
-0.241024
-0.209893
-0.180375
-0.153134
-0.128405
-0.106162
-0.0862544
-0.0684807
-0.0526342
-0.0385068
-0.0259378
-0.0148563
-0.00452336
0.00522997
-0.347957
-0.341689
-0.330132
-0.310811
-0.285091
-0.255437
-0.224289
-0.193607
-0.164627
-0.137977
-0.113859
-0.0922297
-0.0729237
-0.0557356
-0.0404554
-0.0268733
-0.0148313
-0.00425701
0.00563017
0.0149486
-0.329424
-0.323575
-0.312112
-0.29282
-0.267197
-0.237762
-0.207002
-0.17683
-0.148445
-0.122435
-0.0989723
-0.0779929
-0.0593224
-0.0427503
-0.0280641
-0.0150525
-0.0035611
0.00648551
0.0159087
0.0247747
-0.310077
-0.304658
-0.293316
-0.274103
-0.24864
-0.219485
-0.189186
-0.159587
-0.131852
-0.10653
-0.0837628
-0.0634696
-0.0454669
-0.0295402
-0.0154748
-0.00305885
0.00785861
0.0173572
0.0262972
0.0346906
-0.289949
-0.284971
-0.273777
-0.254692
-0.22943
-0.200658
-0.170871
-0.141906
-0.114873
-0.0902834
-0.068251
-0.0486785
-0.0313745
-0.0161212
-0.00270259
0.00909325
0.0194133
0.0283432
0.036779
0.0446758
-0.269075
-0.264552
-0.253534
-0.234607
-0.209627
-0.181295
-0.152089
-0.123814
-0.0975339
-0.0737189
-0.0524582
-0.0336389
-0.0170629
-0.00250984
0.0102371
0.021389
0.031088
0.0394285
0.0473364
0.0547047
-0.24749
-0.243439
-0.232631
-0.213882
-0.189265
-0.161434
-0.13287
-0.10534
-0.0798601
-0.0568606
-0.0364063
-0.018371
-0.00255052
0.0112771
0.0233289
0.0338135
0.0428681
0.050598
0.0579494
0.0647433
-0.225231
-0.221668
-0.211062
-0.192605
-0.168381
-0.14111
-0.113248
-0.0865158
-0.0618795
-0.0397333
-0.0201182
-0.00289562
0.0121437
0.0252224
0.036557
0.0463525
0.0547396
0.0618375
0.0685973
0.0747513
-0.202331
-0.199294
-0.188913
-0.170782
-0.147011
-0.120361
-0.0932576
-0.0673714
-0.0436207
-0.0223632
-0.00361756
0.0127658
0.0270002
0.0393086
0.049906
0.0589919
0.0666894
0.0731352
0.0792641
0.0846962
-0.178827
-0.176373
-0.166229
-0.148456
-0.125199
-0.0992265
-0.0729337
-0.0479395
-0.025113
-0.00477681
0.0130713
0.028591
0.0419989
0.0535178
0.0633606
0.0717181
0.078705
0.0844836
0.0899458
0.0945493
-0.154832
-0.152904
-0.143049
-0.125676
-0.102985
-0.0777449
-0.0523128
-0.0282531
-0.00638666
0.0129981
0.0299231
0.0445572
0.0571194
0.0678321
0.0769053
0.0845179
0.0907767
0.095884
0.100638
0.10421
-0.130395
-0.128926
-0.119418
-0.102487
-0.0804133
-0.055957
-0.0314318
-0.0083462
0.0125274
0.0309334
0.0469121
0.0606407
0.0723404
0.082233
0.0905247
0.0973795
0.102904
0.107355
0.111303
0.113416
-0.105516
-0.104522
-0.0953847
-0.0789354
-0.0575282
-0.033904
-0.0103287
0.0117466
0.0315975
0.0489999
0.0640116
0.0768171
0.0876398
0.0967009
0.104202
0.110294
0.115102
0.118936
0.121901
0.121939
-0.0802485
-0.0797463
-0.070998
-0.0550702
-0.0343753
-0.0116281
0.0109578
0.0319901
0.0507913
0.0671681
0.0811943
0.0930615
0.102995
0.111215
0.117919
0.123251
0.12738
0.130638
0.132466
0.13041
-0.0546498
-0.0546495
-0.0463094
-0.0309404
-0.0110006
0.0108282
0.0323887
0.0523482
0.070076
0.0854077
0.0984325
0.109348
0.118381
0.125752
0.131654
0.136234
0.139711
0.142358
0.142946
0.141444
-0.0287734
-0.0292818
-0.0213699
-0.00659518
0.0125493
0.0334215
0.0539241
0.0727847
0.0894181
0.103688
0.115697
0.12565
0.133773
0.140288
0.145384
0.149214
0.152027
0.154014
0.153888
0.153088
-0.00267537
-0.00369732
0.00376729
0.0179148
0.0362269
0.0561083
0.0755241
0.0932629
0.108784
0.121978
0.132961
0.141941
0.149147
0.154799
0.159085
0.162165
0.164294
0.165601
0.164903
0.164178
0.023588
0.0220496
0.0290488
0.0425386
0.0599848
0.0788445
0.0971482
0.113746
0.12814
0.140246
0.150193
0.158193
0.164476
0.16926
0.172733
0.17506
0.176493
0.177126
0.175898
0.174958
0.0499604
0.0479041
0.0544208
0.067225
0.083775
0.101586
0.118756
0.134196
0.147451
0.15846
0.167365
0.17438
0.179736
0.183648
0.186306
0.187875
0.188602
0.188563
0.186799
0.185508
0.0763852
0.0738106
0.0798293
0.0919225
0.107549
0.124288
0.140307
0.154576
0.166683
0.17659
0.184447
0.190473
0.194899
0.197939
0.199778
0.200586
0.200602
0.199889
0.197572
0.195848
0.102806
0.0997135
0.10522
0.11658
0.13126
0.146907
0.16176
0.174849
0.185802
0.194602
0.20141
0.206447
0.209941
0.212107
0.213128
0.213172
0.212474
0.211084
0.208198
0.205994
0.129164
0.125557
0.130539
0.141145
0.154859
0.169398
0.183074
0.194978
0.204773
0.212466
0.218225
0.222272
0.224837
0.226129
0.226332
0.225613
0.224198
0.22213
0.218664
0.215949
0.155405
0.151285
0.155731
0.165567
0.178299
0.191718
0.204211
0.214925
0.223564
0.230151
0.234862
0.237923
0.239561
0.239983
0.239371
0.237888
0.235757
0.23301
0.228957
0.225713
0.181471
0.176842
0.180743
0.189795
0.201532
0.213823
0.225128
0.234654
0.242138
0.247624
0.251293
0.253373
0.254089
0.253646
0.252221
0.24998
0.247133
0.24371
0.239067
0.235281
0.207306
0.202172
0.205522
0.213779
0.224511
0.23567
0.245788
0.254128
0.260464
0.264855
0.26749
0.268596
0.268396
0.267094
0.264864
0.261867
0.25831
0.254213
0.248984
0.244647
0.232853
0.227221
0.230014
0.237468
0.24719
0.257215
0.266149
0.273312
0.278508
0.281813
0.283423
0.283564
0.282458
0.280305
0.277277
0.273533
0.269272
0.264507
0.258695
0.253803
0.258058
0.251934
0.254167
0.260813
0.269523
0.278417
0.286175
0.292169
0.296237
0.298469
0.299065
0.298253
0.296252
0.293259
0.289443
0.284959
0.280001
0.274577
0.268188
0.26274
0.282867
0.276258
0.277929
0.283765
0.291465
0.299234
0.305826
0.310665
0.313618
0.314792
0.314389
0.312638
0.309754
0.305933
0.30134
0.296128
0.290482
0.284408
0.277453
0.271448
0.307224
0.300139
0.30125
0.306276
0.312972
0.319626
0.325065
0.328765
0.330621
0.330753
0.329368
0.326693
0.322942
0.318306
0.31295
0.307022
0.3007
0.293989