/*--------------------------------*- C++ -*----------------------------------*\
  =========                 |
  \\      /  F ield         | OpenFOAM: The Open Source CFD Toolbox
   \\    /   O peration     | Website:  https://openfoam.org
    \\  /    A nd           | Version:  7
     \\/     M anipulation  |
\*---------------------------------------------------------------------------*/
FoamFile
{
    version     2.0;
    format      ascii;
    class       volScalarField;
    location    "280";
    object      p;
}
// * * * * * * * * * * * * * * * * * * * * * * * * * * * * * * * * * * * * * //

dimensions      [0 2 -2 0 0 0 0];

internalField   nonuniform List<scalar> 
4575
(
-0.136337
-0.149299
-0.146666
-0.129942
-0.107717
-0.0882206
-0.0750631
-0.0676155
-0.0655413
-0.0701899
-0.0805866
-0.0907944
-0.0936983
-0.0869122
-0.0748891
-0.0634223
-0.0553233
-0.0506875
-0.0503893
-0.053846
-0.0578841
-0.0581652
-0.0545537
-0.0484735
-0.139505
-0.152717
-0.14985
-0.132544
-0.109601
-0.0893767
-0.0755489
-0.0675116
-0.0648496
-0.0688524
-0.078617
-0.088359
-0.0911048
-0.0845191
-0.0729805
-0.0621321
-0.0546408
-0.0505911
-0.0508973
-0.0549503
-0.0594747
-0.059986
-0.0562948
-0.0498709
-0.142609
-0.15608
-0.152993
-0.135112
-0.111453
-0.0905009
-0.0760036
-0.0673798
-0.0641353
-0.0674968
-0.0766335
-0.0859159
-0.0885107
-0.0821287
-0.0710701
-0.0608316
-0.0539422
-0.0504796
-0.0513959
-0.0560547
-0.0610755
-0.0618225
-0.0580487
-0.0512717
-0.14564
-0.159383
-0.156092
-0.137644
-0.113272
-0.0915939
-0.0764289
-0.0672224
-0.0634013
-0.0661269
-0.0746405
-0.0834694
-0.0859197
-0.0797433
-0.0691589
-0.059521
-0.0532271
-0.0503517
-0.0518833
-0.0571571
-0.0626841
-0.0636729
-0.0598144
-0.0526755
-0.148592
-0.162621
-0.159143
-0.140137
-0.115057
-0.0926565
-0.0768263
-0.0670414
-0.0626506
-0.0647466
-0.0726425
-0.081024
-0.0833352
-0.0773652
-0.0672481
-0.0582005
-0.052495
-0.0502063
-0.0523576
-0.058255
-0.0642982
-0.0655352
-0.0615909
-0.0540818
-0.151458
-0.165787
-0.162141
-0.142591
-0.116809
-0.0936895
-0.0771974
-0.0668393
-0.061886
-0.0633594
-0.0706436
-0.0785837
-0.0807606
-0.0749969
-0.0653388
-0.0568703
-0.0517453
-0.0500421
-0.052817
-0.0593463
-0.0659154
-0.0674077
-0.0633771
-0.0554903
-0.154229
-0.168875
-0.165082
-0.145003
-0.118526
-0.0946938
-0.077544
-0.0666181
-0.0611104
-0.0619692
-0.068648
-0.0761528
-0.0781995
-0.0726405
-0.0634324
-0.0555307
-0.0509778
-0.0498581
-0.0532596
-0.0604283
-0.0675333
-0.0692884
-0.0651719
-0.0569006
-0.156899
-0.17188
-0.167963
-0.147371
-0.120209
-0.0956702
-0.0778679
-0.0663801
-0.0603266
-0.0605793
-0.0666598
-0.0737352
-0.0756549
-0.0702984
-0.06153
-0.0541823
-0.0501921
-0.0496531
-0.0536835
-0.0614987
-0.0691492
-0.0711753
-0.0669741
-0.0583122
-0.159462
-0.174794
-0.170779
-0.149694
-0.121858
-0.0966198
-0.0781707
-0.0661276
-0.0595372
-0.0591933
-0.0646829
-0.0713348
-0.0731303
-0.0679728
-0.059633
-0.0528254
-0.0493878
-0.049426
-0.0540866
-0.0625549
-0.0707606
-0.0730662
-0.0687826
-0.0597248
-0.16191
-0.177614
-0.173527
-0.151969
-0.123472
-0.0975435
-0.0784542
-0.0658626
-0.0587449
-0.0578143
-0.0627211
-0.0689555
-0.0706287
-0.0656659
-0.0577427
-0.0514606
-0.0485649
-0.0491757
-0.0544672
-0.0635943
-0.0723647
-0.0749592
-0.0705961
-0.061138
-0.180332
-0.176203
-0.154196
-0.125051
-0.0984425
-0.0787204
-0.0655873
-0.0579522
-0.0564455
-0.0607779
-0.0666008
-0.0681531
-0.06338
-0.0558603
-0.0500885
-0.0477231
-0.0489012
-0.0548233
-0.0646143
-0.0739589
-0.0768518
-0.0724135
-0.0625514
-0.182944
-0.178802
-0.156372
-0.126595
-0.0993176
-0.0789708
-0.065304
-0.0571616
-0.0550899
-0.0588567
-0.0642742
-0.0657066
-0.0611172
-0.0539874
-0.0487097
-0.0468624
-0.0486015
-0.0551529
-0.0656124
-0.0755403
-0.0787421
-0.0742334
-0.0639647
-0.185443
-0.181322
-0.158496
-0.128104
-0.10017
-0.0792074
-0.0650145
-0.0563752
-0.0537502
-0.0569608
-0.061979
-0.0632921
-0.0588797
-0.0521253
-0.0473251
-0.0459828
-0.0482757
-0.0554542
-0.0665859
-0.0771062
-0.0806275
-0.0760545
-0.0653773
-0.187825
-0.183757
-0.160567
-0.129579
-0.101001
-0.0794317
-0.0647209
-0.0555954
-0.052429
-0.0550932
-0.0597184
-0.0609122
-0.0566695
-0.0502754
-0.0459354
-0.0450843
-0.0479229
-0.0557255
-0.0675322
-0.0786537
-0.0825059
-0.0778754
-0.0667891
-0.190084
-0.186105
-0.162582
-0.131019
-0.101811
-0.0796457
-0.0644252
-0.0548242
-0.0511288
-0.0532567
-0.0574952
-0.0585696
-0.0544887
-0.0484393
-0.0445415
-0.044167
-0.0475422
-0.0559647
-0.0684488
-0.08018
-0.0843748
-0.0796949
-0.0681994
-0.192216
-0.188363
-0.16454
-0.132424
-0.102601
-0.0798509
-0.0641292
-0.0540636
-0.0498517
-0.051454
-0.0553122
-0.0562668
-0.0523394
-0.0466183
-0.0431443
-0.0432312
-0.047133
-0.0561704
-0.0693331
-0.0816823
-0.0862319
-0.0815114
-0.069608
-0.194217
-0.190525
-0.166439
-0.133794
-0.103373
-0.0800489
-0.0638349
-0.0533155
-0.0485998
-0.0496873
-0.0531719
-0.0540063
-0.0502236
-0.0448141
-0.041745
-0.0422772
-0.0466946
-0.0563407
-0.0701825
-0.0831578
-0.0880747
-0.0833235
-0.0710144
-0.196081
-0.192589
-0.168279
-0.13513
-0.104128
-0.0802414
-0.0635439
-0.0525816
-0.047375
-0.0479588
-0.0510765
-0.0517903
-0.0481431
-0.043028
-0.0403445
-0.0413054
-0.0462264
-0.0564741
-0.0709947
-0.0846035
-0.0899007
-0.0851296
-0.0724181
-0.197805
-0.194552
-0.170056
-0.13643
-0.104865
-0.0804299
-0.0632579
-0.0518635
-0.046179
-0.0462705
-0.0490283
-0.0496208
-0.0461
-0.0412617
-0.0389439
-0.0403161
-0.0457278
-0.056569
-0.0717673
-0.0860168
-0.0917075
-0.0869282
-0.0738187
-0.199387
-0.196411
-0.171771
-0.137696
-0.105587
-0.0806158
-0.0629786
-0.0511628
-0.0450131
-0.044624
-0.0470289
-0.0474998
-0.044096
-0.0395167
-0.0375446
-0.0393101
-0.0451986
-0.0566241
-0.0724978
-0.0873949
-0.0934927
-0.0887177
-0.0752156
-0.200822
-0.198162
-0.17342
-0.138927
-0.106295
-0.0808004
-0.0627075
-0.0504808
-0.0438788
-0.0430207
-0.0450801
-0.0454292
-0.042133
-0.0377945
-0.0361477
-0.0382878
-0.0446384
-0.0566379
-0.0731842
-0.088735
-0.0952536
-0.0904965
-0.0766083
-0.202109
-0.199802
-0.175003
-0.140124
-0.106988
-0.0809853
-0.062446
-0.0498188
-0.0427773
-0.0414619
-0.0431832
-0.0434104
-0.0402128
-0.0360966
-0.0347544
-0.0372499
-0.044047
-0.0566094
-0.0738242
-0.0900347
-0.096988
-0.092263
-0.0779963
-0.203245
-0.201329
-0.176517
-0.141285
-0.107667
-0.0811714
-0.0621955
-0.0491781
-0.0417093
-0.0399486
-0.0413394
-0.0414449
-0.0383379
-0.0344246
-0.0333662
-0.0361974
-0.0434242
-0.0565373
-0.0744158
-0.0912912
-0.0986933
-0.0940154
-0.0793789
-0.204228
-0.20274
-0.177961
-0.14241
-0.108334
-0.0813601
-0.0619573
-0.0485598
-0.0406759
-0.0384816
-0.0395495
-0.039534
-0.036509
-0.03278
-0.0319845
-0.0351309
-0.0427701
-0.0564206
-0.0749571
-0.0925021
-0.100367
-0.0957521
-0.0807555
-0.205058
-0.204034
-0.179333
-0.1435
-0.10899
-0.0815523
-0.0617326
-0.0479647
-0.0396778
-0.0370613
-0.0378144
-0.0376787
-0.0347245
-0.031164
-0.0306105
-0.0340516
-0.0420849
-0.0562586
-0.0754463
-0.093665
-0.102007
-0.0974714
-0.0821255
-0.205733
-0.205207
-0.18063
-0.144554
-0.109634
-0.0817491
-0.0615226
-0.0473938
-0.0387154
-0.0356881
-0.0361344
-0.0358802
-0.0330498
-0.0295779
-0.0292458
-0.0329603
-0.0413686
-0.0560504
-0.0758817
-0.0947776
-0.103611
-0.0991714
-0.0834881
-0.206254
-0.206258
-0.181852
-0.145571
-0.110267
-0.0819513
-0.0613283
-0.046848
-0.0377892
-0.0343622
-0.0345098
-0.0341386
-0.0313238
-0.0280228
-0.0278919
-0.0318582
-0.0406216
-0.0557955
-0.0762618
-0.0958377
-0.105176
-0.100851
-0.0848426
-0.20662
-0.207186
-0.182995
-0.14655
-0.11089
-0.0821598
-0.0611507
-0.0463279
-0.0368997
-0.0330836
-0.0329405
-0.0324541
-0.0296413
-0.0265017
-0.0265502
-0.0307465
-0.0398444
-0.0554933
-0.0765853
-0.0968433
-0.1067
-0.102507
-0.0861881
-0.206834
-0.207988
-0.184058
-0.147492
-0.111503
-0.0823754
-0.0609905
-0.0458342
-0.036047
-0.031852
-0.0314265
-0.0308267
-0.0280236
-0.0250166
-0.0252222
-0.0296264
-0.0390376
-0.0551435
-0.0768507
-0.0977925
-0.108182
-0.104139
-0.0875239
-0.206895
-0.208665
-0.185037
-0.148394
-0.112106
-0.0825985
-0.0608487
-0.0453673
-0.0352314
-0.0306671
-0.0299671
-0.0292573
-0.0264742
-0.0235685
-0.0239095
-0.0284992
-0.0382016
-0.054746
-0.0770572
-0.0986833
-0.109618
-0.105745
-0.0888489
-0.206805
-0.209214
-0.185932
-0.149257
-0.1127
-0.0828297
-0.0607256
-0.0449278
-0.0344529
-0.0295284
-0.0285619
-0.0277459
-0.0249856
-0.0221581
-0.0226138
-0.0273663
-0.0373374
-0.0543006
-0.0772036
-0.0995141
-0.111008
-0.107323
-0.0901624
-0.206566
-0.209636
-0.186737
-0.150078
-0.113285
-0.0830695
-0.0606221
-0.0445162
-0.0337116
-0.0284356
-0.0272102
-0.0262924
-0.0235533
-0.0207868
-0.0213366
-0.0262291
-0.0364459
-0.0538075
-0.0772893
-0.100283
-0.112348
-0.108871
-0.0914631
-0.206181
-0.209931
-0.187451
-0.150857
-0.113861
-0.0833198
-0.0605399
-0.0441337
-0.0330083
-0.0273883
-0.0259112
-0.0248962
-0.0221764
-0.0194562
-0.0200798
-0.0250893
-0.0355278
-0.0532668
-0.0773136
-0.10099
-0.113637
-0.110387
-0.0927501
-0.205651
-0.210099
-0.188069
-0.151593
-0.114431
-0.083582
-0.06048
-0.0437807
-0.0323426
-0.0263856
-0.0246637
-0.0235566
-0.0208549
-0.0181678
-0.0188453
-0.0239484
-0.0345846
-0.0526789
-0.0772759
-0.101632
-0.114873
-0.11187
-0.0940225
-0.204979
-0.210126
-0.188591
-0.152284
-0.114988
-0.0838487
-0.0604359
-0.0434522
-0.0317104
-0.0254236
-0.023463
-0.0222696
-0.0195866
-0.0169219
-0.0176345
-0.0228082
-0.0336171
-0.0520444
-0.0771761
-0.102208
-0.116055
-0.113319
-0.0952801
-0.204179
-0.210015
-0.18902
-0.152917
-0.115514
-0.0841026
-0.0603948
-0.0431394
-0.0311064
-0.0244989
-0.0223054
-0.02103
-0.0183662
-0.0157156
-0.0164467
-0.0216688
-0.0326264
-0.051364
-0.0770148
-0.102721
-0.117185
-0.114737
-0.0965214
-0.203252
-0.210744
-0.18933
-0.153479
-0.116019
-0.0843677
-0.0603817
-0.0428647
-0.0305499
-0.0236287
-0.0212072
-0.0198526
-0.0172034
-0.0145558
-0.015287
-0.0205336
-0.0316141
-0.0506388
-0.0767925
-0.103167
-0.118257
-0.116115
-0.0977359
-0.202059
-0.210095
-0.189423
-0.154034
-0.116645
-0.0847863
-0.0605137
-0.0427163
-0.0301018
-0.0228562
-0.0202104
-0.0187897
-0.0161549
-0.0134929
-0.0141922
-0.0194267
-0.030591
-0.0498669
-0.0764945
-0.103516
-0.119221
-0.117397
-0.0989112
-0.200436
-0.208866
-0.189379
-0.154728
-0.11749
-0.0853989
-0.0607931
-0.0426726
-0.0297209
-0.0221216
-0.0192483
-0.0177916
-0.0152104
-0.0125434
-0.0131817
-0.0183673
-0.0295665
-0.0490394
-0.0760906
-0.103728
-0.12006
-0.118558
-0.100103
-0.199777
-0.208815
-0.189932
-0.15528
-0.117786
-0.085371
-0.0604867
-0.0421398
-0.0289502
-0.0210497
-0.0179247
-0.0163843
-0.0138685
-0.011255
-0.0119126
-0.0171067
-0.0284198
-0.0481887
-0.0757769
-0.104174
-0.121269
-0.120107
-0.10149
-0.219395
-0.194563
-0.156189
-0.116694
-0.0833792
-0.0581297
-0.0396756
-0.0264
-0.0180872
-0.0142295
-0.0119824
-0.00905206
-0.00619346
-0.00714651
-0.0125742
-0.0247611
-0.0463327
-0.0764614
-0.107481
-0.126379
-0.126876
-0.105156
-0.211251
-0.189131
-0.151318
-0.112241
-0.0795014
-0.0547531
-0.0365816
-0.0233613
-0.0148934
-0.0108643
-0.00869122
-0.00605602
-0.00394567
-0.00425126
-0.00968618
-0.0223789
-0.0450141
-0.0766146
-0.10911
-0.129024
-0.126959
-0.107585
-0.207777
-0.183561
-0.146033
-0.107484
-0.0753997
-0.0512061
-0.0333996
-0.0203544
-0.011826
-0.00762353
-0.00542684
-0.00293585
-0.000871401
-0.00145167
-0.00717448
-0.020405
-0.0437917
-0.0762772
-0.109926
-0.131128
-0.130579
-0.10981
-0.194356
-0.176191
-0.139496
-0.101912
-0.0708358
-0.0474377
-0.0301611
-0.0174053
-0.00890312
-0.00457516
-0.00233337
5.62081e-05
0.00210358
0.00143631
-0.00440925
-0.0180745
-0.0421705
-0.0756088
-0.110588
-0.133097
-0.133202
-0.111588
-0.186638
-0.167543
-0.131881
-0.0956906
-0.0659045
-0.0434844
-0.0268767
-0.0145193
-0.00613174
-0.00174232
0.000495435
0.00274866
0.00477426
0.00419091
-0.00160367
-0.0155385
-0.040268
-0.0746799
-0.110877
-0.134366
-0.134922
-0.112751
-0.176831
-0.15748
-0.123261
-0.088865
-0.0606423
-0.0393761
-0.0235672
-0.0117098
-0.00351995
0.000871517
0.00306696
0.00517257
0.00717259
0.00671267
0.00104931
-0.0130196
-0.0382218
-0.0733794
-0.110439
-0.134684
-0.135721
-0.113214
-0.165051
-0.146081
-0.113743
-0.0815284
-0.055117
-0.0351543
-0.0202543
-0.00898754
-0.00107097
0.0032717
0.0054019
0.00734792
0.00930959
0.00898621
0.00349729
-0.0105871
-0.0360289
-0.0715764
-0.109162
-0.134006
-0.135516
-0.112892
-0.15156
-0.133492
-0.103478
-0.0737884
-0.0494003
-0.0308627
-0.0169598
-0.00636099
0.00121469
0.00546377
0.00751215
0.0092856
0.0111933
0.0110137
0.00573755
-0.00823408
-0.0336504
-0.0692404
-0.107051
-0.132276
-0.134221
-0.111708
-0.136653
-0.119941
-0.0926491
-0.0657685
-0.0435705
-0.0265481
-0.0137051
-0.00383691
0.00333837
0.00745281
0.00940762
0.0110002
0.0128346
0.0127963
0.00776543
-0.00596152
-0.0310938
-0.0663979
-0.104092
-0.129429
-0.131763
-0.109597
-0.120697
-0.105719
-0.0814705
-0.0576031
-0.0377086
-0.0222581
-0.010512
-0.00142031
0.00530348
0.00924489
0.0110976
0.0125063
0.014245
0.0143323
0.00956376
-0.00380068
-0.0284004
-0.0630633
-0.100252
-0.125426
-0.128071
-0.106518
-0.1041
-0.0911604
-0.0701764
-0.0494319
-0.0318944
-0.0180392
-0.00740162
0.000885401
0.00711575
0.0108478
0.0125906
0.0138166
0.0154353
0.0156177
0.0111071
-0.00179645
-0.025608
-0.0592372
-0.0955168
-0.120256
-0.123118
-0.102453
-0.0872967
-0.0766221
-0.0590082
-0.0413931
-0.0262037
-0.0139352
-0.00439442
0.00307817
0.00878296
0.0122716
0.013895
0.0149418
0.016414
0.0166462
0.0123683
9.38982e-06
-0.0227471
-0.0549318
-0.0898946
-0.113938
-0.117046
-0.0974132
-0.0707388
-0.0624644
-0.0481988
-0.0336168
-0.0207049
-0.00998457
-0.00150957
0.00515693
0.0103147
0.0135291
0.0150206
0.015892
0.0171889
0.017411
0.0133219
0.00157992
-0.0198524
-0.0501757
-0.0834145
-0.106515
-0.109839
-0.0914373
-0.0548625
-0.049024
-0.0379576
-0.0262179
-0.0154567
-0.00621945
0.00123578
0.00712123
0.011722
0.0146361
0.0159805
0.0166789
0.0177698
0.0179084
0.0139467
0.00288061
-0.0169644
-0.0450081
-0.0761232
-0.0980598
-0.101571
-0.0845923
-0.0400723
-0.0365887
-0.0284557
-0.0192903
-0.0105064
-0.00266471
0.00382723
0.00897083
0.0130165
0.0156111
0.0167925
0.0173179
0.0181725
0.0181434
0.0142306
0.00388472
-0.0141205
-0.0394754
-0.0680868
-0.0886702
-0.0923717
-0.0769861
-0.0267275
-0.0253778
-0.0198134
-0.012902
-0.00588945
0.000662163
0.00625384
0.0107055
0.0142102
0.0164743
0.0174791
0.0178311
0.0184214
0.0180957
0.0141826
0.0045863
-0.0113453
-0.0336297
-0.0593975
-0.0784856
-0.0823986
-0.0687562
-0.0150855
-0.0155177
-0.0120952
-0.00709373
-0.0016293
0.00375038
0.00850865
0.0123247
0.0153145
0.0172468
0.0180666
0.0182487
0.0185588
0.0178967
0.0138485
0.00501509
-0.00864299
-0.0275294
-0.0501801
-0.0676849
-0.0718455
-0.0600698
-0.00525157
-0.00703361
-0.00531177
-0.00188063
0.00226135
0.00659487
0.0105887
0.0138281
0.0163397
0.0179491
0.0185838
0.0186064
0.0186376
0.0175839
0.0133182
0.00525083
-0.00598808
-0.0212405
-0.0405943
-0.0564838
-0.0609491
-0.0511274
0.00282722
0.00013282
0.000568482
0.00274355
0.00577927
0.00919518
0.0124949
0.0152154
0.0172941
0.0185993
0.019059
0.0189426
0.0187198
0.017266
0.0127377
0.00543488
-0.00331854
-0.0148379
-0.0308382
-0.0451433
-0.0499796
-0.0421477
0.00931908
0.00609477
0.00560501
0.00680102
0.00892915
0.0115544
0.0142312
0.0164878
0.0181838
0.0192125
0.0195165
0.0192923
0.0188697
0.0170706
0.0123029
0.00576801
-0.000536963
-0.008408
-0.0211527
-0.0339633
-0.0392218
-0.0333542
0.0144444
0.0109904
0.00987175
0.0103247
0.0117221
0.0136783
0.0158037
0.0176474
0.0190123
0.0197993
0.0199743
0.019681
0.0191383
0.0171217
0.0122358
0.00648833
0.0024717
-0.00205307
-0.0118144
-0.0232676
-0.0289582
-0.0249581
0.0184272
0.0149616
0.013448
0.0133541
0.0141746
0.015575
0.0172201
0.0186988
0.0197819
0.0203664
0.0204434
0.0201235
0.0195477
0.0175006
0.0127272
0.00782193
0.00580918
0.00410343
-0.00311591
-0.0133793
-0.0194505
-0.0171426
0.0214736
0.018143
0.0164131
0.0159322
0.0163069
0.0172541
0.0184885
0.0196478
0.0204939
0.020917
0.0209282
0.0206238
0.0200994
0.0182295
0.0138783
0.0099097
0.00952202
0.00991871
0.00466249
-0.00458172
-0.0109088
-0.0100474
0.023763
0.0206575
0.0188425
0.0181029
0.0181421
0.0187272
0.0196171
0.0205013
0.0211502
0.0214508
0.0214273
0.0211734
0.0207718
0.0192637
0.0157063
0.0127343
0.0135473
0.0152318
0.0112978
0.00293215
-0.00346254
-0.00375577
0.0254427
0.022613
0.0208073
0.0199098
0.019705
0.020007
0.0206143
0.0212658
0.0217526
0.0219652
0.0219344
0.0217557
0.0215198
0.0204894
0.0179885
0.0160609
0.0176604
0.0198623
0.0166703
0.00909866
0.00285326
0.00170582
0.0266352
0.024104
0.0223723
0.0213948
0.0210209
0.0211075
0.021488
0.0219474
0.0223032
0.022456
0.0224397
0.0223498
0.022292
0.0217606
0.0203202
0.019457
0.0214905
0.0236365
0.0207971
0.0139935
0.00808874
0.00635713
0.0274417
0.0252117
0.0235963
0.0225973
0.0221149
0.022043
0.0222462
0.0225512
0.0228036
0.0229185
0.022931
0.0229329
0.0230442
0.0229568
0.0224106
0.0224771
0.0246589
0.0264489
0.0238065
0.0177782
0.0123429
0.0102485
0.0279429
0.026005
0.0245317
0.0235542
0.0230113
0.0228282
0.0228972
0.0230817
0.0232547
0.0233476
0.0233959
0.0234834
0.0237398
0.0240032
0.0241372
0.024838
0.0269508
0.028319
0.0258819
0.0206339
0.0157323
0.0134477
0.0282033
0.0265426
0.0252247
0.0242992
0.023733
0.0234776
0.0234489
0.0235425
0.0236566
0.0237384
0.0238233
0.0239837
0.0243513
0.0248583
0.02542
0.0264677
0.0283869
0.0293879
0.0272153
0.0227262
0.0183744
0.0160314
0.0282724
0.0268736
0.0257162
0.0248629
0.0243017
0.0240051
0.0239092
0.023937
0.0240093
0.0240868
0.0242043
0.0244212
0.0248626
0.0255139
0.0263003
0.0274743
0.0291397
0.0298557
0.0279835
0.0241992
0.0203845
0.0180811
0.0282051
0.027041
0.0260415
0.0252727
0.0247373
0.024424
0.024286
0.0242687
0.0243125
0.0243895
0.0245328
0.0247888
0.0252703
0.0259597
0.0268532
0.0280151
0.0294129
0.0299147
0.0283385
0.0251824
0.0218734
0.019677
0.0280353
0.02708
0.0262311
0.0255532
0.025058
0.0247468
0.0245867
0.024541
0.0245669
0.0246448
0.0248062
0.0250849
0.0255793
0.0262635
0.0271599
0.0282327
0.0293765
0.0297171
0.0284053
0.0257913
0.0229439
0.0208924
0.0277896
0.0270192
0.026311
0.0257257
0.0252805
0.0249852
0.0248183
0.0247575
0.0247732
0.0248524
0.0250246
0.0253115
0.0257969
0.0264466
0.0272887
0.0282354
0.0291519
0.02937
0.028281
0.0261229
0.0236862
0.021779
0.0274893
0.026882
0.0263035
0.0258093
0.0254195
0.0251498
0.024988
0.024922
0.0249334
0.0250134
0.0251896
0.0254733
0.0259344
0.0265312
0.02729
0.028099
0.0288198
0.0289441
0.0280367
0.0262556
0.0241788
0.0224621
0.0271519
0.0266879
0.0262272
0.0258202
0.0254884
0.0252508
0.0251024
0.0250387
0.0250499
0.0251299
0.0253044
0.0255767
0.0260039
0.0265375
0.0272016
0.0278758
0.0284321
0.0284846
0.0277223
0.0262486
0.024482
0.0229518
0.0267929
0.0264529
0.0260978
0.0257726
0.0254988
0.0252972
0.0251679
0.0251118
0.0251256
0.0252049
0.0253734
0.0256281
0.0260169
0.0264832
0.0270509
0.0276011
0.0280213
0.0280188
0.0273714
0.0261463
0.0246429
0.0232837
0.0221075
0.0264236
0.02619
0.0259285
0.0256788
0.0254613
0.0252972
0.0251906
0.0251457
0.025164
0.025242
0.0254015
0.0256346
0.0259832
0.0263821
0.0268586
0.0272985
0.0276075
0.0275631
0.0270061
0.0259808
0.0246984
0.0234926
0.0223967
0.0260525
0.0259096
0.0257303
0.025549
0.0253848
0.0252584
0.0251763
0.0251449
0.0251687
0.0252452
0.0253937
0.0256023
0.0258965
0.0262453
0.0266394
0.0269841
0.027203
0.0271267
0.0266408
0.0257752
0.0246765
0.023607
0.0225954
0.0256864
0.0256201
0.0255122
0.0253921
0.0252775
0.0251875
0.0251304
0.0251135
0.0251436
0.0252185
0.0253552
0.0255402
0.0257952
0.0260852
0.0264048
0.0266684
0.0268147
0.0267142
0.0262844
0.025546
0.0245991
0.0236496
0.0227213
0.0253304
0.0253282
0.0252817
0.0252157
0.0251461
0.0250905
0.0250579
0.025056
0.0250926
0.0251659
0.0252909
0.0254534
0.0256713
0.0259088
0.0261628
0.0263581
0.0264462
0.0263276
0.0259422
0.0253049
0.024483
0.0236383
0.0227891
0.0249881
0.0250391
0.0250447
0.0250259
0.0249967
0.0249729
0.0249636
0.0249764
0.0250195
0.0250913
0.025205
0.0253465
0.0255302
0.0257218
0.0259191
0.0260577
0.0260991
0.0259669
0.025617
0.0250603
0.0243412
0.0235867
0.0228107
0.0246625
0.0247569
0.0248063
0.0248281
0.0248345
0.0248394
0.0248517
0.0248785
0.0249279
0.0249985
0.0251016
0.0252239
0.0253768
0.0255288
0.0256777
0.0257694
0.0257738
0.0256315
0.02531
0.0248178
0.0241832
0.0235057
0.0227959
0.0243556
0.0244849
0.0245705
0.0246266
0.024664
0.0246944
0.0247262
0.0247659
0.0248213
0.0248909
0.0249843
0.0250895
0.0252151
0.0253332
0.0254415
0.0254949
0.0254698
0.0253203
0.0250219
0.0245813
0.024016
0.0234039
0.0227529
0.0240685
0.0242252
0.0243403
0.0244251
0.0244889
0.0245415
0.0245908
0.0246422
0.0247029
0.0247717
0.0248566
0.0249467
0.0250486
0.025138
0.0252124
0.0252347
0.0251864
0.0250317
0.0247522
0.0243531
0.0238448
0.023288
0.0226867
0.023802
0.0239798
0.0241183
0.0242266
0.0243125
0.0243842
0.0244485
0.0245103
0.0245758
0.024644
0.0247215
0.0247985
0.0248801
0.0249454
0.0249919
0.024989
0.0249225
0.0247644
0.0245005
0.0241349
0.0236735
0.0231637
0.0226091
0.0235564
0.0237497
0.0239063
0.0240335
0.0241376
0.0242253
0.0243025
0.0243732
0.0244429
0.0245106
0.0245816
0.0246476
0.0247119
0.0247571
0.0247808
0.0247579
0.0246772
0.0245169
0.024266
0.0239277
0.023505
0.0230349
0.0225206
0.0233316
0.0235357
0.0237059
0.0238478
0.0239665
0.0240673
0.0241552
0.0242335
0.0243067
0.024374
0.0244395
0.0244961
0.0245461
0.0245748
0.0245799
0.0245411
0.0244495
0.024288
0.0240481
0.0237321
0.0233415
0.0229047
0.0224248
0.0231273
0.0233382
0.0235181
0.0236711
0.0238011
0.0239124
0.0240091
0.0240935
0.0241697
0.0242366
0.0242975
0.0243461
0.0243843
0.0243995
0.0243898
0.0243383
0.0242386
0.0240766
0.0238461
0.0235485
0.0231844
0.0227757
0.0223249
0.0229428
0.0231573
0.0233436
0.0235045
0.0236432
0.0237626
0.0238662
0.0239556
0.024034
0.0241004
0.0241575
0.0241996
0.024228
0.0242323
0.0242107
0.0241496
0.0240436
0.0238819
0.0236594
0.023377
0.0230349
0.0226496
0.0222236
0.0227775
0.022993
0.0231829
0.0233492
0.023494
0.0236195
0.0237283
0.0238215
0.0239016
0.0239676
0.0240213
0.0240581
0.0240786
0.0240742
0.0240432
0.0239746
0.0238642
0.0237031
0.0234875
0.0232178
0.0228939
0.0225283
0.0221231
0.0226306
0.022845
0.0230364
0.0232057
0.0233546
0.0234844
0.023597
0.0236931
0.0237744
0.0238398
0.0238907
0.0239232
0.0239373
0.023926
0.0238877
0.0238134
0.0236998
0.0235396
0.02333
0.0230709
0.0227621
0.0224129
0.0220254
0.0225013
0.022713
0.0229041
0.0230748
0.0232261
0.0233587
0.0234739
0.0235719
0.0236539
0.0237187
0.0237674
0.0237962
0.0238053
0.0237886
0.0237446
0.023666
0.0235502
0.0233912
0.0231868
0.0229365
0.0226403
0.0223048
0.021932
0.0223885
0.0225966
0.0227861
0.0229568
0.0231092
0.0232434
0.0233602
0.0234593
0.0235417
0.0236059
0.0236526
0.0236785
0.0236836
0.0236626
0.0236144
0.0235327
0.0234155
0.0232577
0.0230578
0.0228149
0.0225291
0.0222049
0.0218445
0.0222916
0.0224953
0.0226824
0.0228522
0.0230046
0.0231395
0.0232571
0.0233568
0.0234392
0.0235028
0.0235478
0.0235714
0.0235733
0.0235491
0.0234976
0.0234136
0.0232956
0.0231391
0.022943
0.0227062
0.022429
0.0221142
0.021764
0.0222096
0.0224088
0.0225929
0.0227612
0.022913
0.0230478
0.0231656
0.0232655
0.0233477
0.0234106
0.0234542
0.023476
0.0234754
0.0234487
0.0233949
0.0233093
0.0231908
0.0230356
0.0228428
0.022611
0.0223408
0.0220336
0.0216918
0.0221419
0.0223366
0.0225178
0.0226841
0.0228349
0.0229692
0.0230868
0.0231866
0.0232684
0.0233307
0.0233732
0.0233934
0.023391
0.0233625
0.0233069
0.0232203
0.0231016
0.0229476
0.0227574
0.0225298
0.0222651
0.021964
0.0216288
0.022088
0.0222787
0.0224569
0.0226213
0.0227709
0.0229046
0.0230217
0.0231212
0.0232026
0.0232643
0.0233059
0.023325
0.0233212
0.0232913
0.0232345
0.0231472
0.0230285
0.0228754
0.0226875
0.022463
0.0222027
0.0219064
0.0215764
0.0220474
0.0222347
0.0224105
0.0225732
0.0227216
0.0228546
0.0229713
0.0230704
0.0231514
0.0232126
0.0232535
0.0232718
0.023267
0.0232362
0.0231785
0.0230908
0.0229722
0.0228199
0.0226336
0.0224115
0.0221544
0.0218616
0.0215354
0.02202
0.022205
0.0223789
0.0225403
0.0226879
0.0228203
0.0229366
0.0230354
0.023116
0.0231769
0.0232173
0.0232351
0.0232296
0.0231982
0.02314
0.023052
0.0229335
0.0227818
0.0225966
0.0223761
0.0221212
0.0218307
0.021507
0.0220061
0.0221897
0.0223627
0.0225234
0.0226705
0.0228025
0.0229186
0.0230172
0.0230977
0.0231584
0.0231985
0.0232161
0.0232103
0.0231785
0.0231201
0.023032
0.0229136
0.0227622
0.0225775
0.0223579
0.022104
0.0218147
0.0214922
0.0144421
0.0149157
0.0153757
0.0158188
0.0162417
0.0166414
0.0170146
0.0173588
0.0176713
0.0179501
0.0181932
0.0183996
0.0185682
0.0186989
0.0187912
0.0188463
0.0188638
0.0188457
0.0187913
0.0187029
0.0185785
0.0184206
0.0182255
0.0144645
0.014941
0.0154035
0.0158489
0.0162737
0.0166749
0.0170492
0.0173941
0.0177068
0.0179854
0.0182279
0.0184333
0.0186005
0.0187295
0.0188201
0.0188733
0.018889
0.0188692
0.0188132
0.0187235
0.0185981
0.0184396
0.0182441
0.0145082
0.0149902
0.0154577
0.0159074
0.0163358
0.01674
0.0171164
0.0174627
0.0177758
0.018054
0.0182952
0.0184985
0.018663
0.0187889
0.018876
0.0189255
0.0189375
0.0189143
0.0188553
0.0187632
0.0186358
0.0184761
0.0182798
0.0145722
0.0150623
0.015537
0.0159931
0.0164269
0.0168353
0.0172149
0.0175629
0.0178766
0.0181541
0.0183934
0.0185936
0.0187541
0.0188751
0.0189569
0.0190009
0.0190076
0.0189794
0.0189159
0.0188202
0.0186901
0.0185287
0.0183312
0.0146562
0.0151567
0.0156407
0.0161051
0.0165458
0.0169598
0.0173433
0.0176938
0.0180081
0.0182845
0.018521
0.018717
0.018872
0.0189865
0.0190612
0.0190979
0.0190973
0.0190625
0.0189931
0.0188929
0.0187591
0.0185957
0.018397
0.0147597
0.0152729
0.0157684
0.0162428
0.016692
0.0171127
0.0175011
0.0178543
0.0181693
0.0184441
0.0186771
0.0188675
0.0190155
0.0191216
0.0191873
0.0192146
0.019205
0.0191619
0.0190853
0.0189794
0.0188413
0.0186757
0.0184756
0.0148826
0.0154107
0.0159197
0.0164059
0.0168651
0.0172937
0.0176877
0.018044
0.0183595
0.0186322
0.0188606
0.0190441
0.0191832
0.019279
0.0193335
0.0193494
0.0193288
0.0192757
0.0191905
0.019078
0.018935
0.0187669
0.0185657
0.015025
0.0155701
0.0160944
0.0165942
0.0170648
0.0175024
0.0179027
0.0182625
0.0185784
0.0188483
0.0190708
0.0192458
0.019374
0.0194573
0.0194983
0.0195005
0.0194669
0.019402
0.0193067
0.0191867
0.0190383
0.018868
0.0186659
0.0151868
0.0157509
0.0162926
0.0168076
0.0172911
0.017739
0.0181464
0.0185096
0.0188256
0.019092
0.0193073
0.0194718
0.019587
0.0196551
0.0196802
0.0196661
0.0196173
0.0195387
0.0194321
0.0193037
0.0191495
0.0189771
0.0187746
0.0153682
0.0159534
0.0165143
0.0170464
0.0175442
0.0180035
0.0184187
0.0187857
0.0191011
0.0193628
0.0195698
0.0197217
0.0198213
0.0198714
0.0198776
0.0198445
0.0197781
0.019684
0.0195645
0.0194271
0.0192667
0.0190926
0.0188905
0.0155692
0.0161776
0.0167596
0.0173105
0.0178243
0.0182961
0.0187201
0.0190913
0.0194064
0.0196623
0.0198584
0.019995
0.0200758
0.0201046
0.0200888
0.0200338
0.0199472
0.0198355
0.0197018
0.0195546
0.0193879
0.0192129
0.0190121
0.0157899
0.0164235
0.0170286
0.0176003
0.0181316
0.0186172
0.0190502
0.0194269
0.019741
0.0199898
0.0201729
0.0202911
0.0203498
0.0203536
0.0203122
0.0202318
0.0201224
0.019991
0.0198418
0.0196842
0.0195111
0.0193361
0.0191378
0.0160303
0.0166912
0.0173216
0.0179159
0.0184666
0.0189679
0.019412
0.0197932
0.0201056
0.0203455
0.0205131
0.0206096
0.0206421
0.0206168
0.0205457
0.0204365
0.0203013
0.020148
0.019982
0.0198135
0.0196343
0.0194605
0.0192662
0.0162901
0.0169806
0.0176383
0.0182577
0.0188298
0.0193483
0.0198046
0.020191
0.0205008
0.0207301
0.0208792
0.0209499
0.0209517
0.0208925
0.0207874
0.0206452
0.0204813