/*--------------------------------*- C++ -*----------------------------------*\
  =========                 |
  \\      /  F ield         | OpenFOAM: The Open Source CFD Toolbox
   \\    /   O peration     | Website:  https://openfoam.org
    \\  /    A nd           | Version:  7
     \\/     M anipulation  |
\*---------------------------------------------------------------------------*/
FoamFile
{
    version     2.0;
    format      ascii;
    class       volVectorField;
    location    "280";
    object      U;
}
// * * * * * * * * * * * * * * * * * * * * * * * * * * * * * * * * * * * * * //

dimensions      [0 1 -1 0 0 0 0];

internalField   nonuniform List<vector> 
4575
(
(0.714145 0.360655 -7.93245e-23)
(0.721985 0.14748 -3.06559e-23)
(0.752184 -0.0760461 5.13309e-23)
(0.79248 -0.257221 5.70704e-24)
(0.831095 -0.372278 -2.45285e-23)
(0.862207 -0.426704 8.7095e-23)
(0.879891 -0.44792 3.52579e-23)
(0.875854 -0.466018 2.0535e-24)
(0.846938 -0.484606 1.63216e-23)
(0.802832 -0.474108 -1.13327e-23)
(0.762322 -0.400295 6.13309e-23)
(0.740107 -0.258689 1.06249e-23)
(0.740657 -0.0788517 1.82844e-23)
(0.762139 0.0956964 -9.01382e-23)
(0.79651 0.231348 -4.22178e-23)
(0.829566 0.319006 -2.17681e-24)
(0.844078 0.373024 -1.99618e-23)
(0.832528 0.407089 -2.93359e-23)
(0.801634 0.412256 3.17809e-23)
(0.769097 0.366283 -3.10247e-23)
(0.749482 0.2589 9.68199e-24)
(0.750759 0.111755 1.25936e-23)
(0.770376 -0.0408456 1.26119e-23)
(0.796969 -0.167792 -1.36901e-23)
(0.717475 0.361518 -1.02516e-22)
(0.726264 0.145965 -3.45118e-22)
(0.756991 -0.0791008 1.43813e-22)
(0.797222 -0.260688 -1.86305e-22)
(0.835017 -0.375332 6.1372e-23)
(0.864865 -0.428815 1.1819e-22)
(0.881409 -0.448474 -6.87211e-23)
(0.876598 -0.464568 4.50697e-23)
(0.847126 -0.481508 -2.73498e-23)
(0.802291 -0.47062 3.04866e-23)
(0.760873 -0.397815 7.86079e-23)
(0.738049 -0.257951 -4.97784e-23)
(0.738538 -0.0798742 1.00569e-22)
(0.760411 0.0933891 -9.21005e-23)
(0.795351 0.228678 1.07853e-22)
(0.82882 0.31716 6.70872e-23)
(0.843558 0.372862 3.66673e-23)
(0.832186 0.408565 2.43175e-23)
(0.801544 0.414473 -9.42171e-23)
(0.769286 0.368124 -6.21702e-24)
(0.749706 0.259619 -1.39436e-22)
(0.750775 0.111176 2.78651e-23)
(0.77025 -0.0422526 -5.17511e-23)
(0.797065 -0.16902 -1.15495e-22)
(0.720982 0.362542 1.66012e-22)
(0.730691 0.144698 1.6945e-22)
(0.76192 -0.0818961 4.23106e-23)
(0.802074 -0.263919 2.34408e-22)
(0.839043 -0.378186 -3.56922e-22)
(0.867617 -0.430777 8.2783e-23)
(0.883022 -0.448928 -1.08497e-22)
(0.877454 -0.463049 -6.10836e-23)
(0.847461 -0.47836 -1.82304e-22)
(0.801941 -0.467113 1.32373e-22)
(0.759621 -0.395383 -2.09793e-22)
(0.736166 -0.257342 2.64644e-23)
(0.736568 -0.0810751 9.99923e-23)
(0.758811 0.0909058 -1.28398e-22)
(0.794296 0.225873 2.07601e-22)
(0.82817 0.315229 -1.05517e-22)
(0.843143 0.372646 1.98295e-22)
(0.831966 0.410008 1.10595e-22)
(0.801598 0.416686 8.01217e-23)
(0.769626 0.370011 -2.45711e-25)
(0.750071 0.260434 2.13975e-22)
(0.750907 0.11071 -2.62197e-22)
(0.770214 -0.0435739 5.01184e-23)
(0.797243 -0.1702 1.68357e-22)
(0.724662 0.363734 -3.75447e-22)
(0.735263 0.143686 3.71785e-22)
(0.766968 -0.0844267 -5.20455e-22)
(0.807033 -0.266911 -6.13087e-22)
(0.843173 -0.38084 9.17628e-22)
(0.870464 -0.432592 -5.53401e-22)
(0.884732 -0.449288 1.96147e-22)
(0.878424 -0.461467 2.07088e-22)
(0.847943 -0.475166 -2.43863e-22)
(0.801781 -0.46359 3.7877e-22)
(0.758572 -0.392996 -1.05025e-22)
(0.73446 -0.256858 2.81567e-22)
(0.73475 -0.0824493 -1.54128e-22)
(0.757337 0.0882503 5.32789e-22)
(0.793344 0.222936 4.92294e-23)
(0.827614 0.313212 -1.16078e-22)
(0.842833 0.372373 -2.35448e-22)
(0.831868 0.411415 -2.61665e-22)
(0.801795 0.418893 -4.60566e-23)
(0.770119 0.371943 3.86685e-23)
(0.750579 0.261348 -9.38398e-23)
(0.751158 0.110359 3.31412e-22)
(0.770269 -0.0448074 -3.30668e-23)
(0.797501 -0.171332 5.46307e-23)
(0.728509 0.365104 3.74485e-22)
(0.739978 0.142937 -1.74984e-22)
(0.772133 -0.0866872 4.04737e-23)
(0.812097 -0.269663 8.32856e-23)
(0.847407 -0.383294 -4.14017e-22)
(0.873407 -0.434263 7.25214e-22)
(0.886539 -0.449557 1.92821e-22)
(0.879508 -0.459829 2.39589e-23)
(0.84857 -0.471934 1.66505e-22)
(0.801813 -0.460052 -3.5744e-22)
(0.757728 -0.390652 -4.1954e-23)
(0.732935 -0.256491 -3.1795e-22)
(0.733083 -0.083991 -3.11381e-22)
(0.755988 0.0854268 -5.08714e-22)
(0.792492 0.219868 -4.0695e-22)
(0.827151 0.311106 4.76781e-22)
(0.842625 0.37204 2.03635e-22)
(0.831893 0.412781 4.56179e-23)
(0.802137 0.421092 7.32209e-23)
(0.770766 0.373922 -8.98867e-23)
(0.751232 0.262361 3.58429e-22)
(0.751532 0.110127 -2.52881e-22)
(0.770419 -0.0459512 2.04743e-22)
(0.797841 -0.172416 2.11243e-22)
(0.732518 0.366658 -4.19046e-22)
(0.744829 0.142458 -8.17677e-22)
(0.77741 -0.0886725 2.47602e-23)
(0.817264 -0.272174 5.30916e-22)
(0.851746 -0.385548 -3.55064e-23)
(0.876449 -0.43579 -1.15728e-22)
(0.888444 -0.449742 -5.39383e-22)
(0.880706 -0.458142 9.76442e-24)
(0.849343 -0.468671 4.03836e-23)
(0.802036 -0.456503 -4.35291e-22)
(0.757093 -0.388347 2.37467e-22)
(0.731593 -0.256237 -7.36066e-23)
(0.731567 -0.0856943 5.53496e-23)
(0.754762 0.0824394 6.05371e-22)
(0.791738 0.216669 -1.73908e-23)
(0.82678 0.30891 -1.92228e-22)
(0.84252 0.371642 -9.11112e-23)
(0.832039 0.414102 2.97587e-22)
(0.802624 0.423281 8.99693e-24)
(0.771567 0.375948 -9.55319e-24)
(0.752031 0.263478 1.69064e-22)
(0.752032 0.110017 -6.1665e-22)
(0.770664 -0.0470031 -1.64124e-22)
(0.798261 -0.173452 -5.06204e-22)
(0.736682 0.368403 1.2379e-22)
(0.749813 0.142257 2.02856e-22)
(0.782797 -0.0903777 4.37824e-22)
(0.822532 -0.274441 -7.11418e-22)
(0.85619 -0.387604 1.58927e-21)
(0.879588 -0.437177 4.3741e-22)
(0.890446 -0.449846 -2.51972e-23)
(0.88202 -0.456413 -4.05773e-22)
(0.850259 -0.465381 1.84758e-22)
(0.802449 -0.452944 3.50821e-22)
(0.756669 -0.386078 3.31555e-22)
(0.730437 -0.256087 -7.12827e-23)
(0.730203 -0.0875529 -3.31674e-22)
(0.753656 0.0792925 -2.20276e-22)
(0.791081 0.213342 -1.40615e-23)
(0.826499 0.306622 -3.53688e-22)
(0.842514 0.371176 3.69157e-23)
(0.832308 0.415376 -1.17424e-22)
(0.803256 0.425458 -2.43773e-22)
(0.772523 0.378021 1.70925e-22)
(0.75298 0.264699 -3.08802e-22)
(0.75266 0.110031 6.06956e-22)
(0.771008 -0.0479608 4.51336e-23)
(0.798763 -0.174441 4.98615e-22)
(0.740993 0.370345 -4.81888e-22)
(0.754925 0.14234 -4.32345e-22)
(0.78829 -0.0917979 1.13476e-21)
(0.827898 -0.276463 4.15448e-22)
(0.860737 -0.389461 -1.26405e-21)
(0.882828 -0.438423 2.71601e-22)
(0.892546 -0.449873 -6.18638e-23)
(0.883447 -0.454647 8.88428e-22)
(0.851318 -0.462072 -1.30341e-21)
(0.803051 -0.44938 2.26879e-22)
(0.756458 -0.383842 -5.82374e-22)
(0.72947 -0.256036 9.63669e-22)
(0.72899 -0.0895601 7.63238e-23)
(0.752669 0.0759906 4.64023e-22)
(0.790518 0.209887 1.65154e-22)
(0.826305 0.304239 -3.93528e-23)
(0.842608 0.370637 8.99211e-23)
(0.832697 0.416597 6.26399e-23)
(0.804033 0.427619 3.07183e-22)
(0.773634 0.380139 -3.65987e-22)
(0.754078 0.266027 -3.36327e-22)
(0.753419 0.110172 1.23501e-22)
(0.771453 -0.0488219 -8.88955e-22)
(0.799346 -0.175383 1.86787e-22)
(0.745446 0.372488 9.5032e-22)
(0.760157 0.142713 4.66666e-22)
(0.793883 -0.0929282 -2.12898e-21)
(0.833357 -0.278239 7.7375e-23)
(0.865387 -0.391119 -6.06429e-23)
(0.886167 -0.439531 -5.24871e-22)
(0.894743 -0.449828 1.31047e-22)
(0.884989 -0.45285 -1.6576e-22)
(0.852518 -0.458748 2.46212e-22)
(0.803838 -0.445811 -7.52152e-22)
(0.756461 -0.381635 5.94197e-22)
(0.728695 -0.256077 5.75924e-24)
(0.727929 -0.0917091 -7.82896e-22)
(0.751797 0.0725383 2.21988e-22)
(0.790045 0.206305 1.23117e-21)
(0.826197 0.301759 -6.62009e-23)
(0.842799 0.370021 -3.91708e-22)
(0.833206 0.417761 5.37144e-22)
(0.804954 0.429763 -1.94574e-22)
(0.7749 0.382304 -2.30272e-22)
(0.755327 0.267462 5.06449e-22)
(0.754311 0.110444 1.35481e-22)
(0.772 -0.0495839 1.27485e-21)
(0.800009 -0.176277 -2.34527e-22)
(0.750031 0.374836 -1.67426e-21)
(0.765503 0.143383 3.25776e-22)
(0.799573 -0.0937643 2.2528e-21)
(0.838908 -0.279768 -7.6315e-22)
(0.870137 -0.392581 4.69582e-22)
(0.889607 -0.440503 1.64335e-22)
(0.897036 -0.449714 -7.3301e-23)
(0.886643 -0.451029 -3.55635e-22)
(0.853857 -0.455417 -2.26883e-22)
(0.804808 -0.442242 5.86707e-22)
(0.756679 -0.379456 1.26431e-22)
(0.728112 -0.256201 4.68124e-22)
(0.727018 -0.0939926 -7.83218e-22)
(0.751039 0.0689403 2.69759e-22)
(0.789661 0.202599 -5.84346e-22)
(0.826172 0.29918 2.84222e-22)
(0.843084 0.369325 -1.1148e-22)
(0.833833 0.418865 6.85235e-22)
(0.806018 0.431887 -9.68204e-22)
(0.776319 0.384514 -5.17522e-22)
(0.756728 0.269006 8.28545e-23)
(0.755339 0.110848 -1.36146e-22)
(0.772652 -0.0502442 -3.89914e-22)
(0.800753 -0.177124 -2.77136e-22)
(0.770957 0.144353 1.17004e-21)
(0.805353 -0.0943015 4.7677e-22)
(0.844545 -0.281049 9.12633e-22)
(0.874987 -0.393846 -1.15943e-21)
(0.893148 -0.441339 6.85765e-22)
(0.899424 -0.449534 -7.39041e-22)
(0.888408 -0.449189 7.17236e-23)
(0.855333 -0.452083 1.93e-22)
(0.805957 -0.438675 -1.9336e-22)
(0.757112 -0.3773 -1.0264e-22)
(0.727725 -0.256403 -6.74848e-22)
(0.726258 -0.0964031 4.67768e-22)
(0.750392 0.0652014 -1.10972e-22)
(0.789363 0.198768 -2.27886e-22)
(0.826228 0.296501 -5.57914e-22)
(0.843462 0.368544 -8.17182e-23)
(0.834578 0.419903 -1.26337e-23)
(0.807224 0.433987 7.82065e-22)
(0.777892 0.386767 9.97451e-22)
(0.758281 0.27066 7.62689e-23)
(0.756504 0.111388 -5.94067e-23)
(0.77341 -0.0508001 -5.5307e-22)
(0.801578 -0.177921 1.32465e-22)
(0.77651 0.14563 -8.52239e-22)
(0.81122 -0.0945357 7.6786e-22)
(0.850264 -0.282079 -1.49971e-21)
(0.879933 -0.394914 -3.79174e-23)
(0.89679 -0.44204 8.08089e-22)
(0.901908 -0.449292 2.04367e-24)
(0.890282 -0.447337 1.71526e-22)
(0.856945 -0.448752 4.63101e-23)
(0.80728 -0.435113 7.58708e-22)
(0.757758 -0.375165 -7.47671e-23)
(0.727535 -0.256673 -3.34776e-22)
(0.725649 -0.0989327 -1.63083e-22)
(0.749853 0.0613269 8.01638e-23)
(0.789148 0.194814 -4.89138e-22)
(0.826361 0.293719 -2.04324e-22)
(0.843929 0.367674 -6.17653e-23)
(0.835437 0.420873 -9.60332e-22)
(0.80857 0.436061 1.06834e-21)
(0.779616 0.389064 -1.58587e-21)
(0.759986 0.272424 -5.62664e-22)
(0.757809 0.112066 5.15935e-22)
(0.774277 -0.0512488 -5.09476e-22)
(0.802482 -0.17867 2.35034e-22)
(0.782153 0.147217 4.30894e-22)
(0.817165 -0.0944629 1.25499e-21)
(0.856063 -0.282859 -6.55546e-24)
(0.884973 -0.395788 -9.13394e-22)
(0.900533 -0.442608 7.38206e-22)
(0.904485 -0.448991 -1.03616e-21)
(0.892264 -0.445476 6.09229e-22)
(0.858688 -0.44543 -8.05e-22)
(0.808773 -0.43156 1.35515e-22)
(0.758615 -0.373049 9.83038e-22)
(0.727543 -0.257005 -1.16891e-21)
(0.725189 -0.101573 7.27838e-23)
(0.749422 0.0573219 -5.88422e-22)
(0.789012 0.19074 1.25625e-21)
(0.826567 0.290831 -3.03993e-23)
(0.844484 0.366711 -4.02507e-22)
(0.83641 0.421768 3.64338e-22)
(0.810054 0.438105 8.5081e-23)
(0.78149 0.391403 -4.605e-23)
(0.761843 0.274298 7.17736e-22)
(0.759255 0.112884 -8.33829e-22)
(0.775255 -0.0515873 1.19075e-21)
(0.803467 -0.179369 -8.40872e-23)
(0.787877 0.149118 4.39972e-21)
(0.823185 -0.0940792 -1.09874e-21)
(0.861935 -0.283386 1.43313e-22)
(0.890105 -0.396467 1.73969e-22)
(0.904377 -0.443044 -2.83071e-22)
(0.907154 -0.448633 -1.20163e-21)
(0.894349 -0.443613 -2.49785e-22)
(0.860562 -0.442122 1.74447e-22)
(0.810431 -0.428016 -4.18573e-22)
(0.75968 -0.370949 -1.18541e-21)
(0.72775 -0.257391 9.03295e-22)
(0.72488 -0.104317 5.03163e-22)
(0.749094 0.0531918 1.30717e-21)
(0.788953 0.186545 -4.92925e-22)
(0.826845 0.287836 1.0738e-22)
(0.845123 0.365651 1.70563e-22)
(0.837493 0.422586 -3.6279e-22)
(0.811673 0.440117 2.79084e-23)
(0.783512 0.393781 3.49445e-22)
(0.763851 0.276283 -6.29976e-22)
(0.760843 0.113844 8.43957e-22)
(0.776345 -0.0518128 -6.82612e-22)
(0.804532 -0.180016 9.96833e-23)
(0.793672 0.151336 -5.75509e-21)
(0.82927 -0.093381 -4.71403e-21)
(0.867876 -0.28366 2.82686e-21)
(0.895324 -0.396953 8.93149e-22)
(0.90832 -0.443348 -1.84192e-21)
(0.909915 -0.448221 2.17013e-21)
(0.896536 -0.441752 -4.43896e-23)
(0.862564 -0.438832 4.31748e-22)
(0.812248 -0.424487 -2.67832e-22)
(0.760949 -0.368864 2.304e-22)
(0.728157 -0.257823 2.11967e-22)
(0.72472 -0.107155 2.26751e-22)
(0.748868 0.0489423 -6.75911e-22)
(0.788967 0.182233 -4.83402e-22)
(0.82719 0.284733 7.42784e-22)
(0.845844 0.36449 4.81179e-22)
(0.838684 0.423321 1.56584e-22)
(0.813424 0.442093 -1.34522e-22)
(0.78568 0.396197 1.54665e-21)
(0.76601 0.278379 6.16998e-22)
(0.762573 0.114947 -3.79418e-22)
(0.777549 -0.0519221 6.89636e-22)
(0.805677 -0.180611 -4.54786e-22)
(0.799528 0.153873 1.07459e-21)
(0.835416 -0.092365 2.90142e-21)
(0.873881 -0.283679 2.32775e-21)
(0.900628 -0.397247 -2.99278e-22)
(0.912362 -0.443521 8.39852e-22)
(0.912766 -0.447756 -1.22608e-21)
(0.898821 -0.439899 -8.11153e-22)
(0.864691 -0.435566 9.17718e-22)
(0.814219 -0.420974 -8.40798e-23)
(0.762417 -0.366792 7.1586e-22)
(0.728765 -0.258295 -1.40635e-21)
(0.724711 -0.110078 -3.59223e-22)
(0.748742 0.0445793 -7.64703e-23)
(0.789051 0.177804 4.45712e-22)
(0.827599 0.281518 -2.89025e-22)
(0.846642 0.363223 -5.46223e-22)
(0.839979 0.423969 5.24639e-22)
(0.815305 0.444029 -3.69314e-22)
(0.78799 0.39865 -6.05696e-22)
(0.768317 0.280585 -9.27768e-22)
(0.764447 0.116197 1.50826e-22)
(0.778869 -0.0519123 -6.78375e-22)
(0.806902 -0.181152 6.69816e-22)
(0.805434 0.156732 -1.91565e-21)
(0.841613 -0.0910282 1.02868e-21)
(0.879946 -0.283442 -8.0021e-22)
(0.906012 -0.397349 -4.28586e-22)
(0.916502 -0.443564 1.77877e-22)
(0.915707 -0.447241 -1.70135e-21)
(0.9012 -0.438057 1.28587e-22)
(0.866938 -0.432329 5.02359e-22)
(0.816339 -0.417481 -5.74076e-22)
(0.764077 -0.364731 1.17287e-21)
(0.729573 -0.2588 -1.1829e-21)
(0.724851 -0.113078 7.81532e-22)
(0.748713 0.0401088 8.42565e-22)
(0.789202 0.17326 -1.19932e-22)
(0.828068 0.27819 4.38849e-22)
(0.847514 0.361847 -2.03277e-23)
(0.841375 0.424526 8.61682e-23)
(0.817311 0.445923 -5.85252e-22)
(0.79044 0.401136 -2.382e-22)
(0.77077 0.2829 -8.10271e-22)
(0.766464 0.117594 -8.49369e-22)
(0.780306 -0.0517803 4.41277e-22)
(0.808207 -0.181637 1.17986e-21)
(0.811378 0.159912 1.24924e-22)
(0.847856 -0.0893678 -3.61749e-21)
(0.886065 -0.282947 2.45672e-21)
(0.911471 -0.39726 5.45831e-22)
(0.920737 -0.443478 2.05471e-21)
(0.918736 -0.446676 3.99597e-22)
(0.903669 -0.43623 -1.13311e-21)
(0.869304 -0.429125 -3.43849e-22)
(0.818602 -0.41401 -4.45896e-22)
(0.765922 -0.36268 -3.2196e-22)
(0.730579 -0.259329 2.30168e-22)
(0.725143 -0.116145 -5.3404e-22)
(0.748781 0.0355373 3.34249e-22)
(0.789416 0.168603 -8.60062e-22)
(0.828592 0.274748 4.70044e-23)
(0.848457 0.360358 -2.62129e-23)
(0.84287 0.424987 -7.98656e-22)
(0.81944 0.44777 6.83015e-22)
(0.793027 0.403653 6.99257e-22)
(0.773369 0.285324 -2.39672e-22)
(0.768624 0.119139 1.3875e-22)
(0.781862 -0.0515231 1.03212e-21)
(0.809592 -0.182064 -1.89309e-21)
(0.817349 0.163416 -3.09533e-21)
(0.854135 -0.0873814 -8.06087e-22)
(0.892232 -0.282195 -2.57889e-21)
(0.917002 -0.396982 2.98829e-21)
(0.925067 -0.443263 -4.10659e-22)
(0.921852 -0.446062 -8.82449e-22)
(0.906226 -0.434424 9.44765e-22)
(0.871784 -0.425959 -4.95288e-22)
(0.821004 -0.410563 4.02231e-22)
(0.767945 -0.360639 1.39525e-21)
(0.731781 -0.259878 -6.62825e-22)
(0.725586 -0.119271 8.92751e-22)
(0.748942 0.0308712 2.9507e-22)
(0.789689 0.163837 -2.24976e-22)
(0.829168 0.27119 6.92208e-22)
(0.849466 0.358753 1.01861e-22)
(0.844458 0.425348 2.17022e-22)
(0.821686 0.449566 3.70758e-23)
(0.795746 0.406198 -3.45606e-22)
(0.77611 0.287854 -3.3184e-22)
(0.770927 0.120833 8.02021e-22)
(0.783537 -0.0511377 -4.63171e-24)
(0.811057 -0.182432 2.03333e-22)
(0.823335 0.167243 1.09807e-21)
(0.860442 -0.0850669 4.9001e-21)
(0.898443 -0.281182 -5.43562e-21)
(0.922599 -0.396515 2.20369e-21)
(0.929488 -0.44292 -1.6123e-21)
(0.925054 -0.4454 6.16189e-22)
(0.908864 -0.43264 -5.31937e-22)
(0.874373 -0.422836 1.61771e-21)
(0.823539 -0.407143 -7.48696e-22)
(0.770137 -0.358606 -1.49414e-21)
(0.733178 -0.26044 -2.54323e-22)
(0.72618 -0.122447 -1.22785e-23)
(0.749195 0.0261176 8.06326e-22)
(0.790019 0.158962 2.81239e-22)
(0.829792 0.267515 -1.46866e-22)
(0.850538 0.357026 -9.90856e-23)
(0.846135 0.425605 -6.79033e-22)
(0.824047 0.451308 6.46124e-23)
(0.798594 0.408768 7.09096e-22)
(0.778989 0.290489 4.92127e-22)
(0.773372 0.122678 3.55815e-22)
(0.785332 -0.050621 7.43731e-22)
(0.812602 -0.182738 1.0116e-22)
(0.829323 0.171393 -1.42596e-21)
(0.866771 -0.0824227 1.98066e-21)
(0.904691 -0.279908 -3.29938e-21)
(0.928258 -0.39586 1.6601e-21)
(0.933998 -0.442449 1.51248e-21)
(0.928341 -0.444691 1.31893e-21)
(0.911582 -0.430882 -1.56893e-22)
(0.877067 -0.419759 -1.33565e-21)
(0.826204 -0.403753 8.30209e-22)
(0.772488 -0.356581 -1.22222e-22)
(0.734763 -0.26101 -2.99487e-22)
(0.726927 -0.125664 5.0209e-22)
(0.74954 0.0212835 -1.23969e-21)
(0.790401 0.153982 -9.81048e-22)
(0.830459 0.263722 6.80269e-22)
(0.851668 0.355176 3.75522e-22)
(0.847898 0.425753 -1.82958e-22)
(0.826516 0.452991 -5.17223e-23)
(0.801567 0.411361 -1.5094e-21)
(0.782005 0.293228 8.83755e-22)
(0.775956 0.124673 -8.99779e-22)
(0.787249 -0.0499703 3.47406e-22)
(0.814227 -0.182979 -1.27407e-21)
(0.835302 0.175863 1.39712e-21)
(0.873111 -0.0794473 1.41198e-21)
(0.910972 -0.278372 4.73214e-21)
(0.933973 -0.395018 8.50657e-23)
(0.938595 -0.441852 -3.24288e-23)
(0.931712 -0.443934 -1.74336e-21)
(0.914374 -0.429154 1.14373e-21)
(0.879861 -0.416733 1.80021e-22)
(0.828993 -0.400395 5.29056e-22)
(0.774991 -0.354563 4.59979e-23)
(0.736532 -0.261582 4.7894e-23)
(0.727827 -0.128912 -6.46157e-22)
(0.749976 0.0163765 4.91921e-22)
(0.790833 0.1489 2.01086e-22)
(0.831166 0.259809 -7.81385e-22)
(0.852852 0.353197 -1.07082e-22)
(0.849741 0.425788 7.76609e-22)
(0.82909 0.454613 -2.78354e-22)
(0.80466 0.413972 2.73052e-22)
(0.785152 0.296068 2.15104e-22)
(0.77868 0.126819 2.79235e-21)
(0.789287 -0.0491825 -2.32906e-21)
(0.815933 -0.183153 -1.4657e-22)
(0.841259 0.180651 -9.58514e-22)
(0.879456 -0.0761398 -7.81907e-22)
(0.917279 -0.276571 3.58397e-21)
(0.93974 -0.39399 -5.65282e-21)
(0.943274 -0.441129 -1.14153e-21)
(0.935165 -0.443129 -4.59718e-22)
(0.917238 -0.427456 -9.4331e-22)
(0.882749 -0.413763 -8.3988e-22)
(0.831904 -0.397071 5.97218e-22)
(0.777635 -0.352551 -1.10121e-21)
(0.738478 -0.262151 7.47086e-22)
(0.72888 -0.132183 7.04889e-23)
(0.750501 0.0114041 2.05261e-22)
(0.791311 0.14372 3.49321e-22)
(0.831907 0.255775 5.23789e-22)
(0.854085 0.351088 -8.59283e-22)
(0.85166 0.425705 -1.94602e-22)
(0.831764 0.456167 8.74841e-23)
(0.807869 0.416598 -4.844e-22)
(0.788428 0.299007 -1.00863e-21)
(0.78154 0.129116 -4.91116e-22)
(0.791448 -0.0482552 3.33771e-22)
(0.81772 -0.183257 1.50527e-21)
(0.847182 0.185756 3.52711e-22)
(0.885797 -0.0724997 1.90028e-21)
(0.923608 -0.274505 -1.50611e-21)
(0.945552 -0.392775 2.7103e-21)
(0.948032 -0.440281 1.49814e-21)
(0.9387 -0.442276 4.27019e-22)
(0.920169 -0.425792 8.62419e-22)
(0.885725 -0.410852 -7.95399e-22)
(0.834931 -0.393782 -7.35043e-23)
(0.780411 -0.350546 -7.71176e-22)
(0.740593 -0.262714 3.91719e-22)
(0.730087 -0.135469 -7.6483e-22)
(0.751117 0.00637364 -6.22063e-23)
(0.791832 0.138444 6.25567e-22)
(0.832679 0.251621 -8.11753e-22)
(0.855362 0.348844 -3.77324e-24)
(0.85365 0.425501 7.15931e-22)
(0.834531 0.457651 -8.30462e-22)
(0.811188 0.419235 1.0654e-21)
(0.791828 0.302041 -2.36593e-22)
(0.784534 0.131563 1.94058e-21)
(0.79373 -0.0471855 -3.20753e-21)
(0.819587 -0.183289 1.7267e-21)
(0.853059 0.191173 6.88645e-21)
(0.892126 -0.0685269 -2.97461e-21)
(0.929953 -0.272172 -4.60506e-21)
(0.951403 -0.391375 -8.29798e-23)
(0.952866 -0.439308 -2.69136e-22)
(0.942314 -0.441374 -1.3961e-21)
(0.923164 -0.424162 -2.4174e-22)
(0.888783 -0.408005 -2.25868e-23)
(0.838071 -0.390533 8.01377e-22)
(0.783312 -0.348546 1.29079e-22)
(0.742866 -0.263267 4.42084e-22)
(0.731445 -0.138762 -1.03045e-21)
(0.751823 0.00130381 5.41454e-22)
(0.792394 0.133076 -4.84745e-22)
(0.833477 0.247346 8.09479e-22)
(0.856678 0.346464 -2.18206e-22)
(0.855705 0.425171 1.37705e-22)
(0.837387 0.459061 -1.58859e-22)
(0.814612 0.421879 4.67543e-22)
(0.795346 0.305169 -7.46012e-22)
(0.787659 0.134161 -2.27422e-21)
(0.796134 -0.0459712 3.80502e-21)
(0.821535 -0.183245 1.63459e-21)
(0.85888 0.196897 1.45686e-22)
(0.898437 -0.0642215 2.41986e-21)
(0.936308 -0.26957 -2.39889e-21)
(0.957289 -0.38979 -6.33308e-22)
(0.957771 -0.438211 1.21709e-21)
(0.946007 -0.440422 6.14126e-22)
(0.92622 -0.422567 -2.77527e-22)
(0.891916 -0.405225 -5.37355e-22)
(0.841319 -0.387324 -2.57266e-22)
(0.786331 -0.346552 -8.74106e-22)
(0.745286 -0.263807 2.82903e-22)
(0.732956 -0.142056 8.19398e-22)
(0.752621 -0.00378014 -6.3101e-22)
(0.792995 0.127622 6.19426e-23)
(0.834296 0.24295 -2.1935e-22)
(0.85803 0.343943 -3.46349e-22)
(0.85782 0.424713 1.0821e-21)
(0.840326 0.460391 1.11569e-21)
(0.818136 0.424527 -1.25067e-21)
(0.798979 0.308386 1.72704e-21)
(0.790913 0.136906 -2.66107e-21)
(0.798661 -0.0446098 -2.80077e-21)
(0.823564 -0.183121 -1.512e-21)
(0.864633 0.202925 -1.31314e-21)
(0.904722 -0.0595843 4.9556e-21)
(0.942668 -0.266698 2.33864e-23)
(0.963203 -0.388019 2.80229e-22)
(0.962742 -0.436991 -1.51096e-21)
(0.949777 -0.439419 2.1948e-21)
(0.929334 -0.421008 -2.53178e-22)
(0.895119 -0.402516 -2.88352e-22)
(0.84467 -0.384158 2.24917e-22)
(0.789461 -0.344561 6.74832e-23)
(0.747841 -0.26433 1.96108e-22)
(0.734616 -0.145342 -2.43122e-22)
(0.753513 -0.00892355 6.87536e-22)
(0.793632 0.122085 -1.33795e-22)
(0.835134 0.238433 3.97731e-24)
(0.859411 0.341281 -3.53173e-24)
(0.85999 0.42412 -7.77508e-22)
(0.843343 0.461638 5.17817e-22)
(0.821754 0.427173 -9.48089e-22)
(0.802722 0.311689 7.88464e-22)
(0.794292 0.1398 1.35655e-21)
(0.801308 -0.0430994 3.75876e-21)
(0.825675 -0.182916 -6.08063e-23)
(0.870308 0.209249 5.42433e-21)
(0.910976 -0.0546164 -1.16709e-20)
(0.949029 -0.263554 3.32916e-21)
(0.969139 -0.386063 -4.00535e-21)
(0.967774 -0.435649 2.14731e-21)
(0.953622 -0.438365 -2.57169e-21)
(0.932503 -0.419485 1.72517e-21)
(0.898384 -0.399882 1.07694e-21)
(0.848119 -0.381037 -1.61874e-22)
(0.792696 -0.342573 4.6681e-22)
(0.750519 -0.264833 -3.13081e-22)
(0.736418 -0.148614 3.72915e-22)
(0.754501 -0.0141376 -1.82407e-23)
(0.794306 0.11647 -6.37713e-22)
(0.835987 0.233797 8.72397e-23)
(0.860816 0.338473 5.96968e-22)
(0.862208 0.423391 5.37665e-22)
(0.846431 0.462797 -7.31828e-23)
(0.82546 0.429814 -1.15135e-21)
(0.806568 0.315075 1.62943e-22)
(0.797794 0.142839 -2.57001e-22)
(0.804076 -0.041438 -1.07667e-21)
(0.827866 -0.182624 -1.90487e-21)
(0.875897 0.215864 3.61701e-21)
(0.917195 -0.0493193 -3.76897e-21)
(0.955385 -0.260136 -1.56388e-21)
(0.975091 -0.383921 3.91258e-22)
(0.972864 -0.434186 2.0312e-21)
(0.95754 -0.437257 3.57205e-22)
(0.935725 -0.417998 -8.1477e-22)
(0.901706 -0.397325 -3.12916e-22)
(0.851661 -0.377965 8.65695e-23)
(0.796032 -0.340587 -6.67103e-22)
(0.753306 -0.265314 -3.68962e-23)
(0.738356 -0.151869 3.47646e-22)
(0.755588 -0.0193614 1.55509e-22)
(0.79502 0.110784 -1.47337e-22)
(0.836851 0.229041 -1.12849e-23)
(0.862241 0.33552 4.6959e-22)
(0.864469 0.422521 -1.60922e-22)
(0.849585 0.463864 -3.41754e-22)
(0.829249 0.432445 7.24677e-22)
(0.810513 0.318539 6.52522e-22)
(0.801413 0.146023 1.65951e-22)
(0.806964 -0.0396238 -1.80892e-21)
(0.83014 -0.182244 6.38314e-22)
(0.881394 0.222761 -8.125e-23)
(0.923375 -0.0436948 3.94298e-23)
(0.961733 -0.256442 -2.43359e-21)
(0.981054 -0.381593 -3.24774e-21)
(0.978004 -0.432602 5.64054e-21)
(0.961528 -0.436096 -2.48847e-21)
(0.938998 -0.416545 -8.86761e-22)
(0.905077 -0.394849 5.8255e-22)
(0.85529 -0.374944 3.32536e-22)
(0.799466 -0.338603 -1.59105e-22)
(0.75619 -0.265769 2.42429e-22)
(0.740421 -0.155099 -4.19499e-22)
(0.756776 -0.0245815 -1.00272e-23)
(0.795774 0.105032 -7.28067e-23)
(0.837723 0.224168 6.04265e-23)
(0.863681 0.332417 -1.72641e-22)
(0.866768 0.421507 -6.35655e-22)
(0.852798 0.464834 1.49333e-22)
(0.833115 0.435061 -9.20253e-22)
(0.81455 0.322077 1.94193e-21)
(0.805148 0.149348 1.55478e-21)
(0.809971 -0.0376555 1.11848e-21)
(0.832494 -0.181771 -1.69705e-21)
(0.886792 0.229932 1.93948e-21)
(0.929516 -0.0377452 1.94149e-21)
(0.968068 -0.252469 7.22042e-21)
(0.987019 -0.379077 -1.49104e-21)
(0.98319 -0.430898 -1.77433e-21)
(0.965586 -0.434878 2.3156e-21)
(0.942318 -0.415125 -4.95246e-22)
(0.908493 -0.392457 1.78368e-22)
(0.858999 -0.371976 -8.20134e-22)
(0.802994 -0.336618 6.81098e-22)
(0.759159 -0.266197 -1.64155e-22)
(0.742603 -0.158301 2.92056e-22)
(0.75807 -0.0298011 -2.46732e-22)
(0.796571 0.0992196 -1.75782e-22)
(0.838603 0.21918 -4.96145e-23)
(0.86513 0.329166 2.18291e-23)
(0.869098 0.420346 3.57993e-22)
(0.856064 0.465704 -3.91333e-22)
(0.837051 0.437658 -1.08931e-21)
(0.818676 0.325684 6.70521e-22)
(0.808994 0.152812 4.64055e-23)
(0.813095 -0.0355317 -2.52061e-21)
(0.83493 -0.181203 6.58264e-22)
(0.892089 0.237368 3.60536e-24)
(0.935621 -0.0314731 -9.43821e-21)
(0.974387 -0.248216 -6.75747e-22)
(0.992982 -0.376373 1.68877e-21)
(0.988415 -0.429075 8.49763e-22)
(0.969709 -0.433604 9.18581e-22)
(0.945685 -0.413737 -2.21767e-21)
(0.911948 -0.390149 7.47685e-22)
(0.862782 -0.369065 -8.39395e-22)
(0.806614 -0.334633 3.63387e-22)
(0.762202 -0.266593 -5.05404e-22)
(0.744888 -0.161471 1.88892e-22)
(0.75947 -0.0350168 2.59335e-22)
(0.797419 0.0933534 4.34023e-22)
(0.839491 0.21408 3.23572e-22)
(0.866586 0.325763 -2.41145e-22)
(0.871453 0.419034 -1.51732e-22)
(0.859378 0.466469 -3.84626e-22)
(0.84105 0.44023 -4.75205e-23)
(0.822883 0.329357 -1.33179e-21)
(0.812948 0.156413 3.63833e-22)
(0.816337 -0.0332514 5.86428e-22)
(0.837447 -0.180534 1.98732e-22)
(0.897289 0.245058 -4.80969e-21)
(0.941695 -0.0248808 7.18024e-22)
(0.980687 -0.243678 2.77643e-21)
(0.998936 -0.373478 -1.74812e-21)
(0.993674 -0.427133 -8.095e-22)
(0.973896 -0.432273 -1e-21)
(0.949096 -0.412379 5.22136e-22)
(0.915435 -0.38793 -1.15722e-21)
(0.866631 -0.366216 5.81094e-22)
(0.810324 -0.332647 -2.57488e-22)
(0.765312 -0.266956 3.12249e-22)
(0.747258 -0.164606 -1.97007e-22)
(0.760977 -0.0402236 -1.24778e-22)
(0.798325 0.0874396 -2.80646e-22)
(0.840388 0.20887 4.04755e-22)
(0.868044 0.32221 3.91652e-23)
(0.873829 0.417568 -7.62869e-23)
(0.862733 0.467124 5.45531e-22)
(0.845108 0.442773 2.08062e-21)
(0.827166 0.333089 3.01696e-22)
(0.817008 0.160147 -2.52341e-21)
(0.819694 -0.0308136 7.53898e-23)
(0.840046 -0.179763 -5.39576e-22)
(0.902401 0.252991 -1.09495e-20)
(0.947751 -0.0179709 8.75836e-21)
(0.986966 -0.238851 2.80829e-21)
(1.00487 -0.370393 -3.52894e-21)
(0.99896 -0.425078 2.98343e-21)
(0.978144 -0.430885 5.02004e-22)
(0.95255 -0.411051 1.01902e-21)
(0.91895 -0.385801 -1.78622e-21)
(0.870539 -0.363432 -2.38817e-22)
(0.81412 -0.330659 3.12945e-22)
(0.768483 -0.267281 3.82195e-22)
(0.749698 -0.167703 -7.57e-22)
(0.762588 -0.0454174 1.66005e-22)
(0.7993 0.0814842 -1.08144e-22)
(0.841302 0.203554 -1.43225e-22)
(0.869503 0.318505 3.00224e-22)
(0.876219 0.415947 -5.72837e-22)
(0.866123 0.467666 2.83172e-22)
(0.849218 0.445282 -3.40893e-22)
(0.831522 0.336877 -1.03113e-21)
(0.821172 0.164012 2.00086e-21)
(0.823165 -0.0282173 -1.59538e-21)
(0.842726 -0.178884 -1.16842e-22)
(0.907445 0.261155 1.94692e-21)
(0.953807 -0.0107413 -2.47933e-21)
(0.993223 -0.233734 7.50938e-23)
(1.01079 -0.367115 -4.38319e-21)
(1.00427 -0.422906 9.61739e-22)
(0.98245 -0.429437 2.50536e-21)
(0.956046 -0.409747 -2.84144e-21)
(0.922489 -0.383761 2.3539e-21)
(0.8745 -0.360714 1.14042e-22)
(0.818001 -0.328666 -8.02747e-22)
(0.77171 -0.267562 6.77428e-22)
(0.752188 -0.170758 1.13424e-22)
(0.764299 -0.0505936 3.11784e-23)
(0.800358 0.0754935 -2.18298e-22)
(0.842242 0.198137 -2.06661e-22)
(0.870965 0.31465 1.66588e-22)
(0.878621 0.414167 -4.5144e-23)
(0.869543 0.468091 1.04689e-21)
(0.853374 0.447751 -2.79326e-21)
(0.835947 0.340714 1.70247e-21)
(0.825439 0.168003 2.06257e-21)
(0.826751 -0.0254628 6.66529e-22)
(0.845487 -0.177896 -6.32737e-22)
(0.912461 0.269521 6.91349e-21)
(0.959892 -0.00312184 2.76354e-21)
(0.999456 -0.228331 -6.13944e-22)
(1.01667 -0.363635 -2.98325e-21)
(1.00959 -0.420599 -3.02377e-22)
(0.98681 -0.427908 -2.619e-21)
(0.959581 -0.408447 7.1073e-22)
(0.926047 -0.381797 6.9119e-22)
(0.878505 -0.358058 -5.9668e-23)
(0.821961 -0.326665 -3.30508e-22)
(0.774991 -0.267788 -2.25337e-22)
(0.75471 -0.17376 6.28354e-22)
(0.766098 -0.0557426 7.04598e-24)
(0.801516 0.069479 -2.75522e-22)
(0.843228 0.192627 -1.51042e-22)
(0.872436 0.310648 1.1079e-22)
(0.881032 0.412228 -1.20026e-22)
(0.872989 0.468394 3.57405e-22)
(0.857572 0.450175 1.40163e-21)
(0.84044 0.344593 -3.40893e-22)
(0.82981 0.172111 -1.97095e-21)
(0.830451 -0.0225556 -1.25631e-21)
(0.848329 -0.176797 1.22933e-21)
(0.917528 0.278035 3.87349e-22)
(0.966049 0.00481212 2.88804e-21)
(1.00566 -0.222634 -2.79254e-21)
(1.02252 -0.359927 -2.12286e-21)
(1.01492 -0.418147 3.27005e-21)
(0.991221 -0.426294 1.24354e-21)
(0.963154 -0.407151 -1.88116e-21)
(0.929619 -0.379915 -4.89545e-22)
(0.882547 -0.355474 -1.99768e-22)
(0.825998 -0.324664 1.47445e-22)
(0.778327 -0.267966 -8.21895e-23)
(0.757248 -0.17671 2.59022e-22)
(0.767969 -0.0608609 1.78988e-22)
(0.802791 0.0634504 -1.34519e-22)
(0.844288 0.187037 1.39945e-22)
(0.873932 0.306506 -1.08908e-22)
(0.883458 0.41013 5.32553e-22)
(0.87646 0.46857 -7.88211e-22)
(0.86181 0.452542 -5.53481e-22)
(0.845003 0.348498 1.0771e-21)
(0.834288 0.176325 -1.3158e-21)
(0.834265 -0.0194983 1.12632e-21)
(0.851252 -0.175575 -9.44134e-23)
(0.922785 0.286792 4.86522e-21)
(0.972341 0.0128546 -7.68083e-21)
(1.01183 -0.216544 2.38303e-21)