/*--------------------------------*- C++ -*----------------------------------*\
  =========                 |
  \\      /  F ield         | OpenFOAM: The Open Source CFD Toolbox
   \\    /   O peration     | Website:  https://openfoam.org
    \\  /    A nd           | Version:  7
     \\/     M anipulation  |
\*---------------------------------------------------------------------------*/
FoamFile
{
    version     2.0;
    format      ascii;
    class       volScalarField;
    location    "200";
    object      p;
}
// * * * * * * * * * * * * * * * * * * * * * * * * * * * * * * * * * * * * * //

dimensions      [0 2 -2 0 0 0 0];

internalField   nonuniform List<scalar> 
36600
(
-0.374562
-0.376298
-0.377229
-0.377943
-0.378501
-0.378934
-0.379293
-0.379622
-0.379953
-0.380307
-0.380703
-0.381148
-0.381652
-0.382225
-0.382882
-0.383645
-0.384555
-0.385672
-0.386987
-0.388612
-0.376513
-0.378394
-0.379416
-0.380216
-0.380865
-0.381393
-0.381855
-0.382295
-0.382744
-0.383223
-0.383746
-0.384319
-0.384947
-0.385635
-0.386395
-0.387242
-0.388208
-0.389344
-0.390634
-0.392185
-0.378586
-0.380603
-0.381709
-0.382593
-0.38333
-0.383952
-0.384518
-0.385071
-0.385639
-0.386244
-0.386896
-0.387599
-0.388353
-0.38916
-0.390024
-0.390956
-0.391978
-0.393134
-0.394398
-0.395867
-0.38079
-0.382929
-0.384114
-0.385077
-0.3859
-0.386616
-0.387285
-0.387951
-0.388641
-0.389374
-0.390157
-0.390991
-0.391874
-0.3928
-0.39377
-0.394787
-0.395868
-0.397044
-0.398282
-0.399662
-0.38313
-0.385377
-0.386634
-0.387672
-0.388577
-0.389385
-0.390158
-0.390937
-0.39175
-0.392612
-0.393529
-0.394497
-0.395509
-0.396557
-0.397634
-0.398737
-0.399875
-0.401072
-0.402284
-0.40357
-0.385613
-0.387951
-0.389272
-0.390379
-0.391363
-0.392262
-0.393137
-0.39403
-0.394966
-0.395959
-0.39701
-0.398113
-0.399256
-0.400426
-0.401611
-0.402801
-0.403997
-0.405216
-0.406399
-0.407588
-0.388242
-0.390653
-0.39203
-0.393199
-0.394258
-0.395245
-0.396221
-0.397227
-0.398287
-0.399411
-0.400598
-0.401837
-0.403112
-0.404405
-0.405697
-0.406972
-0.408224
-0.409466
-0.41062
-0.411706
-0.391018
-0.393483
-0.394906
-0.396132
-0.397261
-0.398333
-0.399408
-0.400527
-0.401711
-0.402966
-0.404288
-0.405664
-0.40707
-0.408485
-0.409882
-0.41124
-0.412547
-0.41381
-0.41493
-0.415909
-0.393941
-0.39644
-0.397899
-0.399175
-0.400369
-0.401522
-0.402695
-0.403925
-0.405231
-0.406617
-0.408075
-0.409585
-0.411123
-0.412657
-0.414158
-0.415595
-0.416951
-0.418231
-0.419312
-0.420175
-0.397009
-0.399521
-0.401005
-0.402323
-0.403576
-0.404807
-0.406074
-0.407413
-0.40884
-0.410356
-0.411948
-0.413592
-0.415258
-0.416909
-0.418509
-0.420019
-0.421418
-0.422709
-0.423744
-0.42448
-0.400217
-0.40272
-0.404219
-0.405572
-0.406878
-0.408181
-0.409539
-0.410984
-0.41253
-0.414173
-0.415897
-0.417673
-0.419464
-0.421228
-0.42292
-0.424497
-0.425928
-0.427222
-0.428199
-0.428792
-0.40356
-0.406032
-0.407535
-0.408913
-0.410266
-0.411636
-0.413081
-0.414629
-0.41629
-0.418058
-0.41991
-0.421815
-0.423727
-0.425598
-0.427375
-0.429007
-0.430459
-0.431742
-0.432647
-0.433076
-0.407028
-0.409448
-0.410943
-0.412337
-0.41373
-0.415162
-0.416688
-0.418335
-0.420107
-0.421996
-0.423973
-0.426001
-0.428029
-0.43
-0.431853
-0.433529
-0.434987
-0.436242
-0.437057
-0.437293
-0.410612
-0.412959
-0.414435
-0.415836
-0.41726
-0.418747
-0.420349
-0.422089
-0.423968
-0.425972
-0.42807
-0.430216
-0.432353
-0.434415
-0.436334
-0.43804
-0.439485
-0.440694
-0.441397
-0.441404
-0.4143
-0.416552
-0.417997
-0.419396
-0.420843
-0.422379
-0.42405
-0.425877
-0.427857
-0.429971
-0.432183
-0.434441
-0.436679
-0.438824
-0.440796
-0.442517
-0.44393
-0.445067
-0.445634
-0.445365
-0.418077
-0.420214
-0.421618
-0.423005
-0.424467
-0.426042
-0.427775
-0.429682
-0.431756
-0.433974
-0.436293
-0.438655
-0.440986
-0.443203
-0.445216
-0.446935
-0.448294
-0.449332
-0.449738
-0.449136
-0.421928
-0.423932
-0.425283
-0.426649
-0.428117
-0.429723
-0.43151
-0.433488
-0.435649
-0.437962
-0.44038
-0.442837
-0.445252
-0.447531
-0.449571
-0.451271
-0.452552
-0.453462
-0.45368
-0.452678
-0.425837
-0.427691
-0.428978
-0.430313
-0.431777
-0.433405
-0.435235
-0.437277
-0.439515
-0.441915
-0.444423
-0.446966
-0.449455
-0.451783
-0.453837
-0.4555
-0.45668
-0.457431
-0.457437
-0.455958
-0.429786
-0.431474
-0.432688
-0.433981
-0.435431
-0.437071
-0.438936
-0.441031
-0.443335
-0.445812
-0.448399
-0.451018
-0.453569
-0.455936
-0.45799
-0.459599
-0.460653
-0.461212
-0.460992
-0.458953
-0.433758
-0.435266
-0.436397
-0.437639
-0.439064
-0.440705
-0.442594
-0.44473
-0.44709
-0.449631
-0.452287
-0.45497
-0.457572
-0.459964
-0.462003
-0.463543
-0.464449
-0.464783
-0.46433
-0.461623
-0.437733
-0.43905
-0.440089
-0.44127
-0.442661
-0.444292
-0.446191
-0.448356
-0.450759
-0.453352
-0.456063
-0.458798
-0.461438
-0.463842
-0.465854
-0.467307
-0.468043
-0.46812
-0.467435
-0.46383
-0.441693
-0.442812
-0.443751
-0.444861
-0.446205
-0.447815
-0.449712
-0.451892
-0.454324
-0.456954
-0.459706
-0.462478
-0.465141
-0.467545
-0.469515
-0.470867
-0.471415
-0.471203
-0.470297
-0.465583
-0.445622
-0.446535
-0.447367
-0.448397
-0.449684
-0.451258
-0.453139
-0.455319
-0.457764
-0.460416
-0.463193
-0.465987
-0.468659
-0.471047
-0.472962
-0.4742
-0.474544
-0.473992
-0.472724
-0.467282
-0.449501
-0.450206
-0.450924
-0.451865
-0.453083
-0.454609
-0.456459
-0.458623
-0.461065
-0.463721
-0.466506
-0.469303
-0.471968
-0.474326
-0.476171
-0.477282
-0.477413
-0.476538
-0.474745
-0.468639
-0.453317
-0.453811
-0.454411
-0.455254
-0.456391
-0.457855
-0.459659
-0.46179
-0.464209
-0.466851
-0.469624
-0.472407
-0.475047
-0.477356
-0.479117
-0.480088
-0.479998
-0.478778
-0.476518
-0.469561
-0.457054
-0.45734
-0.457816
-0.458554
-0.459599
-0.460986
-0.462727
-0.464807
-0.467185
-0.469792
-0.472533
-0.475281
-0.477876
-0.480119
-0.48178
-0.482598
-0.482276
-0.480697
-0.47802
-0.470086
-0.460701
-0.460782
-0.461132
-0.461757
-0.462699
-0.463995
-0.465655
-0.467665
-0.469981
-0.472533
-0.47522
-0.477912
-0.480439
-0.482597
-0.484139
-0.48479
-0.484229
-0.482276
-0.479218
-0.470214
-0.464247
-0.464131
-0.464352
-0.464856
-0.465684
-0.466874
-0.468437
-0.470358
-0.472591
-0.475065
-0.477677
-0.480288
-0.482726
-0.484776
-0.486181
-0.486649
-0.485839
-0.483501
-0.480088
-0.469942
-0.467686
-0.467381
-0.467472
-0.467849
-0.468553
-0.469623
-0.471071
-0.472882
-0.475012
-0.477385
-0.479897
-0.482405
-0.484731
-0.48665
-0.487896
-0.488164
-0.487094
-0.484357
-0.480614
-0.469269
-0.471014
-0.470529
-0.470489
-0.470734
-0.471303
-0.472239
-0.473555
-0.475237
-0.477242
-0.479493
-0.481881
-0.484262
-0.48645
-0.488216
-0.48928
-0.489328
-0.487986
-0.484837
-0.480782
-0.468203
-0.474227
-0.473574
-0.473405
-0.473512
-0.473936
-0.474725
-0.475893
-0.477427
-0.479285
-0.481391
-0.483633
-0.485863
-0.48789
-0.489478
-0.490338
-0.490144
-0.488513
-0.484938
-0.480581
-0.466759
-0.477327
-0.476519
-0.476221
-0.476186
-0.476457
-0.477086
-0.47809
-0.479458
-0.481149
-0.483088
-0.485162
-0.487217
-0.48906
-0.490446
-0.491079
-0.49062
-0.488682
-0.484669
-0.480003
-0.464959
-0.480318
-0.479368
-0.478942
-0.478763
-0.478873
-0.47933
-0.480154
-0.481339
-0.482845
-0.484597
-0.48648
-0.48834
-0.489976
-0.491137
-0.491519
-0.490774
-0.488506
-0.484046
-0.479047
-0.462837
-0.483207
-0.482128
-0.481577
-0.481249
-0.481191
-0.481466
-0.482098
-0.483084
-0.484387
-0.485932
-0.487606
-0.489249
-0.490657
-0.491572
-0.491681
-0.490629
-0.488008
-0.483098
-0.477716
-0.460437
-0.486003
-0.484808
-0.484133
-0.483655
-0.483423
-0.483507
-0.483934
-0.484707
-0.485791
-0.487113
-0.488559
-0.489967
-0.491127
-0.491775
-0.491591
-0.490212
-0.487214
-0.481866
-0.476028
-0.45784
-0.488718
-0.487419
-0.486623
-0.485992
-0.485582
-0.485466
-0.485679
-0.486226
-0.487078
-0.488162
-0.489363
-0.490518
-0.491412
-0.491776
-0.491278
-0.489556
-0.486154
-0.480393
-0.474005
-0.455146
-0.491367
-0.489973
-0.489059
-0.488274
-0.487681
-0.487359
-0.487349
-0.48766
-0.488268
-0.489101
-0.490044
-0.490931
-0.491542
-0.491603
-0.490776
-0.488696
-0.484866
-0.478727
-0.471619
-0.452316
-0.493966
-0.492487
-0.491455
-0.490516
-0.489736
-0.489203
-0.488963
-0.489031
-0.489384
-0.489955
-0.490627
-0.491231
-0.491545
-0.491288
-0.490117
-0.48767
-0.483402
-0.476946
-0.468771
-0.448965
-0.496534
-0.494975
-0.493827
-0.492732
-0.491763
-0.491016
-0.49054
-0.490358
-0.49045
-0.490749
-0.491139
-0.491448
-0.491449
-0.490858
-0.489331
-0.486516
-0.481839
-0.475204
-0.465588
-0.44532
-0.499089
-0.497454
-0.496191
-0.494939
-0.493781
-0.492816
-0.492102
-0.491665
-0.491489
-0.491509
-0.491607
-0.491608
-0.491281
-0.490339
-0.488442
-0.485257
-0.480226
-0.4736
-0.462895
-0.445644
-0.501653
-0.499943
-0.498563
-0.497155
-0.495805
-0.494622
-0.493667
-0.492972
-0.492524
-0.492258
-0.492054
-0.491735
-0.491064
-0.489754
-0.487467
-0.483901
-0.478536
-0.471929
-0.461332
-0.456747
-0.504245
-0.502459
-0.500962
-0.499396
-0.497854
-0.496452
-0.495256
-0.494301
-0.493577
-0.493019
-0.492504
-0.491851
-0.490819
-0.489118
-0.486419
-0.482445
-0.476725
-0.470014
-0.459508
-0.457365
-0.506888
-0.50502
-0.503404
-0.501678
-0.499945
-0.498324
-0.496886
-0.495671
-0.494668
-0.493812
-0.492977
-0.491975
-0.490562
-0.488445
-0.485304
-0.480883
-0.474759
-0.467747
-0.457089
-0.454547
-0.509601
-0.507644
-0.505905
-0.504019
-0.502094
-0.500255
-0.498577
-0.4971
-0.495816
-0.494656
-0.493489
-0.492122
-0.490305
-0.487745
-0.484127
-0.479215
-0.472626
-0.465148
-0.45417
-0.450361
-0.512404
-0.510347
-0.508481
-0.506433
-0.504316
-0.50226
-0.500343
-0.498605
-0.497036
-0.495565
-0.494055
-0.492305
-0.490059
-0.487024
-0.482893
-0.477443
-0.470329
-0.462266
-0.450855
-0.445439
-0.515314
-0.513146
-0.511148
-0.508935
-0.506627
-0.504355
-0.502199
-0.500199
-0.498343
-0.496552
-0.494684
-0.49253
-0.489828
-0.486286
-0.481604
-0.475572
-0.46788
-0.459157
-0.447247
-0.440197
-0.51835
-0.516054
-0.513918
-0.511539
-0.509038
-0.506551
-0.504157
-0.501895
-0.499746
-0.497626
-0.495383
-0.492802
-0.489615
-0.485532
-0.480262
-0.473609
-0.465297
-0.455873
-0.443439
-0.434877
-0.521525
-0.519086
-0.516806
-0.514256
-0.511562
-0.50886
-0.506229
-0.503701
-0.501253
-0.498792
-0.496157
-0.493123
-0.48942
-0.484761
-0.478868
-0.471561
-0.462601
-0.452465
-0.43951
-0.429614
-0.524853
-0.522253
-0.519821
-0.517097
-0.514208
-0.511292
-0.508421
-0.505625
-0.50287
-0.500054
-0.497005
-0.493491
-0.48924
-0.483971
-0.477423
-0.469436
-0.459813
-0.448972
-0.435516
-0.424478
-0.528345
-0.525564
-0.522972
-0.520071
-0.516985
-0.513853
-0.510741
-0.507671
-0.504599
-0.501411
-0.497925
-0.493902
-0.48907
-0.483158
-0.475928
-0.467244
-0.45695
-0.445428
-0.431502
-0.419504
-0.532009
-0.529028
-0.526269
-0.523185
-0.519899
-0.516549
-0.513193
-0.509841
-0.50644
-0.502861
-0.498912
-0.494349
-0.488904
-0.482319
-0.474383
-0.464991
-0.45403
-0.441859
-0.427498
-0.4147
-0.535851
-0.532652
-0.529717
-0.526445
-0.522957
-0.519385
-0.515779
-0.512137
-0.508391
-0.504399
-0.499959
-0.494824
-0.488732
-0.481446
-0.472788
-0.462683
-0.451067
-0.438282
-0.423524
-0.410064
-0.539875
-0.536439
-0.53332
-0.529855
-0.52616
-0.522363
-0.5185
-0.514556
-0.510447
-0.506018
-0.501057
-0.495316
-0.488546
-0.480536
-0.471141
-0.460326
-0.448072
-0.434712
-0.419591
-0.405586
-0.544085
-0.540393
-0.537081
-0.533418
-0.529512
-0.525483
-0.521355
-0.517095
-0.512602
-0.507709
-0.502194
-0.495814
-0.488336
-0.479581
-0.469442
-0.457923
-0.445051
-0.431156
-0.415705
-0.401248
-0.548479
-0.544514
-0.541003
-0.537136
-0.533013
-0.528746
-0.524341
-0.519748
-0.514848
-0.50946
-0.503357
-0.496304
-0.488092
-0.478574
-0.467688
-0.455477
-0.442012
-0.427618
-0.411866
-0.397034
-0.553056
-0.548802
-0.545084
-0.541008
-0.536662
-0.532148
-0.527454
-0.522508
-0.517175
-0.511258
-0.504533
-0.496774
-0.487802
-0.477508
-0.465876
-0.452989
-0.438955
-0.424098
-0.408072
-0.392924
-0.557812
-0.553254
-0.549323
-0.545032
-0.540457
-0.535686
-0.530687
-0.525366
-0.519569
-0.51309
-0.505705
-0.497209
-0.487454
-0.476376
-0.464004
-0.450458
-0.435881
-0.420593
-0.404316
-0.3889
-0.562742
-0.557867
-0.553717
-0.549205
-0.544394
-0.539355
-0.534033
-0.528311
-0.522017
-0.514939
-0.506858
-0.497595
-0.487038
-0.47517
-0.462066
-0.447882
-0.432789
-0.4171
-0.400592
-0.384944
-0.567837
-0.562634
-0.55826
-0.553523
-0.548467
-0.543147
-0.53748
-0.53133
-0.524504
-0.516787
-0.507975
-0.497915
-0.48654
-0.473882
-0.460059
-0.445259
-0.429675
-0.413612
-0.39689
-0.381037
-0.573089
-0.567548
-0.562946
-0.557979
-0.552669
-0.547052
-0.541018
-0.534406
-0.527011
-0.518616
-0.509036
-0.498154
-0.48595
-0.472504
-0.457976
-0.442583
-0.426534
-0.410121
-0.3932
-0.377163
-0.578485
-0.5726
-0.567767
-0.562564
-0.556991
-0.551059
-0.544633
-0.537525
-0.52952
-0.520406
-0.510023
-0.498297
-0.485255
-0.471028
-0.455813
-0.43985
-0.423359
-0.406619
-0.389512
-0.373307
-0.584014
-0.577779
-0.572712
-0.567269
-0.561421
-0.555156
-0.548307
-0.540666
-0.532009
-0.522136
-0.510918
-0.498327
-0.484444
-0.469445
-0.453563
-0.437053
-0.420144
-0.403096
-0.385815
-0.369452
-0.58966
-0.583071
-0.577769
-0.57208
-0.565945
-0.559325
-0.552021
-0.543807
-0.534455
-0.523784
-0.511701
-0.49823
-0.483505
-0.467746
-0.451217
-0.434185
-0.416881
-0.399542
-0.382097
-0.365585
-0.595405
-0.588461
-0.582924
-0.576984
-0.570548
-0.563549
-0.555756
-0.546927
-0.536835
-0.525326
-0.512352
-0.497989
-0.482426
-0.465924
-0.448769
-0.431239
-0.413559
-0.395948
-0.378346
-0.361693
-0.60123
-0.593931
-0.588159
-0.581963
-0.575211
-0.567806
-0.559488
-0.549999
-0.539125
-0.526741
-0.512851
-0.49759
-0.481196
-0.463967
-0.446211
-0.428205
-0.41017
-0.392301
-0.374552
-0.357763
-0.607115
-0.599464
-0.593457
-0.586998
-0.579914
-0.572074
-0.56319
-0.552997
-0.541296
-0.528004
-0.51318
-0.497017
-0.479802
-0.461867
-0.443533
-0.425074
-0.406703
-0.388591
-0.370702
-0.353782
-0.613034
-0.605035
-0.598796
-0.592068
-0.584632
-0.576326
-0.566836
-0.555893
-0.543324
-0.529093
-0.513319
-0.496254
-0.478234
-0.459614
-0.440726
-0.421838
-0.403149
-0.384807
-0.366786
-0.34974
-0.618962
-0.610622
-0.604151
-0.597146
-0.589339
-0.580534
-0.570394
-0.558657
-0.54518
-0.529982
-0.513248
-0.495288
-0.476478
-0.457198
-0.43778
-0.418485
-0.399496
-0.380938
-0.362792
-0.345624
-0.62487
-0.616198
-0.609497
-0.602207
-0.594006
-0.584666
-0.573834
-0.561256
-0.546835
-0.530649
-0.512949
-0.494103
-0.474524
-0.454608
-0.434686
-0.415005
-0.395733
-0.376972
-0.358709
-0.341424
-0.63073
-0.621735
-0.614807
-0.607221
-0.598603
-0.588692
-0.577122
-0.563662
-0.548262
-0.53107
-0.512404
-0.492685
-0.47236
-0.451834
-0.431432
-0.411388
-0.39185
-0.372898
-0.354527
-0.337129
-0.636506
-0.627201
-0.620049
-0.612157
-0.603096
-0.592576
-0.580225
-0.565841
-0.549433
-0.531222
-0.511594
-0.49102
-0.469973
-0.448864
-0.428009
-0.407623
-0.387835
-0.368707
-0.350234
-0.332731
-0.642166
-0.632565
-0.625189
-0.61698
-0.60745
-0.596282
-0.583106
-0.567761
-0.550322
-0.531084
-0.510503
-0.489094
-0.467353
-0.445689
-0.424406
-0.403698
-0.383678
-0.364386
-0.345821
-0.328219
-0.647672
-0.637789
-0.630193
-0.621654
-0.611627
-0.599772
-0.585731
-0.56939
-0.550899
-0.530634
-0.509112
-0.486893
-0.464486
-0.442297
-0.420611
-0.399604
-0.379368
-0.359925
-0.341277
-0.323584
-0.652985
-0.642838
-0.635024
-0.626141
-0.615588
-0.603007
-0.588061
-0.570695
-0.551139
-0.529849
-0.507406
-0.484404
-0.461362
-0.438676
-0.416613
-0.395328
-0.374894
-0.355315
-0.336593
-0.318817
-0.658064
-0.647673
-0.639641
-0.6304
-0.619292
-0.605948
-0.590061
-0.571644
-0.551015
-0.528709
-0.505368
-0.481614
-0.457968
-0.434815
-0.412402
-0.390861
-0.370245
-0.350544
-0.33176
-0.313911
-0.66287
-0.652253
-0.644005
-0.634391
-0.622698
-0.608555
-0.591694
-0.572207
-0.550502
-0.527196
-0.502983
-0.478508
-0.454293
-0.430705
-0.407967
-0.386192
-0.365412
-0.345604
-0.326769
-0.308856
-0.667358
-0.656537
-0.648074
-0.638071
-0.625764
-0.610787
-0.592924
-0.572353
-0.549576
-0.52529
-0.500235
-0.475076
-0.450325
-0.426332
-0.403297
-0.381309
-0.360385
-0.340486
-0.321611
-0.303646
-0.671486
-0.660482
-0.651804
-0.641396
-0.628447
-0.612605
-0.593716
-0.572053
-0.548214
-0.522973
-0.497111
-0.471304
-0.446054
-0.421688
-0.398382
-0.376205
-0.355154
-0.33518
-0.316278
-0.298273
-0.675208
-0.664044
-0.655153
-0.644323
-0.630704
-0.613968
-0.594036
-0.571279
-0.546395
-0.520228
-0.493596
-0.46718
-0.441467
-0.416761
-0.393212
-0.370868
-0.34971
-0.329679
-0.310763
-0.292731
-0.678481
-0.667181
-0.658075
-0.646808
-0.632494
-0.61484
-0.59385
-0.570004
-0.544097
-0.517038
-0.489677
-0.462693
-0.436555
-0.411541
-0.387776
-0.36529
-0.344044
-0.323974
-0.305058
-0.287013
-0.681261
-0.669848
-0.660527
-0.648806
-0.633774
-0.615182
-0.593129
-0.568204
-0.541301
-0.51339
-0.485342
-0.457832
-0.431308
-0.406018
-0.382067
-0.359461
-0.338149
-0.318058
-0.299157
-0.281114
-0.683501
-0.671999
-0.662464
-0.650275
-0.634503
-0.614958
-0.59184
-0.565856
-0.53799
-0.509268
-0.48058
-0.452587
-0.425714
-0.400184
-0.376074
-0.353374
-0.332017
-0.311924
-0.293053
-0.275029
-0.685158
-0.673593
-0.663843
-0.651171
-0.634643
-0.614134
-0.589958
-0.562936
-0.534145
-0.504659
-0.475378
-0.446948
-0.419767
-0.394029
-0.36979
-0.347021
-0.325641
-0.305566
-0.286742
-0.268753
-0.68619
-0.674586
-0.664621
-0.651454
-0.634155
-0.612678
-0.587455
-0.559426
-0.529754
-0.499553
-0.469727
-0.440905
-0.413456
-0.387546
-0.363208
-0.340394
-0.319014
-0.298977
-0.280217
-0.262281
-0.686555
-0.674937
-0.664756
-0.651084
-0.633004
-0.610559
-0.584308
-0.555308
-0.524801
-0.493937
-0.463619
-0.434451
-0.406774
-0.380727
-0.356319
-0.333489
-0.312131
-0.292154
-0.273475
-0.255609
-0.686212
-0.674605
-0.664208
-0.650022
-0.631155
-0.60775
-0.580495
-0.550565
-0.519274
-0.487802
-0.457044
-0.427578
-0.399715
-0.373565
-0.349119
-0.326297
-0.304986
-0.28509
-0.266511
-0.248734
-0.685123
-0.67355
-0.662939
-0.648233
-0.628577
-0.604224
-0.575997
-0.545182
-0.513163
-0.48114
-0.449995
-0.42028
-0.392271
-0.366055
-0.3416
-0.318815
-0.297575
-0.277781
-0.259321
-0.241654
-0.683252
-0.671737
-0.660914
-0.645684
-0.625242
-0.59996
-0.570796
-0.539148
-0.50646
-0.473944
-0.442467
-0.412549
-0.384438
-0.358191
-0.33376
-0.311039
-0.289894
-0.270225
-0.251904
-0.234368
-0.680563
-0.669131
-0.658097
-0.642342
-0.621123
-0.594935
-0.564878
-0.532452
-0.499155
-0.466208
-0.434454
-0.404383
-0.37621
-0.34997
-0.325593
-0.302964
-0.281939
-0.262416
-0.244257
-0.226875
-0.677027
-0.665699
-0.654458
-0.63818
-0.616196
-0.589134
-0.55823
-0.525086
-0.491244
-0.457926
-0.425952
-0.395777
-0.367585
-0.341387
-0.317098
-0.294588
-0.273706
-0.254352
-0.236376
-0.219161
-0.672612
-0.661412
-0.649968
-0.633173
-0.610442
-0.58254
-0.550843
-0.517043
-0.482723
-0.449097
-0.416959
-0.386728
-0.35856
-0.332441
-0.308271
-0.28591
-0.265196
-0.246032
-0.228251
-0.211182
-0.667294
-0.656244
-0.644602
-0.627298
-0.603843
-0.575143
-0.542709
-0.50832
-0.473588
-0.439718
-0.407472
-0.377236
-0.349134
-0.323131
-0.299113
-0.276928
-0.25641
-0.237463
-0.219894
-0.202899
-0.66105
-0.65017
-0.638338
-0.620537
-0.596384
-0.566933
-0.533822
-0.498913
-0.463839
-0.429789
-0.397492
-0.367299
-0.339305
-0.313456
-0.289622
-0.267643
-0.247348
-0.22865
-0.211328
-0.194408
-0.653858
-0.64317
-0.631156
-0.612874
-0.588056
-0.557903
-0.524182
-0.488823
-0.453476
-0.419311
-0.387019
-0.356919
-0.329076
-0.303417
-0.2798
-0.258057
-0.238011
-0.21958
-0.202473
-0.185859
-0.645704
-0.635227
-0.623041
-0.604297
-0.578851
-0.548051
-0.513786
-0.478051
-0.442502
-0.408286
-0.376056
-0.346097
-0.318447
-0.293016
-0.269649
-0.248171
-0.228403
-0.210262
-0.193399
-0.177116
-0.636574
-0.626328
-0.613981
-0.594797
-0.568763
-0.537375
-0.502638
-0.466601
-0.430921
-0.396718
-0.364607
-0.334836
-0.307422
-0.282255
-0.25917
-0.237989
-0.218524
-0.200695
-0.184112
-0.16816
-0.626459
-0.616462
-0.603967
-0.584368
-0.557792
-0.525878
-0.490742
-0.454478
-0.418739
-0.384612
-0.352675
-0.323142
-0.296004
-0.271138
-0.248371
-0.227512
-0.208378
-0.190887
-0.17461
-0.158992
-0.615352
-0.605622
-0.592994
-0.57301
-0.545939
-0.513565
-0.478105
-0.44169
-0.405963
-0.371976
-0.340267
-0.311019
-0.2842
-0.259672
-0.237253
-0.216747
-0.19797
-0.18084
-0.164893
-0.149617
-0.603252
-0.593807
-0.581061
-0.560722
-0.533209
-0.500444
-0.464736
-0.428246
-0.392602
-0.358817
-0.32739
-0.298474
-0.272015
-0.247861
-0.225822
-0.205698
-0.187304
-0.17056
-0.154962
-0.140043
-0.590159
-0.581015
-0.56817
-0.547512
-0.519611
-0.486524
-0.450646
-0.414158
-0.378666
-0.345144
-0.314053
-0.285517
-0.259457
-0.235712
-0.214086
-0.194372
-0.176388
-0.160052
-0.144823
-0.130275
-0.576078
-0.567252
-0.554326
-0.533386
-0.505155
-0.471819
-0.435848
-0.399438
-0.364167
-0.33097
-0.300268
-0.272154
-0.246535
-0.223234
-0.202052
-0.182776
-0.165226
-0.149323
-0.13448
-0.120321
-0.561018
-0.552525
-0.539539
-0.518356
-0.489856
-0.456344
-0.420358
-0.384101
-0.34912
-0.316306
-0.286044
-0.258398
-0.233257
-0.210436
-0.189728
-0.170919
-0.153828
-0.138379
-0.12394
-0.110187
-0.54499
-0.536845
-0.523821
-0.502438
-0.473729
-0.440116
-0.404194
-0.368164
-0.333538
-0.301166
-0.271394
-0.24426
-0.219636
-0.197328
-0.177125
-0.158809
-0.142202
-0.127228
-0.113212
-0.0998803
-0.52801
-0.520227
-0.507188
-0.485648
-0.456795
-0.423156
-0.387376
-0.351646
-0.317439
-0.285565
-0.256332
-0.229752
-0.205682
-0.183921
-0.164253
-0.146457
-0.130358
-0.11588
-0.102304
-0.0894093
-0.510096
-0.502688
-0.489659
-0.468009
-0.439074
-0.405485
-0.369925
-0.334563
-0.300841
-0.26952
-0.240873
-0.214888
-0.191409
-0.170228
-0.151123
-0.133874
-0.118306
-0.104345
-0.091226
-0.0787831
-0.491271
-0.484251
-0.471257
-0.449542
-0.420593
-0.387132
-0.351856
-0.316939
-0.283764
-0.253048
-0.225032
-0.199683
-0.176831
-0.15626
-0.137748
-0.121071
-0.106058
-0.0926341
-0.0799881
-0.0680123
-0.47156
-0.464939
-0.452006
-0.430276
-0.401382
-0.368128
-0.33319
-0.298795
-0.266226
-0.236167
-0.208828
-0.184153
-0.161962
-0.142033
-0.124142
-0.108062
-0.0936264
-0.0807588
-0.0686026
-0.0571084
-0.450989
-0.444779
-0.431934
-0.410239
-0.381466
-0.348466
-0.313987
-0.280157
-0.248251
-0.218899
-0.192279
-0.168315
-0.146818
-0.127562
-0.110317
-0.0948591
-0.0810239
-0.0687323
-0.0570828
-0.0460853
-0.42959
-0.423803
-0.411073
-0.389467
-0.36087
-0.328206
-0.294246
-0.26105
-0.229862
-0.201264
-0.175403
-0.152186
-0.131416
-0.11286
-0.0962895
-0.0814775
-0.0682648
-0.0565686
-0.0454431
-0.034959
-0.407393
-0.402043
-0.389458
-0.367996
-0.339618
-0.307382
-0.274
-0.241502
-0.211083
-0.183283
-0.158221
-0.135786
-0.115772
-0.0979448
-0.0820737
-0.0679315
-0.0553638
-0.0442824
-0.0336997
-0.0237484
-0.384435
-0.379536
-0.367126
-0.345826
-0.317777
-0.28602
-0.253281
-0.221539
-0.19194
-0.164981
-0.140754
-0.119133
-0.0999043
-0.0828324
-0.0676852
-0.0542363
-0.042336
-0.0318891
-0.0218697
-0.0124753
-0.360753
-0.356322
-0.344123
-0.32301
-0.295364
-0.264156
-0.232122
-0.201192
-0.172459
-0.146381
-0.123023
-0.102247
-0.0838315
-0.0675399
-0.0531399
-0.040407
-0.0291967
-0.0194042
-0.00997195
-0.00116688
-0.336382
-0.332439
-0.320438
-0.299639
-0.27242
-0.241824
-0.210555
-0.180489
-0.152667
-0.127508
-0.105053
-0.085149
-0.0675724
-0.0520845
-0.0384538
-0.0264586
-0.0159609
-0.0068433
0.00197285
0.0101402
-0.311353
-0.307943
-0.296165
-0.275712
-0.248986
-0.219063
-0.188615
-0.159462
-0.132593
-0.108388
-0.086865
-0.0678607
-0.0511464
-0.0364837
-0.0236425
-0.0124058
-0.00264261
0.00577955
0.0139428
0.0214021
-0.285706
-0.282892
-0.271347
-0.251275
-0.225102
-0.195912
-0.166338
-0.138144
-0.112266
-0.0890478
-0.0684847
-0.0504039
-0.0345734
-0.0207554
-0.00872169
0.00173759
0.0107451
0.0184526
0.0259217
0.0325838
-0.259571
-0.257269
-0.246025
-0.226375
-0.20081
-0.172408
-0.143759
-0.116566
-0.0917155
-0.069514
-0.0499365
-0.0328012
-0.0178738
-0.00491749
0.00629307
0.0159579
0.02419
0.0311692
0.0379068
0.0436586
-0.232979
-0.231126
-0.22024
-0.201058
-0.176154
-0.148592
-0.120915
-0.0947638
-0.0709729
-0.0498152
-0.0312461
-0.0150759
-0.00106852
0.0110117
0.0213864
0.0302419
0.0376829
0.0439328
0.0498971
0.0545232
-0.205933
-0.204546
-0.194043
-0.175371
-0.151178
-0.124506
-0.0978439
-0.0727708
-0.0500695
-0.02998
-0.0124399
0.00274798
0.0158209
0.0270135
0.0365428
0.0445783
0.0512255
0.0567674
0.0618585
0.0648875
-0.178484
-0.177584
-0.167484
-0.149362
-0.125928
-0.100192
-0.0745846
-0.0506223
-0.0290374
-0.0100379
0.00645523
0.0206457
0.0327721
0.0430681
0.0517454
0.0589584
0.0648348
0.0697195
0.0737468
0.0744819
-0.150691
-0.15029
-0.140612
-0.12308
-0.100449
-0.0756915
-0.0511758
-0.028354
-0.00790919
0.00998116
0.0254116
0.0385918
0.0497616
0.059154
0.0669751
0.0733725
0.0785238
0.0828005
0.0855883
0.0840178
-0.122611
-0.122716
-0.113481
-0.0965755
-0.0747884
-0.0510483
-0.0276571
-0.00600208
0.0132819
0.0300466
0.0444009
0.0565602
0.066765
0.0752477
0.08221
0.0878023
0.0922605
0.095887
0.0973067
0.0964333
-0.0942965
-0.0949135
-0.0861418
-0.0698974
-0.0489932
-0.0263056
-0.00406829
0.0163969
0.0345023
0.0501273
0.0633946
0.0745241
0.0837572
0.091325
0.0974264
0.102219
0.10597
0.108887
0.10952
0.10943
-0.0658045
-0.0669374
-0.0586484
-0.0430973
-0.0231108
-0.00150753
0.0195503
0.0388061
0.055718
0.0701922
0.0823635
0.0924563
0.100712
0.107361
0.1126
0.116595
0.119619
0.121807
0.121819
0.121821
-0.0371915
-0.0388429
-0.0310547
-0.0162262
0.00281096
0.023302
0.0431584
0.0611884
0.076895
0.0902096
0.101278
0.11033
0.117605
0.123332
0.127707
0.130902
0.133186
0.134654
0.134101
0.133882
-0.00851423
-0.0106851
-0.00341461
0.0106644
0.0287242
0.0480789
0.0667154
0.0835067
0.0979991
0.110148
0.12011
0.128116
0.134408
0.139213
0.142723
0.145114
0.146651
0.147404
0.146284
0.145699
0.0201705
0.0174802
0.0242176
0.0375231
0.0545809
0.0727788
0.0901807
0.105724
0.118996
0.129976
0.138829
0.145789
0.151098
0.154978
0.157624
0.159211
0.159995
0.160034
0.158329
0.157294
0.0488058
0.045597
0.0517877
0.0642986
0.0803335
0.0973579
0.113514
0.127802
0.139851
0.149661
0.157406
0.163321
0.167647
0.170606
0.172388
0.173168
0.173197
0.172521
0.170216
0.16868
0.0773347
0.0736097
0.0792417
0.0909396
0.105934
0.121772
0.136675
0.149705
0.160531
0.169172
0.175811
0.180684
0.184031
0.18607
0.186991
0.186967
0.18624
0.184848
0.181933
0.179863
0.105701
0.101462
0.106526
0.117395
0.131336
0.145978
0.159624
0.171396
0.181002
0.188478
0.194016
0.197853
0.200225
0.201349
0.201413
0.200586
0.199105
0.196997
0.193466
0.190843
0.133847
0.1291
0.133586
0.143615
0.156491
0.169933
0.182321
0.192839
0.201229
0.207548
0.211992
0.214799
0.216204
0.21642
0.215631
0.214007
0.211775
0.208954
0.204806
0.201615
0.161719
0.156467
0.160369
0.169549
0.181354
0.193593
0.204726
0.213997
0.221181
0.226351
0.229711
0.231497
0.231943
0.23126
0.229627
0.227211
0.224233
0.220705
0.215941
0.212174
0.18926
0.18351
0.186824
0.195147
0.205878
0.216917
0.226802
0.234834
0.240823
0.244858
0.247144
0.247922
0.24742
0.245846
0.243378
0.24018
0.236463
0.232234
0.22686
0.222513
0.216416
0.210174
0.212898
0.220362
0.23002
0.239863
0.24851
0.255316
0.260124
0.263037
0.264265
0.264047
0.262611
0.260159
0.256867
0.252895
0.248449
0.243528
0.237552
0.232623
0.243132
0.236407
0.23854
0.245145
0.253733
0.26239
0.269812
0.275409
0.279053
0.28086
0.281046
0.279849
0.277492
0.274176
0.270073
0.26534
0.260175
0.254574
0.248004
0.242495
0.269357
0.262157
0.263701
0.269449
0.276975
0.284459
0.290672
0.295078
0.297577
0.298298
0.297461
0.295302
0.292041
0.287877
0.282978
0.277498
0.271626
0.265358
0.258206
0.252119
0.295038
0.287373
0.288331
0.293228
0.299703
0.30603
0.311054
0.31429
0.315667
0.315324
0.313484
0.310382
0.306236
0.301241
0.295562
0.28935
0.282787
0.275866
0.268145
0.261485
0.320125
0.312005
0.312383
0.316438
0.321876
0.327064
0.330923
0.333014
0.333292
0.331909
0.329089
0.325066
0.320056
0.31425
0.307809
0.300882
0.293643
0.286085
0.27781
0.270584
0.344568
0.336005
0.33581
0.339035
0.343453
0.347526
0.350244
0.351217
0.350423
0.348026
0.344252
0.339332
0.33348
0.326883
0.3197
0.312077
0.304179
0.296002
0.287187
0.279404
0.368319
0.359325
0.358567
0.360975
0.364396
0.367378
0.368985
0.368869
0.367034
0.363651
0.358949
0.353157
0.346487
0.339122
0.331219
0.322919
0.314382
0.305603
0.296265
0.287936
0.391331
0.38192
0.38061
0.382219
0.384665
0.386586
0.387112
0.38594
0.383095
0.378757
0.373156
0.36652
0.359058
0.350949
0.342348
0.333393
0.324236
0.314877
0.305033
0.29617
0.413559
0.403745
0.401896
0.402727
0.404224
0.405116
0.404596
0.402402
0.398581
0.39332
0.386851
0.379401
0.371173
0.362347
0.353072
0.343484
0.33373
0.32381
0.313478
0.304096
0.43496
0.424758
0.422385
0.422459
0.423038
0.422935
0.421405
0.418227
0.413466
0.407317
0.400013
0.391778
0.382814
0.373297
0.363374
0.353178
0.342849
0.332391
0.321591
0.311703
0.455492
0.444917
0.442038
0.44138
0.441073
0.440012
0.437512
0.433389
0.427726
0.420725
0.41262
0.403633
0.393963
0.383784
0.37324
0.362461
0.35158
0.340607
0.329359
0.318984
0.475115
0.464184
0.460817
0.459455
0.458297
0.456317
0.452889
0.447862
0.441337
0.433523
0.424652
0.414947
0.404604
0.393793
0.382655
0.371319
0.359913
0.348448
0.336772
0.325928
0.493791
0.482521
0.478686
0.47665
0.474678
0.471822
0.467509
0.461622
0.454278
0.445689
0.436091
0.425703
0.41472
0.403307
0.391606
0.379741
0.367834
0.355903
0.343821
0.332528
0.511483
0.499893
0.495611
0.492932
0.490188
0.4865
0.481348
0.474646
0.466526
0.457205
0.446919
0.435885
0.424295
0.412314
0.400079
0.387713
0.375333
0.362961
0.350496
0.338774
0.528158
0.516265
0.511561
0.508274
0.504798
0.500325
0.494382
0.486913
0.478062
0.468052
0.457117
0.445475
0.433315
0.420798
0.408062
0.395225
0.3824
0.369613
0.356787
0.34466
0.543783
0.531608
0.526505
0.522645
0.518483
0.513273
0.50659
0.498402
0.488867
0.478212
0.466671
0.45446
0.441766
0.428749
0.415543
0.402265
0.389023
0.375849
0.362686
0.350177
0.558328
0.54589
0.540415
0.536021
0.531218
0.525323
0.51795
0.509094
0.498923
0.487669
0.475565
0.462825
0.449636
0.436154
0.422512
0.408824
0.395195
0.381661
0.368185
0.355318
0.571766
0.559085
0.553265
0.548376
0.542981
0.536452
0.528444
0.518971
0.508215
0.496408
0.483785
0.470558
0.456912
0.443001
0.428957
0.414892
0.400906
0.387041
0.373276
0.360078