/*--------------------------------*- C++ -*----------------------------------*\
  =========                 |
  \\      /  F ield         | OpenFOAM: The Open Source CFD Toolbox
   \\    /   O peration     | Website:  https://openfoam.org
    \\  /    A nd           | Version:  7
     \\/     M anipulation  |
\*---------------------------------------------------------------------------*/
FoamFile
{
    version     2.0;
    format      ascii;
    class       volScalarField;
    location    "60";
    object      p;
}
// * * * * * * * * * * * * * * * * * * * * * * * * * * * * * * * * * * * * * //

dimensions      [0 2 -2 0 0 0 0];

internalField   nonuniform List<scalar> 
4575
(
-0.263829
-0.264781
-0.265357
-0.263587
-0.264552
-0.265136
-0.263385
-0.264362
-0.264952
-0.263224
-0.264211
-0.264806
-0.263107
-0.264101
-0.264698
-0.263032
-0.264032
-0.26463
-0.263002
-0.264004
-0.264602
-0.263016
-0.264018
-0.264615
-0.263076
-0.264076
-0.264669
-0.265167
-0.26318
-0.264176
-0.264765
-0.265256
-0.26333
-0.26432
-0.264902
-0.265386
-0.263526
-0.264507
-0.265082
-0.265557
-0.263768
-0.264739
-0.265305
-0.265769
-0.264055
-0.265014
-0.265569
-0.266021
-0.264389
-0.265333
-0.265876
-0.266315
-0.264768
-0.265696
-0.266226
-0.26665
-0.265193
-0.266103
-0.266619
-0.267025
-0.26734
-0.265664
-0.266554
-0.267053
-0.267442
-0.267736
-0.266181
-0.267049
-0.26753
-0.267899
-0.268171
-0.266743
-0.267588
-0.26805
-0.268397
-0.268644
-0.267352
-0.268171
-0.268612
-0.268935
-0.269157
-0.269278
-0.268007
-0.268798
-0.269216
-0.269514
-0.269707
-0.269798
-0.268708
-0.269469
-0.269862
-0.270132
-0.270296
-0.270355
-0.269456
-0.270185
-0.27055
-0.270791
-0.270923
-0.270948
-0.27025
-0.270944
-0.271281
-0.27149
-0.271587
-0.271575
-0.271468
-0.271092
-0.271749
-0.272055
-0.272229
-0.272289
-0.272238
-0.27209
-0.271981
-0.272598
-0.272871
-0.273009
-0.273028
-0.272935
-0.272744
-0.272919
-0.273493
-0.27373
-0.273828
-0.273805
-0.273667
-0.273429
-0.273101
-0.273905
-0.274434
-0.274632
-0.274688
-0.274619
-0.274433
-0.274145
-0.273767
-0.274942
-0.275423
-0.275579
-0.275589
-0.27547
-0.275232
-0.274892
-0.27446
-0.276029
-0.276459
-0.276571
-0.276531
-0.276359
-0.276066
-0.275668
-0.27518
-0.274605
-0.277168
-0.277544
-0.277609
-0.277516
-0.277286
-0.276933
-0.276475
-0.275925
-0.27529
-0.278362
-0.27868
-0.278694
-0.278544
-0.278253
-0.277835
-0.277311
-0.276696
-0.275997
-0.275212
-0.279611
-0.279868
-0.279828
-0.279617
-0.279259
-0.278772
-0.278177
-0.277492
-0.276724
-0.275873
-0.280918
-0.281111
-0.281012
-0.280736
-0.280307
-0.279745
-0.279075
-0.278314
-0.277471
-0.276549
-0.282286
-0.282411
-0.28225
-0.281903
-0.281397
-0.280756
-0.280004
-0.279162
-0.27824
-0.277241
-0.276154
-0.283718
-0.283771
-0.283543
-0.283121
-0.282533
-0.281806
-0.280967
-0.280037
-0.279031
-0.277949
-0.276784
-0.285218
-0.285194
-0.284896
-0.284393
-0.283717
-0.282898
-0.281965
-0.280943
-0.279845
-0.278676
-0.277428
-0.276078
-0.28679
-0.286685
-0.28631
-0.285721
-0.284951
-0.284034
-0.283003
-0.281881
-0.280687
-0.279424
-0.278087
-0.276655
-0.288438
-0.288246
-0.287791
-0.28711
-0.28624
-0.285219
-0.284082
-0.282856
-0.281558
-0.280197
-0.278767
-0.277248
-0.275608
-0.290168
-0.289884
-0.289342
-0.288563
-0.287587
-0.286456
-0.285207
-0.28387
-0.282465
-0.281
-0.279472
-0.277862
-0.276141
-0.291985
-0.291602
-0.290968
-0.290085
-0.288997
-0.28775
-0.286384
-0.28493
-0.283411
-0.281838
-0.280207
-0.278502
-0.276698
-0.274759
-0.293895
-0.293407
-0.292675
-0.291681
-0.290475
-0.289106
-0.287616
-0.28604
-0.284403
-0.282716
-0.280978
-0.279175
-0.277283
-0.275274
-0.273125
-0.295905
-0.295303
-0.294467
-0.293357
-0.292026
-0.290528
-0.288909
-0.287207
-0.285447
-0.283643
-0.281793
-0.279887
-0.277902
-0.275814
-0.273612
-0.298022
-0.297298
-0.29635
-0.295117
-0.293655
-0.292023
-0.290271
-0.288437
-0.28655
-0.284624
-0.282659
-0.280644
-0.278559
-0.276384
-0.274109
-0.271803
-0.300252
-0.299396
-0.298331
-0.296968
-0.295369
-0.293598
-0.291707
-0.289737
-0.287719
-0.285667
-0.283582
-0.281453
-0.27926
-0.276983
-0.274615
-0.272223
-0.269735
-0.302602
-0.301605
-0.300415
-0.298916
-0.297173
-0.295258
-0.293223
-0.291114
-0.288962
-0.28678
-0.28457
-0.282319
-0.280007
-0.277614
-0.275127
-0.272606
-0.269966
-0.30508
-0.303931
-0.302609
-0.300966
-0.299075
-0.297009
-0.294828
-0.292576
-0.290284
-0.287968
-0.285627
-0.283247
-0.280805
-0.278275
-0.275641
-0.272949
-0.270101
-0.26788
-0.307693
-0.30638
-0.304918
-0.303126
-0.301079
-0.29886
-0.296527
-0.294128
-0.291694
-0.289239
-0.286761
-0.284241
-0.281653
-0.278966
-0.276155
-0.27325
-0.270142
-0.26748
-0.263073
-0.310447
-0.308959
-0.307349
-0.305401
-0.303194
-0.300816
-0.298328
-0.295778
-0.293198
-0.290598
-0.287974
-0.285303
-0.282551
-0.279683
-0.276664
-0.273506
-0.270096
-0.266957
-0.262195
-0.262151
-0.31335
-0.311673
-0.309908
-0.307797
-0.305425
-0.302884
-0.300237
-0.297533
-0.294801
-0.292051
-0.289271
-0.286434
-0.2835
-0.280424
-0.277163
-0.273715
-0.269965
-0.266331
-0.261207
-0.259821
-0.316406
-0.314528
-0.3126
-0.31032
-0.307777
-0.30507
-0.30226
-0.299398
-0.29651
-0.293601
-0.290654
-0.287635
-0.284495
-0.281183
-0.277649
-0.273876
-0.269755
-0.265618
-0.260127
-0.25757
-0.319622
-0.317529
-0.31543
-0.312976
-0.310258
-0.30738
-0.304404
-0.301379
-0.298328
-0.295251
-0.292123
-0.288902
-0.285532
-0.281955
-0.278114
-0.273985
-0.269468
-0.264829
-0.258972
-0.255401
-0.323002
-0.320681
-0.318405
-0.31577
-0.312872
-0.309819
-0.306674
-0.303481
-0.30026
-0.297002
-0.293677
-0.290233
-0.286606
-0.282732
-0.278552
-0.274038
-0.269107
-0.263973
-0.257751
-0.253311
-0.326551
-0.323988
-0.321527
-0.318706
-0.315624
-0.312393
-0.309074
-0.305708
-0.302306
-0.298855
-0.295314
-0.291621
-0.287708
-0.283506
-0.278956
-0.274033
-0.268671
-0.263053
-0.256473
-0.251287
-0.330272
-0.327454
-0.3248
-0.321789
-0.318519
-0.315106
-0.311608
-0.308061
-0.304469
-0.300808
-0.297028
-0.29306
-0.28883
-0.284267
-0.279318
-0.273964
-0.26816
-0.262071
-0.25514
-0.249316
-0.334167
-0.33108
-0.328229
-0.325021
-0.321559
-0.317961
-0.314279
-0.310542
-0.306746
-0.302857
-0.298814
-0.294541
-0.28996
-0.285005
-0.279629
-0.273827
-0.267574
-0.261027
-0.253752
-0.24738
-0.338237
-0.334869
-0.331813
-0.328406
-0.324749
-0.32096
-0.317088
-0.313151
-0.309136
-0.304996
-0.300662
-0.296052
-0.291088
-0.285708
-0.279881
-0.273614
-0.26691
-0.25992
-0.25231
-0.245462
-0.342482
-0.338821
-0.335555
-0.331944
-0.328088
-0.324105
-0.320034
-0.315885
-0.311633
-0.307218
-0.302563
-0.297582
-0.2922
-0.286366
-0.280064
-0.273321
-0.266164
-0.258745
-0.25081
-0.243545
-0.346901
-0.342935
-0.339455
-0.335637
-0.331578
-0.327395
-0.323117
-0.318741
-0.31423
-0.309513
-0.304504
-0.299116
-0.293281
-0.286965
-0.28017
-0.272942
-0.265333
-0.257499
-0.249247
-0.241613
-0.35149
-0.347209
-0.343511
-0.339483
-0.335218
-0.330828
-0.326332
-0.321713
-0.316919
-0.311868
-0.306469
-0.300638
-0.294319
-0.287493
-0.280187
-0.27247
-0.264413
-0.256177
-0.247618
-0.239651
-0.356245
-0.35164
-0.34772
-0.34348
-0.339005
-0.334402
-0.329675
-0.324792
-0.319687
-0.314269
-0.308444
-0.302133
-0.295296
-0.287938
-0.280109
-0.271898
-0.263399
-0.254774
-0.245917
-0.237644
-0.36116
-0.356222
-0.352078
-0.347624
-0.342934
-0.33811
-0.333136
-0.327967
-0.322522
-0.3167
-0.310409
-0.303582
-0.296198
-0.288286
-0.279924
-0.27122
-0.262286
-0.253284
-0.244138
-0.235581
-0.366226
-0.360949
-0.35658
-0.35191
-0.347001
-0.341944
-0.336707
-0.331226
-0.325406
-0.319142
-0.312346
-0.304968
-0.297009
-0.288527
-0.279624
-0.270429
-0.261069
-0.251701
-0.242274
-0.23345
-0.371434
-0.365812
-0.361217
-0.356329
-0.351195
-0.345894
-0.340374
-0.334552
-0.328321
-0.321575
-0.314235
-0.306271
-0.297712
-0.288646
-0.2792
-0.269519
-0.259741
-0.250019
-0.240319
-0.23124
-0.376771
-0.370801
-0.36598
-0.360873
-0.355508
-0.349949
-0.344122
-0.337927
-0.331247
-0.323978
-0.316054
-0.307473
-0.298293
-0.288633
-0.278643
-0.268483
-0.258296
-0.248232
-0.238268
-0.228944
-0.382223
-0.375904
-0.370858
-0.365529
-0.359926
-0.354093
-0.347934
-0.341331
-0.334161
-0.326326
-0.317782
-0.308554
-0.298737
-0.288476
-0.277944
-0.267313
-0.256729
-0.246332
-0.236112
-0.226551
-0.387773
-0.381104
-0.375835
-0.370283
-0.364432
-0.358308
-0.351788
-0.344739
-0.337037
-0.328596
-0.319395
-0.309496
-0.299027
-0.288163
-0.277095
-0.266002
-0.255032
-0.244315
-0.233846
-0.224055
-0.375119
-0.369011
-0.362573
-0.355661
-0.348128
-0.339851
-0.330761
-0.320872
-0.31028
-0.29915
-0.287683
-0.276086
-0.264542
-0.253199
-0.242171
-0.231462
-0.221447
-0.366866
-0.359528
-0.351469
-0.342573
-0.332797
-0.32219
-0.310888
-0.299091
-0.287025
-0.274909
-0.262927
-0.251222
-0.239895
-0.228955
-0.218721
-0.345177
-0.334677
-0.323326
-0.311301
-0.298836
-0.286178
-0.273555
-0.261149
-0.249094
-0.23748
-0.226316
-0.21587
-0.298371
-0.285132
-0.272015
-0.259199
-0.246808
-0.234917
-0.223539
-0.212887
-0.257069
-0.244357
-0.232201
-0.220618
-0.209766
-0.206502
-0.215647
-0.266125
-0.253445
-0.241334
-0.229806
-0.219017
-0.320567
-0.307413
-0.294168
-0.281066
-0.268285
-0.255945
-0.244118
-0.232814
-0.222243
-0.354298
-0.343756
-0.332369
-0.32032
-0.307848
-0.295204
-0.282614
-0.270261
-0.258277
-0.246746
-0.235676
-0.225333
-0.375993
-0.368617
-0.360523
-0.351595
-0.34179
-0.331163
-0.319854
-0.308068
-0.296034
-0.28397
-0.272062
-0.260447
-0.249226
-0.2384
-0.228291
-0.384202
-0.378047
-0.371571
-0.364626
-0.357066
-0.348767
-0.339662
-0.329769
-0.319187
-0.308085
-0.296669
-0.285144
-0.273694
-0.262463
-0.251563
-0.240992
-0.231125
-0.396913
-0.390164
-0.384838
-0.379233
-0.373337
-0.367175
-0.360627
-0.353558
-0.345844
-0.337399
-0.328209
-0.318336
-0.307914
-0.297119
-0.286144
-0.275166
-0.264332
-0.253766
-0.24346
-0.233841
-0.391226
-0.384831
-0.379728
-0.374347
-0.368699
-0.362831
-0.356646
-0.350028
-0.342854
-0.335027
-0.326506
-0.317321
-0.307568
-0.297396
-0.286978
-0.276485
-0.26606
-0.255841
-0.245808
-0.236446
-0.385639
-0.379597
-0.374721
-0.369561
-0.364152
-0.358558
-0.352708
-0.346501
-0.339823
-0.332571
-0.324683
-0.316159
-0.307062
-0.29751
-0.287656
-0.277657
-0.267655
-0.257794
-0.248045
-0.238947
-0.380168
-0.374478
-0.369829
-0.36489
-0.359711
-0.354375
-0.348832
-0.343
-0.336776
-0.330056
-0.322762
-0.314869
-0.30641
-0.297473
-0.288185
-0.27869
-0.269122
-0.259631
-0.250176
-0.241352
-0.374829
-0.369487
-0.365066
-0.360345
-0.35539
-0.350298
-0.345037
-0.339548
-0.333738
-0.327505
-0.320766
-0.313472
-0.305628
-0.297295
-0.288573
-0.27959
-0.270467
-0.26136
-0.252208
-0.243669
-0.369633
-0.364635
-0.360441
-0.355936
-0.3512
-0.346338
-0.34134
-0.336162
-0.330728
-0.324942
-0.318716
-0.311985
-0.304732
-0.296989
-0.28883
-0.280364
-0.271697
-0.262985
-0.254147
-0.245907
-0.364591
-0.359931
-0.355962
-0.351672
-0.34715
-0.342508
-0.337753
-0.33286
-0.327767
-0.322387
-0.316632
-0.310428
-0.303738
-0.296567
-0.288964
-0.281018
-0.272816
-0.264513
-0.255999
-0.248076
-0.359712
-0.355381
-0.351636
-0.347559
-0.343245
-0.338813
-0.334287
-0.329654
-0.32487
-0.319859
-0.314535
-0.30882
-0.302661
-0.296041
-0.288985
-0.281559
-0.273829
-0.26595
-0.25777
-0.250186
-0.355002
-0.350991
-0.347466
-0.343599
-0.33949
-0.335262
-0.33095
-0.326557
-0.322053
-0.317375
-0.312444
-0.307179
-0.301517
-0.295423
-0.288901
-0.281992
-0.274742
-0.267299
-0.259466
-0.25225
-0.350465
-0.346765
-0.343457
-0.339797
-0.335888
-0.331857
-0.327747
-0.323576
-0.319327
-0.314949
-0.310374
-0.305521
-0.300322
-0.294728
-0.288722
-0.282325
-0.275559
-0.268567
-0.261091
-0.254281
-0.346106
-0.342705
-0.339609
-0.336152
-0.332441
-0.3286
-0.324683
-0.320719
-0.316701
-0.312595
-0.308341
-0.303863
-0.299091
-0.293967
-0.288457
-0.282564
-0.276284
-0.269758
-0.26265
-0.256294
-0.341927
-0.338813
-0.335923
-0.332666
-0.329148
-0.325492
-0.32176
-0.317988
-0.314184
-0.310324
-0.306358
-0.30222
-0.29784
-0.293154
-0.288117
-0.282715
-0.276921
-0.270876
-0.264146
-0.258304
-0.337928
-0.335089
-0.332398
-0.329336
-0.326007
-0.322533
-0.318978
-0.315389
-0.311781
-0.308143
-0.304437
-0.300605
-0.296581
-0.292301
-0.28771
-0.282785
-0.277472
-0.271924
-0.265583
-0.260327
-0.334109
-0.331531
-0.329034
-0.326162
-0.323017
-0.319719
-0.316336
-0.31292
-0.309495
-0.306059
-0.302587
-0.29903
-0.295329
-0.29142
-0.287247
-0.28278
-0.277942
-0.272904
-0.266962
-0.262382
-0.330469
-0.328138
-0.325827
-0.32314
-0.320175
-0.317049
-0.313832
-0.310581
-0.307327
-0.304077
-0.300816
-0.297506
-0.294094
-0.290524
-0.286738
-0.282705
-0.278331
-0.273817
-0.268282
-0.264486
-0.327005
-0.324907
-0.322775
-0.320266
-0.317477
-0.314519
-0.311464
-0.308371
-0.305278
-0.3022
-0.29913
-0.29604
-0.292887
-0.289622
-0.286191
-0.282567
-0.278642
-0.274662
-0.269539
-0.266652
-0.323714
-0.321836
-0.319874
-0.317537
-0.314918
-0.312124
-0.309226
-0.306286
-0.303346
-0.300428
-0.297532
-0.29464
-0.291718
-0.288726
-0.285616
-0.282371
-0.278874
-0.275436
-0.270727
-0.268894
-0.320593
-0.318919
-0.317119
-0.314948
-0.312495
-0.309859
-0.307115
-0.304323
-0.30153
-0.298761
-0.296025
-0.293311
-0.290594
-0.287843
-0.285021
-0.282123
-0.279027
-0.276132
-0.271838
-0.271216
-0.317636
-0.316153
-0.314507
-0.312494
-0.310201
-0.30772
-0.305126
-0.302478
-0.299826
-0.297199
-0.29461
-0.292056
-0.289521
-0.286983
-0.284414
-0.281827
-0.279101
-0.27674
-0.272855
-0.273617
-0.31484
-0.313533
-0.312032
-0.310171
-0.308031
-0.305701
-0.303252
-0.300745
-0.298229
-0.295737
-0.293286
-0.290878
-0.288505
-0.286152
-0.283802
-0.281488
-0.279092
-0.277248
-0.273761
-0.312198
-0.311054
-0.309689
-0.307973
-0.305981
-0.303797
-0.30149
-0.29912
-0.296736
-0.294373
-0.292052
-0.289778
-0.287549
-0.285356
-0.283193
-0.28111
-0.279
-0.277637
-0.309704
-0.308709
-0.307473
-0.305894
-0.304044
-0.302001
-0.299832
-0.297596
-0.295341
-0.293103
-0.290905
-0.288755
-0.286654
-0.2846
-0.282592
-0.280698
-0.278822
-0.307353
-0.306494
-0.305377
-0.303928
-0.302214
-0.300308
-0.298273
-0.296167
-0.294038
-0.291922
-0.289841
-0.287807
-0.285823
-0.283888
-0.282007
-0.280256
-0.278556
-0.305136
-0.304401
-0.303396
-0.302071
-0.300486
-0.298711
-0.296806
-0.294828
-0.292822
-0.290824
-0.288856
-0.286932
-0.285053
-0.283221
-0.281441
-0.279792
-0.303049
-0.302425
-0.301525
-0.300315
-0.298854
-0.297205
-0.295427
-0.293572
-0.291686
-0.289802
-0.287945
-0.286125
-0.284345
-0.282602
-0.2809
-0.301082
-0.30056
-0.299756
-0.298655
-0.297311
-0.295784
-0.294127
-0.292393
-0.290623
-0.288852
-0.287102
-0.285382
-0.283694
-0.28203
-0.280388
-0.29923
-0.298799
-0.298083
-0.297085
-0.295853
-0.294441
-0.292902
-0.291284
-0.289628
-0.287967
-0.286321
-0.284698
-0.283097
-0.281505
-0.297485
-0.297135
-0.296502
-0.2956
-0.294473
-0.293172
-0.291745
-0.29024
-0.288695
-0.28714
-0.285595
-0.284066
-0.282549
-0.295839
-0.295562
-0.295005
-0.294193
-0.293165
-0.29197
-0.290652
-0.289255
-0.287816
-0.286365
-0.284918
-0.283481
-0.282045
-0.294287
-0.294074
-0.293587
-0.292858
-0.291925
-0.29083
-0.289615
-0.288322
-0.286987
-0.285635
-0.284284
-0.282936
-0.29282
-0.292665
-0.292243
-0.291592
-0.290747
-0.289746
-0.28863
-0.287438
-0.286201
-0.284946
-0.283687
-0.282425
-0.291432
-0.291329
-0.290965
-0.290388
-0.289626
-0.288715
-0.287693
-0.286596
-0.285454
-0.284292
-0.283121
-0.290116
-0.29006
-0.289751
-0.289241
-0.288557
-0.287731
-0.286798
-0.285792
-0.284741
-0.283667
-0.282582
-0.288867
-0.288852
-0.288593
-0.288146
-0.287536
-0.28679
-0.285942
-0.285022
-0.284058
-0.283069
-0.287678
-0.2877
-0.287488
-0.2871
-0.286558
-0.285888
-0.285119
-0.284282
-0.2834
-0.282492
-0.286544
-0.286601
-0.286431
-0.286098
-0.285621
-0.285021
-0.284328
-0.283569
-0.282765
-0.285459
-0.285547
-0.285418
-0.285136
-0.284719
-0.284186
-0.283565
-0.282879
-0.282151
-0.28442
-0.284537
-0.284444
-0.28421
-0.28385
-0.28338
-0.282826
-0.282211
-0.281554
-0.28342
-0.283565
-0.283507
-0.283318
-0.28301
-0.2826
-0.28211
-0.281562
-0.282457
-0.282627
-0.282602
-0.282455
-0.282197
-0.281844
-0.281414
-0.280929
-0.281526
-0.281722
-0.281727
-0.28162
-0.281409
-0.281109
-0.280736
-0.280311
-0.280624
-0.280845
-0.28088
-0.280809
-0.280643
-0.280393
-0.280075
-0.279749
-0.279994
-0.280056
-0.280022
-0.279898
-0.279694
-0.279428
-0.278897
-0.279166
-0.279256
-0.279255
-0.279171
-0.279012
-0.278794
-0.278066
-0.27836
-0.278476
-0.278507
-0.278461
-0.278344
-0.277254
-0.277574
-0.277715
-0.277777
-0.277767
-0.27769
-0.276461
-0.276806
-0.276972
-0.277063
-0.277087
-0.277049
-0.275683
-0.276055
-0.276245
-0.276365
-0.276422
-0.27642
-0.274922
-0.275321
-0.275535
-0.275683
-0.27577
-0.274176
-0.274603
-0.27484
-0.275014
-0.275131
-0.273444
-0.2739
-0.274161
-0.27436
-0.274506
-0.272727
-0.273213
-0.273497
-0.273721
-0.273893
-0.272025
-0.272542
-0.272848
-0.273096
-0.271339
-0.271887
-0.272216
-0.272487
-0.27067
-0.271249
-0.2716
-0.271893
-0.270018
-0.270629
-0.271001
-0.271315
-0.269385
-0.270027
-0.27042
-0.270755
-0.268772
-0.269446
-0.26986
-0.270214
-0.268181
-0.268886
-0.269319
-0.269692
-0.267612
-0.268348
-0.268801
-0.269191
-0.267069
-0.267835
-0.268306
-0.266553
-0.267347
-0.267835
-0.266065
-0.266887
-0.267391
-0.265607
-0.266455
-0.266975
-0.265181
-0.266054
-0.266587
-0.264789
-0.265684
-0.26623
-0.264432
-0.265348
-0.265906
-0.264111
-0.265046
-0.265614
-0.192617
-0.19597
-0.199197
-0.202303
-0.205291
-0.208165
-0.210927
-0.213582
-0.216131
-0.218576
-0.22092
-0.223165
-0.225313
-0.227365
-0.229325
-0.231195
-0.232981
-0.234688
-0.236326
-0.237906
-0.239443
-0.240958
-0.242477
-0.244032
-0.177591
-0.18095
-0.184211
-0.187378
-0.190454
-0.193443
-0.196346
-0.199169
-0.201914
-0.204586
-0.207188
-0.209727
-0.212206
-0.214633
-0.217014
-0.219357
-0.221674
-0.223975
-0.226275
-0.228589
-0.230936
-0.233337
-0.235813
-0.238391
-0.164059
-0.16738
-0.170625
-0.173796
-0.176898
-0.179932
-0.182901
-0.185809
-0.188658
-0.191453
-0.194195
-0.196891
-0.199542
-0.202155
-0.204732
-0.207279
-0.209801
-0.212303
-0.21479
-0.217267
-0.21974
-0.222213
-0.224693
-0.227186
-0.151956
-0.155194
-0.158373
-0.161495
-0.164561
-0.167573
-0.170534
-0.173446
-0.176309
-0.179128
-0.181903
-0.184637
-0.187332
-0.18999
-0.192614
-0.195205
-0.197767
-0.200302
-0.202814
-0.205307
-0.207786
-0.210256
-0.212726
-0.215205
-0.141044
-0.144176
-0.147261
-0.1503
-0.153296
-0.156249
-0.159162
-0.162035
-0.16487
-0.167669
-0.170434
-0.173165
-0.175866
-0.178537
-0.181181
-0.183801
-0.186397
-0.188974
-0.191533
-0.194079
-0.196614
-0.199143
-0.201669
-0.204196
-0.1312
-0.134208
-0.13718
-0.140116
-0.143018
-0.145887
-0.148724
-0.15153
-0.154306
-0.157053
-0.159774
-0.162469
-0.165139
-0.167785
-0.17041
-0.173013
-0.175598
-0.178164
-0.180714
-0.183248
-0.185769
-0.188277
-0.190774
-0.193263
-0.122288
-0.125165
-0.128012
-0.130832
-0.133625
-0.136392
-0.139133
-0.141851
-0.144545
-0.147217
-0.149867
-0.152497
-0.155107
-0.157698
-0.16027
-0.162826
-0.165365
-0.167889
-0.170398
-0.172893
-0.175376
-0.177848
-0.18031
-0.182763
-0.114211
-0.116949
-0.119666
-0.122361
-0.125035
-0.127689
-0.130323
-0.132939
-0.135537
-0.138117
-0.140681
-0.143229
-0.145762
-0.14828
-0.150783
-0.153274
-0.155752
-0.158218
-0.160672
-0.163116
-0.16555
-0.167974
-0.170389
-0.172796
-0.10687
-0.109471
-0.112054
-0.114621
-0.117171
-0.119707
-0.122227
-0.124733
-0.127226
-0.129705
-0.132172
-0.134627
-0.13707
-0.139502
-0.141924
-0.144336
-0.146738
-0.149131
-0.151516
-0.153892
-0.15626
-0.158621
-0.160975
-0.163322
-0.10019
-0.102654
-0.105104
-0.107541
-0.109967
-0.112381
-0.114783
-0.117175
-0.119557
-0.12193
-0.124293
-0.126647
-0.128993
-0.131331
-0.133662
-0.135985
-0.138302
-0.140612
-0.142916
-0.145215
-0.147508
-0.149796
-0.152079
-0.154358
-0.0940989
-0.0964281
-0.0987474
-0.101057
-0.103358
-0.10565
-0.107935
-0.110211
-0.112481
-0.114743
-0.116999
-0.119249
-0.121493
-0.123732
-0.125965
-0.128194
-0.130419
-0.13264
-0.134856
-0.13707
-0.13928
-0.141487
-0.143692
-0.145894
-0.0885344
-0.0907337
-0.0929256
-0.0951107
-0.0972893
-0.0994619
-0.101629
-0.10379
-0.105947
-0.108098
-0.110246
-0.11239
-0.114529
-0.116666
-0.1188
-0.120931
-0.123059
-0.125186
-0.127311
-0.129434
-0.131555
-0.133676
-0.135795
-0.137914
-0.0834429
-0.085517
-0.0875859
-0.0896501
-0.0917097
-0.0937651
-0.0958168
-0.0978649
-0.0999099
-0.101952
-0.103992
-0.106029
-0.108064
-0.110098
-0.112131
-0.114162
-0.116192
-0.118222
-0.120252
-0.122281
-0.124311
-0.126341
-0.128372
-0.130403
-0.0787743
-0.0807288
-0.0826798
-0.0846275
-0.0865722
-0.0885143
-0.0904541
-0.0923919
-0.0943279
-0.0962624
-0.0981958
-0.100128
-0.10206
-0.103992
-0.105923
-0.107854
-0.109786
-0.111719
-0.113652
-0.115587
-0.117522
-0.11946
-0.121399
-0.12334
-0.0744862
-0.0763266
-0.0781648
-0.080001
-0.0818354
-0.0836685
-0.0855003
-0.0873312
-0.0891614
-0.0909913
-0.092821
-0.0946509
-0.0964811
-0.098312
-0.100144
-0.101976
-0.10381
-0.105646
-0.107483
-0.109323
-0.111164
-0.113008
-0.114854
-0.116703
-0.0705407
-0.0722727
-0.0740034
-0.0757331
-0.077462
-0.0791904
-0.0809185
-0.0826465
-0.0843747
-0.0861033
-0.0878326
-0.0895628
-0.0912941
-0.0930268
-0.0947609
-0.0964969
-0.0982348
-0.0999749
-0.101717
-0.103463
-0.10521
-0.106961
-0.108715
-0.110472
-0.0669027
-0.0685319
-0.0701606
-0.071789
-0.0734174
-0.0750459
-0.0766747
-0.0783042
-0.0799344
-0.0815657
-0.0831982
-0.0848322
-0.0864678
-0.0881052
-0.0897447
-0.0913864
-0.0930306
-0.0946775
-0.0963271
-0.0979798
-0.0996356
-0.101295
-0.102958
-0.104624
-0.0635423
-0.0650742
-0.0666062
-0.0681385
-0.0696712
-0.0712046
-0.0727388
-0.0742741
-0.0758106
-0.0773486
-0.0788882
-0.0804297
-0.0819731
-0.0835187
-0.0850668
-0.0866174
-0.0881707
-0.089727
-0.0912863
-0.0928489
-0.094415
-0.0959846
-0.097558
-0.0991352
-0.0618723
-0.0633128
-0.0647539
-0.0661959
-0.0676389
-0.0690831
-0.0705287
-0.0719758
-0.0734246
-0.0748754
-0.0763282
-0.0777833
-0.0792407
-0.0807008
-0.0821636
-0.0836293
-0.0850981
-0.0865701
-0.0880455
-0.0895245
-0.0910071
-0.0924936
-0.093984
-0.0589025
-0.0602564
-0.0616112
-0.0629671
-0.0643244
-0.065683
-0.0670433
-0.0684052
-0.0697691
-0.0711351
-0.0725033
-0.0738738
-0.0752469
-0.0766226
-0.0780012
-0.0793827
-0.0807674
-0.0821553
-0.0835466
-0.0849415
-0.0863401
-0.0877425
-0.0891488
-0.0561422
-0.0574143
-0.0586876
-0.0599621
-0.0612381
-0.0625156
-0.0637949
-0.065076
-0.0663591
-0.0676444
-0.0689319
-0.0702218
-0.0715143
-0.0728095
-0.0741075
-0.0754084
-0.0767125
-0.0780197
-0.0793303
-0.0806444
-0.0819621
-0.0832834
-0.0846087
-0.0535728
-0.0547677
-0.0559639
-0.0571614
-0.0583605
-0.0595613
-0.0607637
-0.0619681
-0.0631745
-0.0643831
-0.0655939
-0.0668071
-0.0680228
-0.0692411
-0.0704622
-0.0716861
-0.0729131
-0.0741432
-0.0753765
-0.0766131
-0.0778532
-0.0790969
-0.0803442
-0.0815953
-0.0511762
-0.0522983
-0.0534217
-0.0545466
-0.055673
-0.0568011
-0.0579309
-0.0590626
-0.0601962
-0.061332
-0.06247
-0.0636103
-0.064753
-0.0658982
-0.0670461
-0.0681967
-0.0693502
-0.0705066
-0.0716661
-0.0728288
-0.0739947
-0.075164
-0.0763367
-0.077513
-0.0489381
-0.0499915
-0.0510463
-0.0521024
-0.0531601
-0.0542194
-0.0552804
-0.0563433
-0.057408
-0.0584748
-0.0595437
-0.0606148
-0.0616881
-0.0627639
-0.0638422
-0.064923
-0.0660065
-0.0670928
-0.068182
-0.0692741
-0.0703693
-0.0714676
-0.0725691
-0.0736739
-0.0468441
-0.0478327
-0.0488226
-0.0498139
-0.0508067
-0.0518011
-0.0527971
-0.0537948
-0.0547943
-0.0557958
-0.0567992
-0.0578047
-0.0588123
-0.0598222
-0.0608344
-0.061849
-0.0628661
-0.0638857
-0.064908
-0.065933
-0.0669609
-0.0679916
-0.0690252
-0.0700619
-0.0448822
-0.0458098
-0.0467386
-0.0476687
-0.0486002
-0.0495332
-0.0504678
-0.051404
-0.0523418
-0.0532815
-0.0542229
-0.0551663
-0.0561117
-0.0570591
-0.0580087
-0.0589604
-0.0599145
-0.0608708
-0.0618296
-0.0627909
-0.0637547
-0.0647212
-0.0656903
-0.0666622
-0.0430418
-0.0439117
-0.0447829
-0.0456553
-0.046529
-0.047404
-0.0482806
-0.0491586
-0.0500381
-0.0509193
-0.0518022
-0.0526868
-0.0535733
-0.0544616
-0.0553518
-0.056244
-0.0571383
-0.0580347
-0.0589333
-0.0598342
-0.0607373
-0.0616428
-0.0625506
-0.063461
-0.0413121
-0.0421279
-0.0429448
-0.0437628
-0.0445821
-0.0454026
-0.0462244
-0.0470475
-0.0478721
-0.0486981
-0.0495256
-0.0503547
-0.0511855
-0.0520179
-0.052852
-0.0536879
-0.0545257
-0.0553654
-0.0562069
-0.0570505
-0.0578962
-0.0587439
-0.0595937
-0.0604458
-0.0396862
-0.0404508
-0.0412165
-0.0419832
-0.042751
-0.0435199
-0.0442901
-0.0450614
-0.045834
-0.0466079
-0.0473831
-0.0481598
-0.0489379
-0.0497175
-0.0504986
-0.0512813
-0.0520656
-0.0528516
-0.0536393
-0.0544287
-0.0552199
-0.056013
-0.0568079
-0.0576048
-0.0381559
-0.0388724
-0.0395898
-0.0403081
-0.0410274
-0.0417478
-0.0424691
-0.0431916
-0.0439152
-0.0446399
-0.0453658
-0.046093
-0.0468214
-0.0475511
-0.0482821
-0.0490145
-0.0497484
-0.0504836
-0.0512204
-0.0519587
-0.0526985
-0.0534399
-0.0541829
-0.0549276
-0.0367139
-0.0373851
-0.038057
-0.0387298
-0.0394035
-0.040078
-0.0407535
-0.0414299
-0.0421073
-0.0427856
-0.043465
-0.0441455
-0.044827
-0.0455097
-0.0461935
-0.0468785
-0.0475647
-0.0482521
-0.0489409
-0.0496308
-0.0503222
-0.0510148
-0.0517089
-0.0524043
-0.035355
-0.0359835
-0.0366126
-0.0372425
-0.0378732
-0.0385046
-0.0391368
-0.0397697
-0.0404036
-0.0410382
-0.0416738
-0.0423102
-0.0429476
-0.0435859
-0.0442252
-0.0448655
-0.0455068
-0.0461491
-0.0467925
-0.047437
-0.0480826
-0.0487293
-0.0493772
-0.0500262
-0.0340733
-0.0346616
-0.0352505
-0.03584
-0.0364301
-0.0370209
-0.0376124
-0.0382045
-0.0387973
-0.0393909
-0.0399852
-0.0405802
-0.0411759
-0.0417725
-0.0423699
-0.0429681
-0.0435671
-0.0441669
-0.0447677
-0.0453693
-0.0459718
-0.0465753
-0.0471796
-0.047785
-0.0328643
-0.0334149
-0.0339659
-0.0345174
-0.0350695
-0.0356221
-0.0361752
-0.0367289
-0.0372831
-0.0378379
-0.0383934
-0.0389494
-0.039506
-0.0400633
-0.0406212
-0.0411798
-0.041739
-0.0422989
-0.0428595
-0.0434208
-0.0439828
-0.0445456
-0.0451091
-0.0456733
-0.0317238
-0.0322388
-0.0327542
-0.03327
-0.0337863
-0.0343029
-0.03482
-0.0353376
-0.0358555
-0.036374
-0.0368929
-0.0374122
-0.0379321
-0.0384524
-0.0389732
-0.0394945
-0.0400164
-0.0405387
-0.0410616
-0.0415851
-0.042109
-0.0426335
-0.0431586
-0.0436842
-0.0306482
-0.0311298
-0.0316117
-0.032094
-0.0325766
-0.0330595
-0.0335427
-0.0340262
-0.0345101
-0.0349944
-0.0354789
-0.0359638
-0.0364491
-0.0369348
-0.0374207
-0.0379071
-0.0383938
-0.0388809
-0.0393684
-0.0398563
-0.0403445
-0.0408332
-0.0413222
-0.0418116
-0.0296339
-0.0300842
-0.0305347
-0.0309854
-0.0314364
-0.0318876
-0.032339
-0.0327907
-0.0332426
-0.0336947
-0.0341471
-0.0345997
-0.0350525
-0.0355056
-0.0359589
-0.0364125
-0.0368663
-0.0373203
-0.0377746
-0.0382291
-0.0386839
-0.0391389
-0.0395942
-0.0400497
-0.0286782
-0.029099
-0.02952
-0.0299412
-0.0303625
-0.030784
-0.0312056
-0.0316273
-0.0320492
-0.0324712
-0.0328934
-0.0333157
-0.0337381
-0.0341607
-0.0345834
-0.0350062
-0.0354291
-0.0358522
-0.0362754
-0.0366987
-0.0371221
-0.0375456
-0.0379693
-0.038393
-0.0277782
-0.0281715
-0.0285648
-0.0289583
-0.0293518
-0.0297454
-0.030139
-0.0305328
-0.0309265
-0.0313204
-0.0317142
-0.0321081
-0.0325021
-0.0328961
-0.0332901
-0.0336841
-0.0340782
-0.0344723
-0.0348664
-0.0352605
-0.0356546
-0.0360487
-0.0364428
-0.0368369
-0.0269315
-0.0272989
-0.0276664
-0.0280339
-0.0284014
-0.0287689
-0.0291364
-0.0295039
-0.0298714
-0.0302388
-0.0306062
-0.0309736
-0.0313409
-0.0317082
-0.0320754
-0.0324425
-0.0328096
-0.0331766
-0.0335435
-0.0339104
-0.0342771
-0.0346437
-0.0350102
-0.0353767
-0.026136
-0.0264793
-0.0268226
-0.0271658
-0.027509
-0.0278521
-0.0281951