/*--------------------------------*- C++ -*----------------------------------*\
  =========                 |
  \\      /  F ield         | OpenFOAM: The Open Source CFD Toolbox
   \\    /   O peration     | Website:  https://openfoam.org
    \\  /    A nd           | Version:  7
     \\/     M anipulation  |
\*---------------------------------------------------------------------------*/
FoamFile
{
    version     2.0;
    format      ascii;
    class       volVectorField;
    location    "60";
    object      U;
}
// * * * * * * * * * * * * * * * * * * * * * * * * * * * * * * * * * * * * * //

dimensions      [0 1 -1 0 0 0 0];

internalField   nonuniform List<vector> 
4575
(
(-0.000190542 -0.00269684 -7.09776e-22)
(-0.00141912 -0.00714564 -3.70454e-21)
(-0.00403332 -0.0108602 4.48582e-22)
(-0.000154848 -0.00224566 -3.46342e-21)
(-0.00133845 -0.00595632 2.81417e-21)
(-0.00393727 -0.00907568 -3.26601e-21)
(-0.000136713 -0.00178742 -2.67921e-20)
(-0.00130212 -0.00475006 3.38232e-21)
(-0.00390378 -0.00726795 5.13454e-21)
(-0.000136445 -0.00132378 4.38095e-20)
(-0.00131085 -0.00353109 -1.90471e-20)
(-0.00393375 -0.00544314 -1.31204e-20)
(-0.000154259 -0.000856415 -5.86487e-21)
(-0.00136511 -0.00230365 7.52002e-20)
(-0.0040278 -0.00360749 3.48554e-20)
(-0.000190271 -0.000386992 -2.85486e-20)
(-0.00146515 -0.00107202 1.76655e-20)
(-0.00418624 -0.00176723 -2.85634e-20)
(-0.000244504 8.28325e-05 3.4608e-20)
(-0.001611 0.000159582 -4.23802e-20)
(-0.00440906 7.14344e-05 -6.42039e-20)
(-0.000316887 0.000551434 5.75356e-21)
(-0.00180247 0.00138698 -2.05906e-20)
(-0.00469595 0.0019024 5.79103e-20)
(-0.000407259 0.00101723 -1.6173e-20)
(-0.00203911 0.00260609 1.13244e-19)
(-0.00504628 0.00371966 -2.4914e-20)
(-0.00891071 0.00445392 -2.95513e-20)
(-0.000515373 0.00147868 -5.01139e-20)
(-0.00232029 0.00381296 6.59422e-20)
(-0.00545908 0.00551739 3.68333e-20)
(-0.00941659 0.00670816 1.65747e-20)
(-0.000640898 0.00193433 9.09399e-20)
(-0.00264512 0.00500374 -5.07603e-20)
(-0.00593307 0.00728989 1.69719e-20)
(-0.00999391 0.00892884 6.36507e-20)
(-0.000783426 0.00238275 7.59968e-20)
(-0.00301253 0.00617472 -9.30918e-20)
(-0.00646659 0.00903169 -9.64626e-20)
(-0.0106406 0.0111091 -4.56765e-20)
(-0.000942473 0.00282259 -9.46964e-20)
(-0.00342121 0.00732236 -8.87375e-20)
(-0.0070577 0.0107375 3.6605e-20)
(-0.011354 0.0132423 9.0682e-20)
(-0.00111749 0.00325258 3.95426e-20)
(-0.00386967 0.00844322 5.93355e-20)
(-0.00770407 0.0124022 7.14025e-20)
(-0.0121311 0.015322 -1.19817e-19)
(-0.00130785 0.00367149 -2.28345e-20)
(-0.00435619 0.00953405 2.78716e-20)
(-0.00840305 0.0140208 -5.97417e-20)
(-0.0129683 0.0173421 -8.83246e-20)
(-0.00151286 0.00407817 8.38282e-20)
(-0.00487885 0.0105917 -8.36092e-20)
(-0.00915159 0.0155888 6.72593e-20)
(-0.0138615 0.0192967 1.06851e-19)
(-0.00173177 0.00447152 -3.65282e-20)
(-0.00543552 0.0116132 -2.48137e-20)
(-0.00994631 0.0171015 6.92117e-20)
(-0.0148062 0.0211801 -9.55426e-20)
(-0.0198408 0.024 -5.36372e-20)
(-0.00196377 0.00485048 -8.45033e-20)
(-0.00602386 0.0125957 1.18807e-19)
(-0.0107834 0.0185545 1.63564e-21)
(-0.0157969 0.0229866 -1.09805e-21)
(-0.0208961 0.0260555 1.20289e-19)
(-0.00220795 0.00521404 2.72974e-20)
(-0.00664131 0.0135363 -8.45316e-20)
(-0.0116587 0.0199438 8.08145e-20)
(-0.016828 0.0247111 -1.19631e-19)
(-0.0219872 0.0280142 1.4695e-19)
(-0.00246337 0.00556124 1.06434e-20)
(-0.00728508 0.0144324 -4.40101e-20)
(-0.0125676 0.021265 1.41461e-19)
(-0.0178929 0.0263483 -1.81057e-19)
(-0.0231057 0.02987 -1.48265e-19)
(-0.00272901 0.00589114 -7.3774e-20)
(-0.00795217 0.0152813 -1.31737e-19)
(-0.013505 0.0225144 -7.53262e-20)
(-0.0189846 0.0278931 9.85988e-20)
(-0.0242424 0.0316171 -5.70256e-21)
(-0.0291424 0.033882 1.99835e-20)
(-0.00300377 0.00620282 6.79651e-20)
(-0.00863933 0.0160806 1.72035e-19)
(-0.0144657 0.0236879 -1.2952e-19)
(-0.0200952 0.0293405 -6.20422e-20)
(-0.0253868 0.0332499 5.13336e-20)
(-0.0302117 0.0356229 -1.22692e-19)
(-0.00328648 0.00649543 -7.45054e-20)
(-0.00934311 0.0168278 -8.55183e-21)
(-0.0154436 0.0247818 1.83458e-19)
(-0.0212165 0.0306857 1.80011e-19)
(-0.0265279 0.0347627 -3.64775e-20)
(-0.0312564 0.0372306 -2.28603e-20)
(-0.00357592 0.0067681 4.76082e-20)
(-0.0100598 0.0175205 9.6921e-20)
(-0.0164326 0.0257923 -6.68203e-20)
(-0.0223393 0.031924 -8.22336e-20)
(-0.0276534 0.03615 -8.43401e-20)
(-0.0322609 0.0386992 -2.25832e-20)
(-0.00387079 0.00702003 -6.53516e-20)
(-0.0107855 0.0181564 -2.10725e-19)
(-0.0174259 0.0267159 6.62092e-20)
(-0.0234539 0.0330505 3.64379e-21)
(-0.0287501 0.0374061 2.76029e-19)
(-0.0332082 0.0400227 -1.62947e-19)
(-0.0367293 0.0411292 -1.38234e-19)
(-0.0041697 0.00725044 -6.25403e-20)
(-0.011516 0.0187332 2.48906e-19)
(-0.0184163 0.0275491 -1.88101e-19)
(-0.0245498 0.0340607 -3.80654e-20)
(-0.029804 0.0385257 -6.35046e-20)
(-0.0340799 0.041195 -1.63191e-19)
(-0.0372854 0.0423077 1.60885e-19)
(-0.00447125 0.00745862 8.8689e-20)
(-0.0122469 0.0192488 -1.09286e-19)
(-0.0193964 0.0282883 -1.3543e-19)
(-0.0256159 0.0349501 -1.26763e-19)
(-0.0308 0.0395033 4.17543e-20)
(-0.0348564 0.0422103 2.32667e-20)
(-0.0376995 0.04332 5.73803e-20)
(-0.00477392 0.00764389 -1.87371e-19)
(-0.0129737 0.0197012 1.46893e-19)
(-0.0203581 0.0289304 1.63406e-19)
(-0.0266406 0.0357142 -9.39886e-20)
(-0.0317219 0.0403337 1.58957e-19)
(-0.0355165 0.0430626 1.51833e-19)
(-0.0379446 0.04416 -2.72128e-20)
(-0.0389357 0.0438624 -1.507e-19)
(-0.00507619 0.00780565 -1.47915e-19)
(-0.0136915 0.0200886 -1.35188e-19)
(-0.0212931 0.0294724 1.0575e-19)
(-0.0276112 0.036349 6.08879e-20)
(-0.0325528 0.0410118 2.45582e-20)
(-0.036038 0.0437462 -4.45516e-20)
(-0.0379922 0.0448217 -3.11585e-20)
(-0.0383485 0.0444841 7.04308e-20)
(-0.00537647 0.00794336 7.15366e-20)
(-0.0143954 0.0204092 1.399e-19)
(-0.0221924 0.0299112 -2.49383e-19)
(-0.0285147 0.0368505 -1.89019e-19)
(-0.0332744 0.0415329 9.48369e-20)
(-0.0363969 0.0442556 8.83991e-20)
(-0.0378119 0.0452993 -1.81385e-19)
(-0.0374549 0.044919 -1.61475e-20)
(-0.00567312 0.00805658 3.44336e-19)
(-0.01508 0.0206614 -2.36513e-19)
(-0.0230467 0.0302444 5.69224e-20)
(-0.029337 0.037215 1.83463e-19)
(-0.0338676 0.0418924 -1.95742e-19)
(-0.0365681 0.0445858 9.57196e-21)
(-0.0373716 0.0455871 1.4579e-19)
(-0.0362146 0.0451616 2.65307e-19)
(-0.0330297 0.0435468 2.65794e-19)
(-0.00596448 0.00814495 -3.26478e-19)
(-0.0157399 0.0208441 2.35544e-19)
(-0.0238464 0.0304696 5.66675e-20)
(-0.0300637 0.0374395 -1.81835e-19)
(-0.0343121 0.0420864 7.60395e-20)
(-0.0365249 0.0447323 -3.63471e-20)
(-0.0366372 0.0456806 -2.71363e-20)
(-0.0345853 0.0452071 -2.23916e-19)
(-0.0302986 0.0435591 -3.49743e-19)
(-0.00624884 0.00820818 2.61796e-19)
(-0.0163694 0.020956 -6.64196e-20)
(-0.0245812 0.0305848 2.23822e-19)
(-0.030679 0.0375212 5.37286e-20)
(-0.0345863 0.0421116 -1.17209e-19)
(-0.0362389 0.0446914 1.88086e-20)
(-0.0355728 0.0455758 -2.44856e-19)
(-0.0325221 0.0450518 1.10238e-19)
(-0.0270117 0.043377 5.90852e-20)
(-0.0189521 0.0407799 8.83087e-21)
(-0.00652446 0.00824609 -6.68109e-20)
(-0.0169627 0.0209963 -7.15276e-20)
(-0.0252401 0.0305886 -1.40255e-19)
(-0.0311665 0.0374579 1.01711e-19)
(-0.0346675 0.0419655 1.82734e-19)
(-0.0356802 0.0444603 -2.34009e-19)
(-0.03414 0.04527 3.70043e-19)
(-0.0299778 0.0446932 -7.16056e-20)
(-0.0231114 0.0429985 1.039e-20)
(-0.0134418 0.0404252 -2.43162e-19)
(-0.00678953 0.00825858 2.07724e-20)
(-0.0175134 0.0209644 6.93747e-20)
(-0.0258119 0.0304798 8.2665e-20)
(-0.0315089 0.0372483 -6.84058e-20)
(-0.0345315 0.0416465 1.69558e-19)
(-0.0348168 0.0440377 2.24899e-19)
(-0.0322987 0.0447623 3.50628e-21)
(-0.0269026 0.0441311 -2.84557e-19)
(-0.0185376 0.0424243 -2.25134e-19)
(-0.00709322 0.039893 2.33322e-19)
(-0.0070422 0.00824562 -1.24174e-19)
(-0.018015 0.0208598 1.18241e-19)
(-0.0262842 0.0302577 -8.63463e-20)
(-0.0316875 0.0368915 -4.2428e-20)
(-0.0341523 0.0411541 -1.14441e-19)
(-0.0336151 0.0434236 -8.58358e-20)
(-0.0300062 0.0440535 -1.52044e-19)
(-0.023244 0.0433674 2.48678e-19)
(-0.0132274 0.0416576 9.78617e-20)
(0.00016777 0.039188 -2.37729e-19)
(0.0170874 0.0361967 -2.85652e-19)
(-0.00728053 0.00820725 -1.27224e-20)
(-0.0184607 0.0206824 -2.92069e-19)
(-0.0266443 0.0299221 7.04256e-20)
(-0.0316827 0.0363876 1.55026e-19)
(-0.0335027 0.040489 -2.81604e-20)
(-0.0320389 0.0426196 -1.83821e-19)
(-0.0272171 0.0431468 2.00596e-19)
(-0.0189469 0.0424069 2.27358e-19)
(-0.00711499 0.0407054 8.6069e-20)
(0.00841764 0.0383192 4.229e-19)
(0.0278131 0.035501 -1.94594e-19)
(-0.00750245 0.00814353 -7.20515e-20)
(-0.0188429 0.0204323 -2.59514e-20)
(-0.0268783 0.0294735 -2.33502e-19)
(-0.0314732 0.0357377 1.41467e-19)
(-0.0325534 0.0396533 -1.42908e-19)
(-0.0300502 0.0416295 -1.43651e-19)
(-0.0238836 0.0420478 -1.28134e-20)
(-0.0139531 0.041258 -2.29295e-19)
(-0.00013178 0.0395788 -3.60007e-19)
(0.0177352 0.0373008 9.74348e-20)
(0.0398263 0.0346918 1.08011e-19)
(0.0663322 0.0320035 -4.52266e-20)
(-0.00770577 0.00805455 2.25916e-19)
(-0.0191537 0.0201095 -3.5616e-20)
(-0.0269716 0.0289126 2.062e-19)
(-0.0310366 0.0349438 -2.09221e-19)
(-0.0312731 0.0386506 3.05618e-19)
(-0.0276084 0.040459 2.53101e-19)
(-0.0199551 0.0407651 -2.05766e-19)
(-0.00820162 0.0399325 -3.78985e-19)
(0.00779343 0.0382933 6.21544e-19)
(0.028201 0.0361523 1.51866e-19)
(0.053215 0.0337927 -1.17034e-19)
(0.0830374 0.0314829 -1.14393e-19)
(-0.00788815 0.00794041 -3.60953e-19)
(-0.0193847 0.0197147 2.36132e-19)
(-0.0269081 0.0282409 -3.47989e-19)
(-0.0303487 0.0340087 -1.87581e-19)
(-0.0296286 0.037486 6.91744e-20)
(-0.0246704 0.0391162 -2.73464e-19)
(-0.0153784 0.0393104 4.24096e-19)
(-0.0016289 0.0384461 7.26728e-21)
(0.0167342 0.0368696 -2.31116e-19)
(0.039897 0.0348997 -1.99719e-19)
(0.0680662 0.0328345 -3.52716e-19)
(0.10145 0.0309583 -4.24467e-21)
(0.140233 0.0295513 -4.91011e-20)
(-0.00804695 0.00780123 1.2822e-19)
(-0.0195267 0.0192485 -2.36132e-19)
(-0.0266708 0.0274603 3.00422e-19)
(-0.0293837 0.0329365 4.17912e-19)
(-0.0275846 0.0361665 -1.34521e-19)
(-0.0211907 0.0376116 1.73984e-20)
(-0.0100975 0.0376984 -3.57435e-19)
(0.00583117 0.036819 -8.7847e-20)
(0.0267656 0.0353336 -2.71064e-19)
(0.0529051 0.0335751 3.49623e-19)
(0.0844644 0.0318557 3.20511e-19)
(0.121651 0.0304737 -5.63272e-20)
(0.164634 0.0297225 -4.19001e-20)
(-0.0081793 0.00763714 3.38535e-20)
(-0.0195697 0.0187117 4.77629e-20)
(-0.0262415 0.0265732 -1.57258e-19)
(-0.028114 0.0317323 -4.30671e-19)
(-0.0251036 0.0347006 6.90949e-20)
(-0.0171217 0.0359581 2.07036e-19)
(-0.00405442 0.0359474 9.35182e-20)
(0.0142466 0.0350754 3.97013e-19)
(0.0379641 0.0337164 -2.46607e-19)
(0.0673065 0.0322172 -3.17174e-19)
(0.10249 0.0309025 -5.74507e-20)
(0.14371 0.0300821 1.41455e-19)
(0.191103 0.0300571 3.06008e-20)
(0.244702 0.0311288 1.26788e-20)
(-0.00828206 0.00744816 -1.67328e-19)
(-0.0195027 0.0181049 1.10286e-20)
(-0.0256005 0.0255828 -3.08871e-20)
(-0.0265105 0.0304022 3.73551e-19)
(-0.0221463 0.0330986 1.16855e-19)
(-0.0124134 0.0341712 -3.78624e-20)
(0.00281117 0.0340789 1.43659e-19)
(0.0236868 0.0332439 1.25844e-19)
(0.0504056 0.0320545 3.0085e-19)
(0.0831796 0.0308705 3.66209e-20)
(0.122216 0.0300281 -3.55083e-19)
(0.167684 0.0298445 2.01716e-20)
(0.219667 0.0306225 -2.83145e-19)
(0.278114 0.0326539 -2.41473e-20)
(0.342791 0.036228 -1.34393e-19)
(-0.00835167 0.00723428 2.73983e-19)
(-0.0193141 0.0174295 1.9708e-19)
(-0.0247267 0.0244927 1.5506e-19)
(-0.024542 0.0289538 -2.13219e-19)
(-0.0186711 0.0313727 1.43749e-19)
(-0.00701394 0.0322688 -1.36055e-19)
(0.0105608 0.0321178 -2.13365e-19)
(0.0342213 0.0313571 -2.96738e-19)
(0.0641647 0.030389 -1.29339e-19)
(0.100598 0.0295855 2.52386e-19)
(0.143708 0.0292916 2.21728e-19)
(0.193616 0.0298285 3.21808e-19)
(0.250329 0.0314933 2.84807e-19)
(0.313675 0.0345573 -8.60211e-20)
(0.383264 0.039267 -1.17747e-19)
(-0.00838421 0.00699548 -1.67403e-19)
(-0.018991 0.0166866 -4.5046e-19)
(-0.0235977 0.0233071 -1.83646e-19)
(-0.0221759 0.0273955 1.95962e-19)
(-0.014635 0.0295369 5.65186e-20)
(-0.000870022 0.0302715 9.3001e-20)
(0.019257 0.0300921 2.44728e-19)
(0.0459194 0.0294515 -2.44252e-19)
(0.0793129 0.0287656 3.36119e-19)
(0.119629 0.0284169 -3.46231e-20)
(0.167017 0.028757 -4.91124e-19)
(0.22153 0.0301057 -9.22473e-20)
(0.283063 0.0327469 -3.16072e-19)
(0.351291 0.0369209 -2.1677e-19)
(0.425618 0.0428178 2.33486e-19)
(0.505089 0.0505028 1.90071e-19)
(-0.00837532 0.00673176 2.22862e-19)
(-0.0185197 0.0158778 3.5152e-19)
(-0.0221895 0.022031 -1.92123e-20)
(-0.0193778 0.025737 -1.62231e-19)
(-0.00999331 0.027607 -1.79655e-19)
(0.00607264 0.0282024 3.86542e-20)
(0.0289618 0.0280332 -2.89768e-19)
(0.058848 0.0275674 2.7529e-19)
(0.0959165 0.0272338 -1.07668e-19)
(0.14033 0.0274236 -2.34635e-19)
(0.19218 0.0284912 2.93506e-19)
(0.251424 0.0307493 -7.22231e-20)
(0.317813 0.0344603 -1.30445e-19)
(0.390828 0.0398221 2.40894e-19)
(0.469623 0.0469567 -3.67509e-19)
(0.552954 0.0558214 1.85451e-21)
(0.639508 0.0665763 1.47126e-20)
(-0.00832021 0.00644312 -2.48414e-19)
(-0.0178853 0.0150049 -9.82575e-20)
(-0.020477 0.0206701 1.76774e-19)
(-0.0161121 0.0239894 1.46707e-19)
(-0.00470028 0.0256008 1.66781e-19)
(0.0138687 0.0260868 -9.62139e-20)
(0.0397366 0.025975 -8.35876e-20)
(0.0730706 0.0257481 -3.5872e-20)
(0.114035 0.0258462 -3.82533e-19)
(0.162746 0.026667 7.12019e-19)
(0.219215 0.0285626 7.58707e-21)
(0.283271 0.0318318 9.0407e-20)
(0.354488 0.0367058 8.78751e-20)
(0.43211 0.0433287 1.79122e-19)
(0.515006 0.0517429 3.10762e-19)
(0.601617 0.0617943 1.77552e-19)
(0.690269 0.073502 1.90343e-19)
(-0.00821362 0.0061296 6.25371e-20)
(-0.0170721 0.01407 -5.25881e-20)
(-0.0184337 0.0192309 1.32548e-19)
(-0.012342 0.0221652 -2.00577e-19)
(0.00129046 0.0235376 -2.47665e-20)
(0.0225723 0.0239526 9.22e-20)
(0.0516402 0.0239544 1.10994e-19)
(0.0886458 0.0240398 -9.63064e-20)
(0.133718 0.0246582 2.78629e-19)
(0.186908 0.0262098 -2.89913e-19)
(0.248116 0.0290391 1.35223e-19)
(0.317015 0.0334221 -2.58213e-19)
(0.392959 0.0395482 2.63203e-19)
(0.474919 0.0474954 2.2294e-19)
(0.561452 0.0572152 -4.10877e-19)
(0.650671 0.0684399 -3.77698e-19)
(0.740559 0.0810464 -1.38161e-19)
(0.828154 0.0931753 -1.20155e-19)
(-0.00804983 0.00579134 3.94172e-19)
(-0.0160632 0.0130759 -2.27273e-19)
(-0.0160321 0.0177209 -3.22536e-19)
(-0.00802984 0.020278 -1.34931e-19)
(0.00802546 0.0214391 -2.09284e-19)
(0.0322366 0.0218299 -2.46621e-20)
(0.0647281 0.0220108 3.70042e-19)
(0.105625 0.022491 1.88119e-19)
(0.155004 0.0237264 2.96214e-19)
(0.212826 0.0261151 8.21488e-20)
(0.278855 0.0299864 2.28737e-19)
(0.352564 0.0355838 -2.64074e-19)
(0.433055 0.043042 1.10697e-19)
(0.518994 0.0523605 -1.81437e-19)
(0.608607 0.0633895 2.04216e-19)
(0.699686 0.0757469 4.49588e-19)
(0.789915 0.0891694 -3.83408e-20)
(0.87628 0.101852 2.8808e-19)
(0.95841 0.117156 -1.04192e-19)
(-0.00782268 0.00542863 -2.05037e-19)
(-0.014841 0.0120257 1.9781e-21)
(-0.0132436 0.0161483 1.62784e-19)
(-0.00313734 0.0183431 3.26824e-20)
(0.0155508 0.0193285 4.00847e-19)
(0.0429125 0.0197509 -5.22904e-20)
(0.0790512 0.0201856 -3.1596e-19)
(0.124052 0.0211519 -2.35632e-19)
(0.177918 0.0231086 -3.41508e-19)
(0.240494 0.026445 -3.3766e-19)
(0.311372 0.0314665 -4.02844e-19)
(0.389792 0.0383722 4.39621e-19)
(0.474568 0.047229 1.95522e-19)
(0.564037 0.0579448 -2.7328e-20)
(0.656087 0.0702591 -5.56313e-20)
(0.748221 0.0836767 6.68197e-20)
(0.837884 0.0978021 1.93943e-19)
(0.922094 0.110918 1.15768e-19)
(1.00011 0.125776 9.39168e-20)
(1.06231 0.130632 2.94955e-20)
(-0.00752557 0.00504193 -7.1951e-20)
(-0.0133869 0.0109232 4.18053e-20)
(-0.0100391 0.0145229 6.00875e-20)
(0.0023738 0.0163775 1.56946e-19)
(0.0239115 0.0172313 -1.20697e-19)
(0.0546478 0.0177502 3.06902e-20)
(0.0946541 0.0185224 3.24839e-19)
(0.143958 0.0200744 3.59563e-20)
(0.202467 0.0228623 -1.56993e-21)
(0.26988 0.0272593 4.65661e-20)
(0.34558 0.0335358 2.38194e-19)
(0.42854 0.0418334 -3.36483e-19)
(0.517254 0.052137 -3.67711e-19)
(0.609717 0.0642503 -2.01647e-19)
(0.703492 0.0777954 -2.48718e-19)
(0.795836 0.0921684 -2.99831e-19)
(0.884043 0.106855 -4.16255e-20)
(0.96525 0.120248 -1.95279e-19)
(1.03854 0.134559 4.35916e-19)
(1.09638 0.139756 -2.26406e-19)
(-0.00715152 0.00463197 3.6932e-19)
(-0.0116818 0.00977306 -9.04627e-20)
(-0.00638894 0.0128555 -1.29945e-19)
(0.00854151 0.0143998 6.6021e-20)
(0.0331509 0.0151748 3.22469e-20)
(0.0674863 0.0158641 -9.3428e-20)
(0.111574 0.0170664 -2.73898e-20)
(0.165364 0.0193108 -5.55674e-20)
(0.228643 0.0230442 1.65477e-19)
(0.300929 0.0286141 4.06728e-19)
(0.381362 0.0362437 1.30115e-19)
(0.468613 0.0460024 3.90613e-19)
(0.560835 0.0577784 1.61643e-19)
(0.655677 0.0712607 2.25938e-19)
(0.750411 0.0859505 2.61166e-19)
(0.842109 0.101143 -2.61122e-20)
(0.928013 0.116225 -6.9007e-20)
(1.00547 0.129716 4.34057e-22)
(1.07357 0.143371 4.94025e-20)
(1.12662 0.148728 1.19544e-19)
(-0.0066932 0.00419977 -1.66407e-19)
(-0.00970602 0.00858091 2.47232e-20)
(-0.00226347 0.0111584 -1.80734e-19)
(0.0154029 0.0124304 -2.52606e-19)
(0.0433095 0.0131883 -1.07513e-19)
(0.0814665 0.0141311 -1.14549e-20)
(0.129839 0.0158642 1.43847e-19)
(0.188277 0.0189136 -1.1628e-19)
(0.256416 0.0237092 2.3381e-20)
(0.33356 0.0305612 -2.60786e-20)
(0.41857 0.0396314 -3.3949e-19)
(0.509785 0.0509018 -5.3123e-19)
(0.605004 0.0641503 -8.06842e-20)
(0.701548 0.0789425 -1.78326e-19)
(0.79644 0.0946599 -1.71172e-19)
(0.886651 0.11051 -3.08775e-20)
(0.969474 0.125806 -1.13379e-19)
(1.04255 0.139204 -7.12049e-20)
(1.10513 0.152097 -2.13388e-19)
(1.15315 0.157422 -3.33508e-21)
(-0.006143 0.00374673 -1.6237e-19)
(-0.00743963 0.00735329 3.47947e-19)
(0.00236685 0.00944536 2.14943e-19)
(0.0229938 0.0104916 9.51022e-20)
(0.0544248 0.0113031 -3.3972e-20)
(0.0966208 0.0125912 -2.20423e-19)
(0.149467 0.0149632 -1.44667e-19)
(0.212688 0.0189351 -7.06143e-20)
(0.285737 0.0249093 -1.04092e-19)
(0.367667 0.0331461 -3.71895e-19)
(0.457026 0.0437305 2.75948e-19)
(0.551802 0.0565415 1.80494e-19)
(0.649438 0.0712344 2.89861e-19)
(0.746956 0.0872467 8.41531e-20)
(0.841198 0.103847 4.69277e-20)
(0.92912 0.120171 1.74732e-20)
(1.00818 0.13549 -1.879e-20)
(1.07638 0.148606 -6.41854e-20)
(1.13325 0.16064 -7.14299e-20)
(1.17611 0.165752 -2.17687e-19)
(-0.00549309 0.00327468 2.88917e-20)
(-0.0048625 0.00609794 -5.2598e-20)
(0.00753093 0.00773199 3.82893e-20)
(0.0313479 0.00860764 -9.13298e-20)
(0.0665301 0.00955255 1.91479e-19)
(0.112974 0.0112863 3.4313e-19)
(0.170465 0.0144115 1.05016e-19)
(0.238574 0.019426 2.90672e-19)
(0.316535 0.026693 -1.53137e-19)
(0.403117 0.0364079 4.01041e-19)
(0.496529 0.0485627 7.35455e-20)
(0.594389 0.0629184 1.76094e-19)
(0.693801 0.0789979 -3.18189e-19)
(0.791536 0.0961112 -1.14013e-19)
(0.884332 0.113425 1.17349e-19)
(0.969229 0.130027 2.29202e-19)
(1.04394 0.145177 1.56889e-19)
(1.10691 0.157832 -6.94579e-20)
(1.15802 0.168924 2.88676e-19)
(1.19574 0.173663 9.64986e-20)
(-0.0047355 0.00278589 -9.7348e-20)
(-0.00195465 0.00482384 -2.20554e-19)
(0.0132567 0.0060355 -1.65242e-19)
(0.0404965 0.00680483 5.10197e-20)
(0.0796535 0.00797194 -2.7299e-19)
(0.130544 0.0102591 -3.36524e-19)
(0.192827 0.0142573 -4.48003e-20)
(0.265891 0.0204354 -1.02783e-19)
(0.348717 0.0291041 3.62691e-19)
(0.439755 0.0403776 -9.52223e-20)
(0.53685 0.0541384 -2.79259e-19)
(0.637254 0.070016 -4.55269e-19)
(0.737756 0.0873955 2.45735e-19)
(0.834941 0.105464 2.29474e-19)
(0.925532 0.123304 -6.13159e-20)
(1.00675 0.139982 -1.20353e-19)
(1.07665 0.154779 4.91395e-20)
(1.13417 0.166812 -6.9142e-20)
(1.17957 0.176896 -1.33577e-20)
(1.2123 0.181131 1.75648e-19)
(-0.0038622 0.00228319 -7.51234e-20)
(0.00130355 0.0035413 -5.70083e-20)
(0.0195707 0.00437496 2.54338e-19)
(0.0504676 0.00511146 -1.55688e-19)
(0.0938179 0.00659826 3.98029e-19)
(0.149338 0.00955392 1.66102e-19)
(0.216534 0.0145485 -1.08038e-19)
(0.29458 0.0220099 -1.83107e-19)
(0.382168 0.0321809 -2.89236e-19)
(0.477401 0.0450777 1.22028e-19)
(0.577745 0.0604571 2.52528e-20)
(0.680095 0.0778062 1.51701e-19)
(0.780975 0.0963705 2.98523e-19)
(0.876855 0.115226 -1.70174e-19)
(0.96454 0.133394 6.13144e-20)
(1.04153 0.149947 -2.19758e-19)
(1.10628 0.164218 -6.8495e-20)
(1.15825 0.175492 -5.51749e-20)
(1.19812 0.184523 -3.22495e-20)
(1.22608 0.188153 -2.41495e-19)
(-0.00286518 0.00176994 1.47709e-19)
(0.0049311 0.00226204 2.33951e-19)
(0.0264976 0.00277135 9.37142e-21)
(0.0612856 0.00355782 1.42833e-19)
(0.109039 0.00547017 -3.41615e-19)
(0.169353 0.00921532 8.17437e-20)
(0.241553 0.0153317 -5.27943e-20)
(0.324563 0.0241925 -1.02595e-20)
(0.416755 0.0359557 -9.85238e-20)
(0.515858 0.0505219 -2.14604e-19)
(0.618956 0.0675073 -5.2018e-20)
(0.722612 0.0862493 1.3849e-19)
(0.823145 0.105858 -4.10159e-19)
(0.916996 0.125315 1.06408e-19)
(1.00115 0.143607 -3.17053e-20)
(1.07346 0.159842 1.86529e-19)
(1.13286 0.173434 3.52594e-19)
(1.1793 0.183837 1.20203e-21)
(1.21387 0.191788 -6.02696e-20)
(1.23737 0.194744 -7.98592e-20)
(-0.00173654 0.0012501 -2.65646e-20)
(0.00894613 0.000999199 -3.53076e-19)
(0.0340598 0.00124749 -2.69271e-19)
(0.0729705 0.00217609 -1.69601e-20)
(0.125326 0.0046277 5.98555e-20)
(0.190577 0.00928829 -1.14476e-19)
(0.267837 0.0166523 -5.71685e-22)
(0.355745 0.0270222 3.73971e-20)
(0.452323 0.0404537 5.45826e-20)
(0.55491 0.0567142 3.05307e-19)
(0.660214 0.0752669 1.25396e-19)
(0.76451 0.0952964 -3.25861e-20)
(0.863977 0.115788 3.69933e-20)
(0.955128 0.135649 -4.83839e-20)
(1.03521 0.153863 2.21119e-19)
(1.10251 0.169601 -9.31698e-20)
(1.15645 0.182381 -1.5691e-19)
(1.19749 0.191828 -1.2885e-20)
(1.22707 0.198692 9.85495e-20)
(1.24645 0.200932 8.32952e-21)
(-0.000468615 0.000728234 4.72302e-20)
(0.0133656 -0.000232589 1.87236e-19)
(0.042277 -0.000171916 1.15815e-19)
(0.0855371 0.00100022 -2.10302e-19)
(0.14268 0.00411199 4.46821e-20)
(0.212984 0.00981755 2.69376e-19)
(0.295321 0.018553 1.45852e-19)
(0.388013 0.0305331 1.92107e-20)
(0.488702 0.0456926 1.7471e-19)
(0.594331 0.0636494 -3.52307e-19)
(0.701253 0.0837042 -9.82148e-20)
(0.805505 0.104891 -4.15887e-20)
(0.903218 0.126085 2.44105e-19)
(0.99106 0.146148 -7.43654e-20)
(1.06664 0.164088 -2.03465e-20)
(1.1287 0.179168 -1.32349e-19)
(1.1772 0.191028 -1.09705e-19)
(1.21304 0.199461 -3.76742e-20)
(1.23798 0.205246 -4.08157e-20)
(1.25362 0.206754 -1.13244e-19)
(0.000945962 0.000209516 -4.40533e-20)
(0.018205 -0.00141726 -2.6556e-20)
(0.0511657 -0.00146042 -6.78591e-20)
(0.098995 6.5697e-05 2.20704e-19)
(0.161093 0.00396493 1.46315e-19)
(0.236539 0.010847 -4.6285e-20)
(0.32393 0.0210739 -8.15464e-21)
(0.421238 0.034754 1.78505e-19)
(0.525708 0.0516824 -2.69199e-19)
(0.633887 0.0713131 1.63125e-19)
(0.741808 0.0927788 1.65652e-19)
(0.845339 0.114971 4.38269e-20)
(0.940646 0.136675 -8.66772e-20)
(1.02465 0.156737 1.25304e-19)
(1.09538 0.17422 -3.26657e-19)
(1.1521 0.188502 4.17274e-20)
(1.19524 0.199357 -7.80579e-20)
(1.22615 0.206742 1.96098e-19)
(1.24684 0.211472 3.59191e-19)
(1.25913 0.21225 4.66511e-20)
(0.00251414 -0.000300242 -6.85412e-20)
(0.0234781 -0.00253731 2.9345e-20)
(0.0607387 -0.00258992 1.91386e-19)
(0.113347 -0.000590667 3.15512e-21)
(0.180549 0.0042287 -3.16697e-19)
(0.261194 0.0124193 -2.1523e-19)
(0.353571 0.0242513 -1.8203e-19)
(0.455276 0.0397074 -9.46679e-20)
(0.563145 0.058425 3.5645e-19)
(0.673341 0.0796821 -1.56836e-20)
(0.781625 0.102443 4.74372e-20)
(0.883773 0.12547 7.69653e-20)
(0.976081 0.147486 -2.54326e-19)
(1.05581 0.167349 -2.02131e-19)
(1.12145 0.184209 5.35823e-20)
(1.1728 0.197575 2.47529e-19)
(1.21077 0.207365 -2.00309e-20)
(1.23706 0.213687 1.93661e-19)
(1.25389 0.217396 -2.7109e-19)
(1.26321 0.217463 -3.3368e-20)
(0.00424233 -0.000794617 8.71545e-20)
(0.0291966 -0.0035739 1.08125e-19)
(0.071005 -0.00353084 -1.97907e-19)
(0.128591 -0.000931066 -1.06614e-20)
(0.201021 0.00494535 3.72163e-19)
(0.286886 0.0145751 2.30389e-19)
(0.384139 0.0281173 -9.17054e-20)
(0.489972 0.0454094 1.33692e-19)
(0.600809 0.0659142 -1.4141e-19)
(0.712458 0.0887256 -1.41654e-19)
(0.820466 0.112645 1.43381e-19)
(0.920604 0.136323 -2.87069e-19)
(1.00939 0.158447 3.60733e-20)
(1.08448 0.177925 1.36482e-19)
(1.1449 0.194012 -7.41043e-20)
(1.19095 0.206368 1.05416e-19)
(1.22398 0.215054 -1.26221e-19)
(1.246 0.220319 -2.91157e-19)
(1.25936 0.223051 3.76931e-20)
(1.26608 0.222436 9.90382e-20)
(0.00613635 -0.00126659 1.02209e-19)
(0.0353701 -0.00450692 -3.28927e-19)
(0.0819688 -0.00425232 5.22161e-20)
(0.144716 -0.000917051 -5.39654e-20)
(0.222473 0.00615626 -1.31081e-19)
(0.313546 0.0173522 -1.03919e-19)
(0.415515 0.0326993 9.23296e-20)
(0.52516 0.0518694 -4.19197e-19)
(0.638494 0.0741363 -9.72205e-20)
(0.751011 0.0984059 6.21924e-20)
(0.858114 0.123326 -7.80045e-20)
(0.955657 0.147461 2.22773e-19)
(1.04046 0.169496 1.55251e-19)
(1.11066 0.188413 5.35969e-20)
(1.1658 0.203602 2.94251e-19)
(1.2067 0.214876 -2.88446e-19)
(1.23508 0.222439 1.76142e-19)
(1.25319 0.226666 2.47479e-19)
(1.26345 0.228469 -2.26703e-20)
(1.26791 0.227209 -1.58574e-19)
(0.00820125 -0.00170858 8.18005e-21)
(0.0420054 -0.00531514 -3.50153e-21)
(0.0936299 -0.00472249 2.38e-19)
(0.161704 -0.000509934 -3.39267e-20)
(0.244861 0.00790159 -1.45502e-20)
(0.341087 0.0207857 2.46955e-19)
(0.447572 0.0380191 2.81076e-19)
(0.560665 0.0590895 7.62439e-20)
(0.675993 0.08307 1.6237e-19)
(0.788782 0.108679 -1.05931e-19)
(0.894374 0.134428 -8.91347e-20)
(0.988795 0.158822 -1.66326e-21)
(1.06925 0.180576 -1.07508e-19)
(1.13438 0.198775 -3.82536e-21)
(1.18428 0.212959 -2.07033e-19)
(1.22021 0.2231 8.11742e-20)
(1.24425 0.229537 1.89113e-19)
(1.25882 0.232757 -9.44944e-20)
(1.26637 0.233683 1.07906e-19)
(1.26888 0.23182 1.92764e-19)
(0.0104412 -0.00211246 3.15348e-20)
(0.0491064 -0.00597632 -8.45999e-20)
(0.105983 -0.00490876 -4.9316e-21)
(0.179531 0.000328778 2.25713e-21)
(0.268129 0.0102198 -1.64368e-19)
(0.369416 0.0249066 -2.30543e-20)
(0.480169 0.0440931 -2.89985e-19)
(0.596309 0.0670652 2.98641e-19)
(0.713101 0.0926876 1.52683e-19)
(0.82557 0.119498 1.33815e-20)
(0.929078 0.145892 -1.51797e-21)
(1.01991 0.170346 -7.79629e-20)
(1.09572 0.191636 4.57586e-20)
(1.1557 0.208978 1.24495e-19)
(1.20045 0.222072 -2.14705e-19)
(1.23167 0.231049 1.62335e-19)
(1.2517 0.236372 -1.94504e-19)
(1.26309 0.238623 -8.71738e-21)
(1.26826 0.238727 8.52992e-22)
(1.26911 0.236302 8.68441e-20)
(0.0128596 -0.00246963 -6.8944e-20)
(0.0566744 -0.00646743 -7.66349e-20)
(0.119016 -0.0047781 1.08417e-19)
(0.198163 0.00163691 -4.77891e-20)
(0.292211 0.0131469 -1.48762e-20)
(0.398428 0.0297417 -1.43991e-19)
(0.51316 0.0509313 1.59582e-19)
(0.63191 0.0757852 -2.83615e-19)
(0.749623 0.102956 2.58692e-20)
(0.861192 0.130812 4.29263e-20)
(0.962087 0.157658 -2.35487e-20)
(1.04894 0.181977 1.6604e-20)
(1.11989 0.202635 -1.91783e-19)
(1.1747 0.219 -1.45465e-19)
(1.21446 0.230938 1.2115e-19)
(1.24125 0.238737 -3.88078e-20)
(1.25762 0.24297 -2.31573e-19)
(1.26617 0.244297 -4.40491e-20)
(1.26928 0.243631 -1.91452e-19)
(1.26873 0.240686 -2.35266e-19)
(0.0154586 -0.00277103 -1.637e-20)
(0.0647069 -0.00676476 1.1313e-19)
(0.132715 -0.00429742 8.1427e-20)
(0.217561 0.00345119 2.35874e-19)
(0.317035 0.0167161 -8.33479e-21)
(0.428009 0.035313 1.2327e-19)
(0.546393 0.0585379 -2.59043e-19)
(0.667289 0.0852315 9.03182e-20)
(0.785373 0.113835 -7.50911e-20)
(0.895483 0.142567 1.08266e-19)
(0.993289 0.16967 2.64456e-20)
(1.07583 0.193664 6.25037e-20)
(1.1418 0.213539 1.78165e-19)
(1.19149 0.228824 2.20748e-20)
(1.22647 0.239562 -1.09713e-19)
(1.24913 0.246182 1.80333e-19)
(1.26217 0.249357 6.32716e-20)
(1.26822 0.249807 -2.98176e-20)
(1.26954 0.248421 1.79802e-19)
(1.26781 0.244997 1.18456e-19)
(0.237675 0.00580672 -3.45356e-20)
(0.342517 0.0209574 4.17187e-20)
(0.458038 0.0416374 -2.43033e-20)
(0.579713 0.0669108 1.46895e-19)
(0.70227 0.0953806 -4.62841e-20)
(0.820177 0.125285 -5.64194e-20)
(0.928304 0.154711 -1.91273e-19)
(1.0226 0.181874 -1.21675e-19)
(1.10058 0.205366 -1.11703e-19)
(1.16149 0.22432 -9.06943e-20)
(1.20618 0.238445 3.45547e-20)
(1.23662 0.247951 -6.70772e-20)
(1.25546 0.253405 8.05757e-21)
(1.26552 0.255559 1.26078e-19)
(1.26937 0.25518 1.33167e-19)
(1.26917 0.253123 9.62726e-21)
(1.26645 0.249255 8.28974e-20)
(0.488389 0.0487266 -2.54e-20)
(0.612962 0.0760416 -8.08735e-20)
(0.736682 0.106203 1.9262e-19)
(0.853878 0.137258 -4.8123e-20)
(0.959536 0.16719 -1.81895e-21)
(1.04996 0.19422 1.30565e-19)
(1.12319 0.217043 -1.16846e-19)
(1.17906 0.234957 5.10099e-20)
(1.2189 0.247858 -1.28143e-19)
(1.24507 0.256119 2.15085e-19)
(1.26042 0.260428 -1.62179e-19)
(1.2678 0.261604 -9.73415e-20)
(1.26974 0.260443 -1.02162e-21)
(1.26824 0.257758 -1.41806e-19)
(1.2647 0.253478 -1.69656e-21)
(0.886335 0.149708 -3.45799e-20)
(0.989083 0.179953 5.915e-20)
(1.07534 0.206663 -8.00517e-20)
(1.14371 0.228664 1.01569e-19)
(1.19459 0.245438 9.73764e-20)
(1.22978 0.257067 2.15366e-20)
(1.25196 0.264081 -6.12281e-20)
(1.26413 0.267274 -1.45194e-20)
(1.26915 0.267516 -8.36077e-20)
(1.26943 0.265618 -3.54365e-20)
(1.26683 0.262343 5.80093e-20)
(1.26261 0.257681 -9.93803e-20)
(1.20818 0.255753 -2.46648e-21)
(1.23895 0.266077 9.04846e-20)
(1.25744 0.271853 -2.57574e-20)
(1.26674 0.273963 1.47346e-19)
(1.26967 0.273315 7.7682e-20)
(1.26852 0.270723 -1.29277e-20)
(1.265 0.266893 4.2422e-20)
(1.26022 0.261872 1.61787e-19)
(1.26836 0.280518 -9.52888e-21)
(1.26946 0.279023 -1.16808e-19)
(1.2671 0.275774 9.6364e-21)
(1.2628 0.27142 -7.70022e-20)
(1.25756 0.266061 6.85977e-22)
(1.25465 0.270251 -1.61488e-20)
(1.26167 -0.269784 -1.01996e-19)