/*--------------------------------*- C++ -*----------------------------------*\
  =========                 |
  \\      /  F ield         | OpenFOAM: The Open Source CFD Toolbox
   \\    /   O peration     | Website:  https://openfoam.org
    \\  /    A nd           | Version:  7
     \\/     M anipulation  |
\*---------------------------------------------------------------------------*/
FoamFile
{
    version     2.0;
    format      ascii;
    class       volScalarField;
    location    "220";
    object      p;
}
// * * * * * * * * * * * * * * * * * * * * * * * * * * * * * * * * * * * * * //

dimensions      [0 2 -2 0 0 0 0];

internalField   nonuniform List<scalar> 
4575
(
-0.143163
-0.148338
-0.133179
-0.169646
-0.153146
-0.137772
-0.123007
-0.17578
-0.157997
-0.141966
-0.127007
-0.112654
-0.182494
-0.163398
-0.146117
-0.130578
-0.116055
-0.102129
-0.189864
-0.169323
-0.150771
-0.134019
-0.118994
-0.104922
-0.0914414
-0.197994
-0.175842
-0.155893
-0.137911
-0.121712
-0.107222
-0.093621
-0.0806006
-0.206978
-0.183051
-0.161543
-0.142216
-0.124831
-0.109209
-0.0952764
-0.0821628
-0.0696188
-0.216906
-0.191043
-0.167815
-0.146983
-0.128306
-0.111546
-0.0965249
-0.0831689
-0.0705606
-0.0585094
-0.227839
-0.199906
-0.174798
-0.152303
-0.132178
-0.114179
-0.0980678
-0.0836721
-0.0709136
-0.0588289
-0.0472887
-0.239748
-0.209701
-0.182578
-0.158262
-0.136533
-0.117143
-0.0998497
-0.0844128
-0.0706657
-0.0585253
-0.0469835
-0.0359754
-0.252422
-0.22041
-0.191219
-0.164945
-0.141454
-0.120521
-0.101895
-0.0853333
-0.0705957
-0.0575211
-0.0460193
-0.0350415
-0.0245916
-0.265308
-0.231837
-0.20071
-0.172417
-0.147028
-0.124395
-0.104287
-0.0864522
-0.0706461
-0.0566317
-0.0442535
-0.0334114
-0.0230216
-0.0131649
-0.277318
-0.24346
-0.210872
-0.180675
-0.15332
-0.12885
-0.107106
-0.0878501
-0.0708308
-0.0558041
-0.0425362
-0.030878
-0.0207168
-0.0109443
-0.00173192
-0.254231
-0.221211
-0.189557
-0.160334
-0.133954
-0.110436
-0.0896083
-0.0712298
-0.055049
-0.0408234
-0.0283237
-0.0174089
-0.00794992
0.00116887
0.00966344
-0.262398
-0.230722
-0.198597
-0.167925
-0.139718
-0.114347
-0.0918096
-0.0719243
-0.0544463
-0.0391249
-0.0257196
-0.0140084
-0.00385942
0.00487743
0.0133016
0.0209847
-0.265469
-0.237704
-0.206832
-0.175654
-0.14601
-0.118856
-0.0945259
-0.0729966
-0.054077
-0.0375202
-0.0230766
-0.0105086
0.000395872
0.00975796
0.0177582
0.0254503
0.0322012
-0.239707
-0.212614
-0.182602
-0.152421
-0.123846
-0.0977793
-0.0745195
-0.0540228
-0.03609
-0.0204727
-0.00692261
0.00479425
0.0148758
0.023434
0.0306962
0.0376143
0.0432107
-0.23389
-0.213542
-0.187173
-0.158073
-0.128935
-0.101468
-0.0765206
-0.054357
-0.0349149
-0.0179877
-0.00332571
0.00931813
0.0201731
0.02942
0.0371703
0.043717
0.0497662
0.0537352
-0.218008
-0.206813
-0.187023
-0.161428
-0.133289
-0.105236
-0.0789114
-0.0551123
-0.0340683
-0.0157003
0.000205015
0.0138983
0.0256256
0.0356109
0.0440191
0.0509837
0.0568684
0.0618693
0.0635165
-0.19016
-0.179391
-0.160199
-0.135426
-0.108292
-0.0813628
-0.0562131
-0.0335874
-0.0136837
0.00359314
0.0184624
0.0311756
0.0419782
0.0510882
0.0586628
0.0648859
0.0701582
0.0739295
0.0732232
-0.162127
-0.161997
-0.151675
-0.133121
-0.109214
-0.0831266
-0.0573565
-0.0334096
-0.0119796
0.00676587
0.0229368
0.0367579
0.0484816
0.0583522
0.0665829
0.073333
0.0788453
0.0834584
0.0858261
0.0855706
-0.13319
-0.133573
-0.12372
-0.10584
-0.0828391
-0.0578369
-0.0332573
-0.0105379
0.00967707
0.0272489
0.0423016
0.0550646
0.0657909
0.0747233
0.0820716
0.088002
0.0927889
0.096677
0.0982075
0.0986469
-0.104041
-0.104944
-0.0955785
-0.0784076
-0.0563509
-0.0324674
-0.00910595
0.0123646
0.0313482
0.0477338
0.0616583
0.0733551
0.0830775
0.0910668
0.0975303
0.102641
0.106683
0.109823
0.110689
0.1112
-0.0747395
-0.0761642
-0.0673069
-0.0508766
-0.0297977
-0.00706295
0.0150565
0.0352602
0.0529991
0.0681886
0.0809771
0.0916017
0.100316
0.107358
0.112935
0.117224
0.120507
0.122907
0.123174
0.12347
-0.0453422
-0.047291
-0.0389598
-0.0232988
-0.00322811
0.0183316
0.0391888
0.0581112
0.0745953
0.0885812
0.100228
0.109777
0.117479
0.123572
0.12826
0.131725
0.134241
0.135905
0.135579
0.135518
-0.0159072
-0.0183808
-0.0105922
0.00427345
0.0233092
0.0436715
0.06325
0.0808799
0.0961018
0.10888
0.119382
0.127852
0.134541
0.139684
0.143483
0.146121
0.147865
0.148794
0.147863
0.147361
0.0135075
0.0105097
0.0177408
0.0317879
0.0497657
0.068912
0.087199
0.103529
0.117484
0.129052
0.138409
0.145801
0.151477
0.15567
0.15858
0.160389
0.161358
0.161553
0.160004
0.159008
0.0428442
0.0393239
0.045984
0.0591926
0.076093
0.0940085
0.110995
0.12602
0.138708
0.149065
0.157279
0.163595
0.16826
0.171506
0.173529
0.17451
0.174703
0.174162
0.171984
0.17046
0.0720453
0.0680051
0.0740829
0.0864357
0.102243
0.118917
0.134597
0.148316
0.159738
0.168889
0.175964
0.181207
0.184866
0.187168
0.188307
0.188463
0.18788
0.186603
0.183792
0.181716
0.101054
0.0964971
0.101983
0.113466
0.128168
0.143593
0.157966
0.170381
0.180541
0.188492
0.194433
0.198611
0.20127
0.202634
0.202894
0.202227
0.200872
0.198862
0.195416
0.192772
0.129812
0.124744
0.12963
0.140233
0.153821
0.167994
0.18106
0.192177
0.201084
0.207842
0.212658
0.215779
0.217446
0.217879
0.217268
0.215785
0.213662
0.210923
0.206844
0.158265
0.152691
0.156972
0.166685
0.179156
0.192077
0.203842
0.213669
0.221332
0.226909
0.230612
0.232686
0.233371
0.232883
0.231409
0.229118
0.226232
0.222772
0.218063
0.186356
0.180283
0.183955
0.192775
0.204126
0.2158
0.226272
0.234821
0.241253
0.245663
0.248265
0.249306
0.249021
0.247624
0.245297
0.242207
0.238568
0.234395
0.229064
0.214031
0.207466
0.210527
0.218452
0.228686
0.23912
0.248313
0.255598
0.260815
0.264073
0.265591
0.265613
0.264372
0.262079
0.258912
0.255034
0.250653
0.245777
0.241237
0.234188
0.236639
0.24367
0.252793
0.261999
0.269926
0.275965
0.279987
0.282111
0.282562
0.281582
0.279403
0.276228
0.272235
0.267583
0.262471
0.256905
0.26792
0.260397
0.26224
0.268382
0.276404
0.284395
0.291076
0.29589
0.298736
0.299749
0.299153
0.297191
0.294089
0.290051
0.285247
0.279836
0.274008
0.267765
0.294029
0.286042
0.287282
0.292542
0.299475
0.306271
0.311727
0.315339
0.317034
0.316958
0.315337
0.312413
0.30841
0.303526
0.29793
0.291776
0.285247
0.278343
0.319513
0.311074
0.311717
0.316105
0.321966
0.327587
0.331843
0.33428
0.33485
0.33371
0.33109
0.327228
0.322345
0.316636
0.310266
0.303387
0.296174
0.344324
0.335445
0.3355
0.339029
0.343837
0.348308
0.351392
0.352682
0.352157
0.349981
0.346386
0.341611
0.335872
0.32936
0.322238
0.314654
0.306774
0.368415
0.359108
0.358585
0.361271
0.365049
0.368398
0.37034
0.370515
0.368925
0.365743
0.361203
0.355541
0.348971
0.34168
0.333828
0.325559
0.317034
0.391739
0.382018
0.380929
0.382792
0.385565
0.387823
0.388657
0.38775
0.385128
0.380972
0.375518
0.368997
0.361623
0.353578
0.34502
0.336089
0.326939
0.414251
0.404132
0.402492
0.403552
0.405349
0.406549
0.40631
0.404359
0.40074
0.395645
0.389307
0.381959
0.373809
0.365038
0.355798
0.346229
0.435911
0.425407
0.423232
0.423514
0.424366
0.424544
0.423271
0.420314
0.415737
0.409737
0.402551
0.394407
0.385511
0.376041
0.366147
0.355964
0.456675
0.445805
0.443112
0.442642
0.442584
0.441779
0.439513
0.43559
0.430094
0.423228
0.415228
0.406322
0.396711
0.386572
0.376051
0.36528
0.476506
0.465286
0.462094
0.460901
0.459969
0.458223
0.455007
0.450163
0.443789
0.436095
0.427319
0.417685
0.407394
0.396616
0.385497
0.374166
0.495367
0.483814
0.480145
0.47826
0.476494
0.47385
0.46973
0.464008
0.456799
0.44832
0.438806
0.428481
0.417542
0.406158
0.394471
0.382608
0.513222
0.501355
0.497232
0.494688
0.492128
0.488633
0.483656
0.477103
0.469105
0.459882
0.449671
0.438692
0.427141
0.415184
0.402961
0.530039
0.517877
0.513324
0.510156
0.506847
0.502547
0.496763
0.489428
0.480687
0.470764
0.459897
0.448304
0.436178
0.423682
0.410954
0.545787
0.53335
0.528391
0.524637
0.520624
0.515571
0.50903
0.500963
0.491527
0.48095
0.469469
0.457302
0.444638
0.431638
0.418439
0.560436
0.547744
0.542407
0.538106
0.533436
0.527682
0.520437
0.51169
0.501608
0.490424
0.478373
0.465672
0.452509
0.439042
0.425405
0.573961
0.561036
0.555348
0.55054
0.545263
0.53886
0.530966
0.521591
0.510914
0.49917
0.486595
0.473403
0.45978
0.445883
0.431843
0.586338
0.573199
0.567191
0.561917
0.556085
0.549089
0.540601
0.530653
0.519433
0.507178
0.494124
0.480484
0.466441
0.452151
0.437744
0.597544
0.584215
0.577915
0.57222
0.565884
0.558351
0.549327
0.538861
0.527149
0.514433
0.500947
0.486903
0.472481
0.457837
0.4431
0.60756
0.594062
0.587502
0.58143
0.574644
0.566632
0.557129
0.546202
0.534054
0.520927
0.507056
0.492652
0.477894
0.462935
0.447902
0.61637
0.602726
0.595937
0.589533
0.582352
0.57392
0.563998
0.552666
0.540135
0.526649
0.512442
0.497723
0.482671
0.467436
0.452146
0.623957
0.61019
0.603205
0.596517
0.588996
0.580203
0.569921
0.558243
0.545385
0.531591
0.517097
0.502109
0.486805
0.471336
0.455826
0.630311
0.616444
0.609296
0.60237
0.594566
0.585473
0.574892
0.562926
0.549796
0.535748
0.521015
0.505804
0.490292
0.474628
0.458936
0.635421
0.621477
0.614199
0.607084
0.599055
0.589722
0.578903
0.566709
0.553363
0.539113
0.524191
0.508804
0.493128
0.47731
0.639281
0.625283
0.617909
0.610653
0.602456
0.592946
0.58195
0.569587
0.556082
0.541682
0.526622
0.511105
0.495308
0.479378
0.641884
0.627857
0.620421
0.613072
0.604765
0.595139
0.584029
0.571556
0.557949
0.543454
0.528304
0.512705
0.496831
0.480829
0.64323
0.629197
0.621733
0.614341
0.605981
0.596301
0.585138
0.572616
0.558963
0.544426
0.529238
0.513603
0.497697
0.481664
0.643318
0.629302
0.621845
0.614458
0.606105
0.596432
0.585278
0.572767
0.559124
0.544599
0.529422
0.513799
0.497904
0.481882
0.64215
0.628176
0.620759
0.613426
0.605137
0.595534
0.584451
0.572009
0.558435
0.543974
0.528859
0.513295
0.497454
0.481485
0.639734
0.625824
0.618481
0.61125
0.603083
0.593611
0.58266
0.570348
0.556897
0.542554
0.527551
0.512091
0.49635
0.480473
0.464584
0.636075
0.622254
0.615018
0.607937
0.599949
0.590668
0.579911
0.567787
0.554516
0.540344
0.525501
0.510193
0.494594
0.478851
0.463087
0.631184
0.617474
0.610379
0.603496
0.595743
0.586714
0.57621
0.564333
0.551298
0.537348
0.522716
0.507605
0.492191
0.476622
0.461022
0.625074
0.611499
0.604576
0.597937
0.590475
0.581757
0.571567
0.559994
0.547249
0.533574
0.5192
0.504332
0.489147
0.473792
0.458392
0.61776
0.604341
0.597624
0.591274
0.584158
0.57581
0.565992
0.55478
0.54238
0.52903
0.514962
0.500382
0.485467
0.470365
0.455203
0.609259
0.59602
0.589538
0.583523
0.576805
0.568884
0.559496
0.548701
0.536699
0.523725
0.510011
0.495763
0.481159
0.46635
0.451462
0.599592
0.586554
0.580338
0.5747
0.568433
0.560995
0.552093
0.541771
0.530219
0.51767
0.504356
0.490484
0.476233
0.461754
0.447175
0.58878
0.575965
0.570044
0.564825
0.55906
0.55216
0.5438
0.534004
0.522953
0.510878
0.498009
0.484555
0.470696
0.456585
0.442352
0.576849
0.564276
0.558678
0.553919
0.548706
0.542396
0.534631
0.525414
0.514915
0.503361
0.490982
0.477988
0.46456
0.450854
0.437
0.563824
0.551516
0.546267
0.542007
0.537391
0.531724
0.524607
0.51602
0.506121
0.495134
0.483288
0.470795
0.457837
0.444572
0.43113
0.549735
0.53771
0.532837
0.529113
0.525141
0.520166
0.513747
0.505839
0.496588
0.486212
0.474942
0.462989
0.450538
0.437748
0.424752
0.534613
0.522892
0.518418
0.515264
0.511979
0.507744
0.502072
0.494891
0.486333
0.476613
0.46596
0.454585
0.442677
0.430397
0.417878
0.405239
0.518492
0.507092
0.50304
0.50049
0.497933
0.494483
0.489605
0.483198
0.475378
0.466355
0.456357
0.445599
0.434269
0.42253
0.410519
0.398357
0.501406
0.490345
0.486737
0.484822
0.483032
0.48041
0.476371
0.470781
0.463742
0.455457
0.446153
0.436046
0.425327
0.414162
0.402689
0.391031
0.483393
0.472689
0.469544
0.468293
0.467306
0.465553
0.462395
0.457665
0.451447
0.443938
0.435364
0.425944
0.415869
0.405307
0.3944
0.383273
0.464492
0.454161
0.451497
0.450936
0.450786
0.449941
0.447704
0.443873
0.438516
0.43182
0.424012
0.41531
0.40591
0.395981
0.385668
0.375098
0.444744
0.434801
0.432635
0.432788
0.433506
0.433604
0.432327
0.429434
0.424973
0.419126
0.412116
0.404165
0.395468
0.386201
0.376507
0.366518
0.35637
0.424191
0.414653
0.412998
0.413887
0.415501
0.416575
0.416292
0.414372
0.410843
0.405878
0.399698
0.392526
0.384562
0.375981
0.366931
0.357547
0.34797
0.402879
0.393758
0.392628
0.394271
0.396807
0.398887
0.399631
0.398718
0.396152
0.3921
0.38678
0.380416
0.37321
0.365341
0.356958
0.3482
0.339215
0.380853
0.372162
0.371568
0.373982
0.377461
0.380574
0.382375
0.382499
0.380928
0.377817
0.373385
0.367855
0.361432
0.354297
0.346604
0.338493
0.330118
0.35816
0.349913
0.349862
0.35306
0.357503
0.361673
0.364557
0.365746
0.365197
0.363056
0.359537
0.354864
0.349247
0.342869
0.335886
0.32844
0.320694
0.312654
0.33485
0.327057
0.327557
0.33155
0.336971
0.342219
0.346211
0.348491
0.34899
0.347842
0.345259
0.341467
0.336677
0.331075
0.32482
0.318058
0.310958
0.303525
0.310972
0.303644
0.3047
0.309495
0.315908
0.322251
0.327372
0.330764
0.332334
0.332202
0.330577
0.327687
0.323742
0.318935
0.313426
0.307363
0.300923
0.294114
0.286578
0.279725
0.28134
0.286942
0.294356
0.301808
0.308075
0.3126
0.31526
0.316164
0.315517
0.313546
0.310465
0.306468
0.30172
0.296372
0.290607
0.284434
0.277397
0.26172
0.25535
0.257525
0.263935
0.272357
0.280929
0.288357
0.294031
0.2978
0.299758
0.300105
0.299069
0.296868
0.293697
0.289723
0.285102
0.280022
0.274499
0.26803
0.236451
0.230573
0.233307
0.240525
0.249955
0.259655
0.268254
0.275092
0.279985
0.283011
0.284368
0.284282
0.282973
0.28064
0.277453
0.27357
0.269186
0.264322
0.258431
0.210826
0.205446
0.208736
0.216757
0.227196
0.238026
0.247806
0.255818
0.261846
0.265954
0.268333
0.269208
0.268803
0.267319
0.26493
0.261793
0.258114
0.253918
0.248612
0.244146
0.1849
0.180024
0.183866
0.192682
0.204124
0.216086
0.227049
0.236243
0.243416
0.248616
0.252027
0.253875
0.254383
0.253757
0.252172
0.24979
0.246822
0.243301
0.238584
0.234665
0.158728
0.154361
0.158747
0.168349
0.180787
0.193875
0.206024
0.216404
0.224728
0.231028
0.235478
0.238306
0.239736
0.239975
0.239201
0.23758
0.235327
0.232485
0.22836
0.22498
0.132366
0.128512
0.133434
0.143809
0.15723
0.171438
0.18477
0.196337
0.205817
0.21322
0.218716
0.222529
0.224886
0.225995
0.226038
0.225179
0.223645
0.221484
0.21795
0.215096
0.10587
0.102533
0.10798
0.119111
0.133501
0.148818
0.163326
0.176078
0.186714
0.195224
0.201769
0.206571
0.209857
0.21184
0.212702
0.212609
0.211793
0.210313
0.207365
0.205018
0.079298
0.0764786
0.0824393
0.0943079
0.109648
0.126058
0.141732
0.155665
0.167455
0.177071
0.184665
0.190458
0.194676
0.197533
0.199215
0.199888
0.199789
0.198989
0.196617
0.194747
0.0527054
0.0504051
0.0568655
0.0694498
0.0857168
0.103202
0.12003
0.135134
0.148072
0.158792
0.167434
0.174216
0.179366
0.183098
0.1856
0.187037
0.187652
0.187529
0.185719
0.184279
0.0261492
0.0243677
0.0313126
0.0445881
0.0617565
0.0802948
0.0982591
0.114522
0.128601
0.140419
0.150106
0.157874
0.163953
0.168559
0.17188
0.174077
0.1754
0.175954
0.17469
0.1736
-0.000314203
-0.00157825
0.00583457
0.0197742
0.0378146
0.0573797
0.0764599
0.0938675
0.109076
0.121983
0.132708
0.141459
0.148464
0.15394
0.158077
0.161032
0.163054
0.164286
0.163565
0.162691
-0.0266287
-0.0273782
-0.0195151
-0.00494121
0.0139386
0.0345009
0.0546728
0.0732062
0.0895304
0.103517
0.115271
0.124997
0.132922
0.139265
0.144215
0.147924
0.150633
0.152548
0.152413
0.15148
-0.0527382
-0.0529778
-0.0446833
-0.0295072
-0.00982382
0.0117022
0.0329381
0.0525753
0.0699981
0.0850501
0.0978235
0.108516
0.117355
0.124557
0.130318
0.13478
0.13816
0.140734
0.141318
0.139744
-0.0783233
-0.0696169
-0.0538734
-0.0334256
-0.0109728
0.0112956
0.0320114
0.0505129
0.0666147
0.0803941
0.0920431
0.101786
0.109843
0.116409
0.121629
0.125666
0.128848
0.130655
0.128657
-0.103364
-0.0942651
-0.0779906
-0.0568205
-0.0334812
-0.0102151
0.0115508
0.031108
0.0482411
0.0630111
0.0756037
0.0862412
0.0951438
0.102512
0.108496
0.113219
0.116981
0.119907
0.119999
-0.118577
-0.10181
-0.0799623
-0.0557804
-0.031555
-0.00877073
0.0118163
0.0299593
0.0457025
0.0592239
0.0707442
0.080484
0.0886481
0.0954005
0.100846
0.105232
0.109136
0.111301
-0.125283
-0.102806
-0.0778285
-0.0526856
-0.0289181
-0.00733012
0.0117991
0.0284955
0.042929
0.0553182
0.0658842
0.0748358
0.0823514
0.0885374
0.0935863
0.0982975
0.101935
-0.148364
-0.125307
-0.0995843
-0.0735691
-0.0488567
-0.0262996
-0.00621067
0.0114165
0.0267431
0.039985
0.051364
0.0610918
0.0693584
0.0762784
0.0820045
0.0874265
0.0921109
-0.147421
-0.121008
-0.0941684
-0.0685526
-0.0450612
-0.0240417
-0.00550841
0.0106898
0.024766
0.036942
0.0474315
0.0564331
0.0640701
0.070469
0.076559
0.0820818
-0.142059
-0.114447
-0.0879728
-0.0635848
-0.0416665
-0.0222542
-0.00520783
0.00968172
0.0226362
0.0338705
0.0435889
0.0519224
0.0589796
0.0657023
0.0719525
-0.134371
-0.107085
-0.081841
-0.0590583
-0.0387965
-0.0209277
-0.0052477
0.00846447
0.0204243
0.0308397
0.039848
0.0475441
0.054862
0.0617572
-0.153904
-0.125858
-0.0998015
-0.0761912
-0.0551117
-0.0364483
-0.0200027
-0.00555561
0.00710854
0.0181995
0.0278603
0.0361747
0.0440544
0.0515299
-0.144262
-0.117439
-0.0930401
-0.0711768
-0.0517487
-0.0345643
-0.0194067
-0.00606118
0.005683
0.0159734
0.0248857
0.0333002
0.0413107
-0.134726
-0.109581
-0.0869697
-0.0668088
-0.0489141
-0.033072
-0.0190691
-0.00669492
0.00420239
0.0136926
0.0226195
0.0311337
-0.12579
-0.102469
-0.081609
-0.063034
-0.0465348
-0.0318998
-0.0189193
-0.00743785
0.00261063
0.0120302
0.0210246
-0.117655
-0.0961308
-0.076907
-0.0597791
-0.0445381
-0.0309755
-0.0189325
-0.00834539
0.00154871
0.0110042
-0.110356
-0.0905163
-0.0727894
-0.0569693
-0.0428492
-0.0302674
-0.0191612
-0.00880975
0.00109001
-0.103846
-0.0855509
-0.0691793
-0.0545268
-0.041429
-0.0298234
-0.0190314
-0.00870287
-0.0980496
-0.0811547
-0.0659953
-0.0524047
-0.0403197
-0.0291039
-0.0183615
-0.0928829
-0.0772426
-0.0631826
-0.0506386
-0.0390159
-0.0278747
-0.0882574
-0.0737517
-0.0607697
-0.0487573
-0.0372324
-0.0841022
-0.0707035
-0.058319
-0.0464257
-0.067693
-0.0554463
-0.0642865
0.0660434
0.0562159
0.046063
0.0361616
0.0259293
0.0154114
0.00484255
-0.00571
-0.0162446
-0.0267357
-0.0371497
-0.0474651
-0.057669
-0.0677504
-0.0776998
-0.0875092
-0.0971721
-0.106683
-0.116037
-0.12523
-0.134258
0.0554667
0.0451734
0.034086
0.0242802
0.0147659
0.00504179
-0.00468461
-0.014256
-0.0236879
-0.0330081
-0.0422105
-0.0512844
-0.060228
-0.0690424
-0.077727
-0.0862807
-0.0947021
-0.10299
-0.111144
-0.119162
-0.127043
0.0429802
0.0330196
0.0225198
0.0136311
0.00530365
-0.00318948
-0.011732
-0.0201291
-0.0283755
-0.0365191
-0.0445709
-0.0525222
-0.0603684
-0.0681096
-0.0757455
-0.0832745
-0.0906944
-0.0980033
-0.1052
-0.112282
-0.11925
0.0312345
0.0221512
0.0127966
0.0049504
-0.00235431
-0.00981832
-0.0173678
-0.0248079
-0.0321106
-0.0393176
-0.0464445
-0.0534834
-0.0604269
-0.0672738
-0.0740243
-0.0806779
-0.0872334
-0.0936904
-0.100049
-0.106308
-0.112469
0.0213041
0.0131986
0.00498733
-0.00193921
-0.00840805
-0.0150112
-0.0216929
-0.0282826
-0.0347467
-0.0411189
-0.0474166
-0.0536355
-0.0597697
-0.0658186
-0.0717833
-0.0776646
-0.0834626
-0.0891777
-0.0948101
-0.100361
-0.10583
0.0130828
0.00585171
-0.00134696
-0.00747609
-0.0132358
-0.0191008
-0.0250236
-0.0308652
-0.0365961
-0.0422434
-0.0478233
-0.053334
-0.0587713
-0.0641346
-0.0694253
-0.0746445
-0.0797927
-0.0848706
-0.0898787
-0.0948178
-0.0996888
0.00626281
-0.000204964
-0.00650621
-0.0119193
-0.0170475
-0.0222594
-0.0275087
-0.032685
-0.037766
-0.0427737
-0.0477218
-0.0526097
-0.0574344
-0.0621957
-0.0668951
-0.0715338
-0.0761126
-0.0806323
-0.0850937
-0.0894979
-0.0938458
0.000640842
-0.0051438
-0.010648
-0.0154188
-0.0199822
-0.0246162
-0.0292715
-0.0338613
-0.0383708
-0.042818
-0.0472137
-0.0515576
-0.0558478
-0.0600843
-0.0642685
-0.0684015
-0.0724843
-0.0765176
-0.0805024
-0.0844396
-0.0883301
-0.00392586
-0.00909473
-0.0138981
-0.0181015
-0.0221643
-0.0262889
-0.0304225
-0.0344973
-0.0385049
-0.0424603
-0.0463717
-0.0502388
-0.0540604
-0.0578367
-0.061569
-0.0652582
-0.0689054
-0.0725114
-0.0760769
-0.079603
-0.0830905
-0.00757302
-0.0121901
-0.016383
-0.0200894
-0.0237101
-0.0273857
-0.0310611
-0.0346837
-0.0382502
-0.0417735
-0.0452595
-0.0487079
-0.0521178
-0.0554897
-0.0588247
-0.0621237
-0.0653876
-0.0686172
-0.0718132
-0.0749764
-0.0781076
-0.0104298
-0.0145549
-0.0182177
-0.0214893
-0.0247192
-0.0279985
-0.0312707
-0.0344955
-0.0376739
-0.0408167
-0.0439281
-0.0470077
-0.050055
-0.0530704
-0.056055
-0.0590096
-0.0619349
-0.0648316
-0.0677005
-0.0705422
-0.0733574
-0.0126105
-0.0162977
-0.0195004
-0.0223913
-0.0252754
-0.0282045
-0.0311213
-0.0339958
-0.0368319
-0.0396391
-0.04242
-0.0451741
-0.0479012
-0.0506016
-0.0532764
-0.0559261
-0.0585515
-0.0611532
-0.0637317
-0.0662877
-0.0688218
-0.0142136
-0.0175111
-0.0203146
-0.0228721
-0.0254499
-0.0280689
-0.0306722
-0.0332376
-0.0357716
-0.0382821
-0.0407708
-0.0432371
-0.0456806
-0.048102
-0.050502
-0.0528813
-0.0552403
-0.0575795
-0.0598996
-0.0622009
-0.0644842
-0.0153241
-0.0182747
-0.0207318
-0.0229972
-0.0253035
-0.0276476
-0.0299739
-0.0322663
-0.034533
-0.0367809
-0.0390107
-0.0412217
-0.0434137
-0.0455874
-0.0477433
-0.0498819
-0.0520037
-0.0541091
-0.0561986
-0.0582725
-0.0603314
-0.0160156
-0.0186575
-0.0208138
-0.022823
-0.0248883
-0.0269885
-0.0290697
-0.0311205
-0.0331504
-0.0351653
-0.0371653
-0.0391496
-0.0411181
-0.0430714
-0.0450099
-0.0469341
-0.0488443
-0.0507409
-0.0526243
-0.0544949
-0.056353
-0.0163518
-0.018719
-0.0206139
-0.0223983
-0.0242494
-0.0261328
-0.0279967
-0.0298335
-0.0316532
-0.0334611
-0.0352568
-0.0370394
-0.0388088
-0.0405656
-0.0423103
-0.044043
-0.0457641
-0.0474739
-0.0491728
-0.050861
-0.0525388
-0.0163882
-0.0185105
-0.0201783
-0.021765
-0.0234256
-0.0251162
-0.0267872
-0.0284339
-0.0300669
-0.0316906
-0.0333044
-0.0349072
-0.0364991
-0.0380806
-0.0396519
-0.0412134
-0.0427653
-0.0443078
-0.0458412
-0.0473657
-0.0488815
-0.0161727
-0.0180769
-0.0195469
-0.0209598
-0.0224507
-0.0239695
-0.025469
-0.0269469
-0.0284137
-0.0298732
-0.0313248
-0.0327672
-0.0342006
-0.0356253
-0.0370416
-0.0384498
-0.0398501
-0.0412425
-0.0426273
-0.0440047
-0.045375
-0.0157473
-0.0174569
-0.0187548
-0.0200144
-0.0213541
-0.0227197
-0.0240667
-0.0253943
-0.0267129
-0.0280261
-0.0293328
-0.0306319
-0.0319235
-0.033208
-0.0344856
-0.0357564
-0.0370206
-0.0382783
-0.0395297
-0.0407749
-0.0420141
-0.0151484
-0.0166844
-0.0178321
-0.0189567
-0.0201615
-0.0213903
-0.0226014
-0.0237952
-0.0249817
-0.0261642
-0.0273414
-0.0285124
-0.0296772
-0.030836
-0.0319892
-0.0331368
-0.0342789
-0.0354156
-0.036547
-0.0376733
-0.0387946
-0.0144078
-0.0157888
-0.0168057
-0.017811
-0.0188954
-0.0200019
-0.0210918
-0.0221663
-0.023235
-0.0243006
-0.0253621
-0.0264184
-0.0274695
-0.0285158
-0.0295574
-0.0305944
-0.0316268
-0.0326547
-0.0336782
-0.0346975
-0.0357125
-0.0135535
-0.0147959
-0.0156986
-0.0165987
-0.0175754
-0.0185727
-0.0195545
-0.0205225
-0.0214858
-0.0224469
-0.0234048
-0.0243584
-0.0253077
-0.026253
-0.0271945
-0.0281321
-0.0290659
-0.029996
-0.0309224
-0.0318453
-0.0327646
-0.0126099
-0.0137284
-0.0145313
-0.0153384
-0.0162188
-0.0171184
-0.0180036
-0.0188765
-0.0197456
-0.0206133
-0.0214784
-0.0223399
-0.0231979
-0.0240526
-0.0249041
-0.0257525
-0.0265977
-0.0274397
-0.0282788
-0.0291148
-0.0299479
-0.0115983
-0.0126059
-0.0133217
-0.0140464
-0.0148408
-0.0156529
-0.0164518
-0.0172397
-0.0180246
-0.0188085
-0.0195904
-0.0203694
-0.0211455
-0.0219188
-0.0226895
-0.0234576
-0.0242231
-0.024986
-0.0257463
-0.0265041
-0.0272594
-0.0105374
-0.0114458
-0.0120853
-0.0127371
-0.0134546
-0.0141883
-0.01491
-0.0156219
-0.0163313
-0.0170402
-0.0177475
-0.0184525
-0.019155
-0.0198553
-0.0205534
-0.0212493
-0.021943
-0.0226346
-0.023324
-0.0240113
-0.0246964
-0.00944346
-0.0102629
-0.0108356
-0.0114229
-0.0120714
-0.0127349
-0.0133875
-0.0140314
-0.0146733
-0.015315
-0.0159554
-0.0165938
-0.0172303
-0.0178649
-0.0184977
-0.0191287
-0.0197578
-0.0203851
-0.0210107
-0.0216344
-0.0222563
-0.00833055
-0.00907031
-0.00958449
-0.0101145
-0.0107013
-0.0113018
-0.0118926
-0.0124756
-0.0130569
-0.0136382
-0.0142186
-0.0147973
-0.0153744
-0.01595
-0.016524
-0.0170966
-0.0176676
-0.018237
-0.018805
-0.0193713
-0.0199362
-0.00721092
-0.00787923
-0.00834203
-0.00882122
-0.00935269
-0.00989676
-0.010432
-0.0109605
-0.0114875
-0.0120147
-0.0125411
-0.0130662
-0.0135899
-0.0141123
-0.0146335
-0.0151534
-0.015672
-0.0161893
-0.0167053
-0.0172199
-0.0177333
-0.00609508
-0.00669927
-0.00711691
-0.00755092
-0.0080328
-0.00852618
-0.00901173
-0.00949119
-0.00996952
-0.010448
-0.0109259
-0.0114028
-0.0118785
-0.0123531
-0.0128267
-0.0132992
-0.0137705
-0.0142408
-0.0147099
-0.0151779
-0.0156447
-0.00499198
-0.00553859
-0.00591647
-0.00631029
-0.00674767
-0.00719552
-0.00763643
-0.00807194
-0.00850649
-0.00894125
-0.0093756
-0.00980904
-0.0102415
-0.0106731
-0.0111037
-0.0115334
-0.0119622
-0.01239
-0.0128169
-0.0132427
-0.0136676
-0.0039092
-0.00440409
-0.00474688
-0.00510488
-0.00550231
-0.00590924
-0.00631004
-0.00670607
-0.00710127
-0.00749669
-0.00789181
-0.00828616
-0.00867967
-0.00907241
-0.00946438
-0.00985555
-0.0102459
-0.0106354
-0.011024
-0.0114118
-0.0117987
-0.00285309
-0.00330146
-0.00361322
-0.00393925
-0.00430079
-0.00467091
-0.00503564
-0.00539615
-0.00575594
-0.00611595
-0.00647572
-0.00683484
-0.00719325
-0.00755097
-0.00790803
-0.0082644
-0.00862004
-0.00897494
-0.00932907
-0.00968243
-0.010035
-0.00182887
-0.00223537
-0.00251962
-0.00281707
-0.00314632
-0.0034833
-0.00381556
-0.0041441
-0.00447199
-0.00480009
-0.00512799
-0.00545534
-0.00578205
-0.00610818
-0.00643372
-0.00675864
-0.00708292
-0.00740653
-0.00772946
-0.00805169
-0.0083732
-0.000840758
-0.00120955
-0.00146934
-0.00174118
-0.00204136
-0.00234848
-0.00265147
-0.00295119
-0.00325032
-0.00354963
-0.00384877
-0.00414742
-0.00444552
-0.0047431
-0.00504014
-0.00533663
-0.00563255
-0.00592786
-0.00622255
-0.00651661
-0.00681001
0.000107912
-0.000226882
-0.000464854
-0.000713715
-0.000987694
-0.00126787
-0.00154445
-0.00181815
-0.00209132
-0.00236463
-0.00263779
-0.00291051
-0.00318274
-0.00345448
-0.00372575
-0.00399652
-0.00426676
-0.00453645
-0.00480557
-0.0050741
-0.00534204
0.0010146
0.00071048
0.000492035
0.000263858
1.35228e-05
-0.000242313
-0.000495046
-0.000745236
-0.000994935
-0.00124474
-0.00149439
-0.00174365
-0.00199246
-0.00224083
-0.00248876
-0.00273623
-0.0029832
-0.00322967
-0.00347562
-0.00372101
-0.00396585
0.00187749
0.00160106
0.00140015
0.00119063
0.000961657
0.000727824
0.000496671
0.000267754
3.92977e-05
-0.000189222
-0.000417591
-0.0006456
-0.000873193
-0.00110038
-0.00132715
-0.00155349
-0.00177938
-0.00200479
-0.0022297
-0.00245411
-0.00267799
0.00269534
0.00244395
0.00225885
0.00206618
0.00185655
0.00164263
0.00143103
0.00122138
0.00101218
0.000802949
0.000593874
0.000385136
0.000176786
-3.11807e-05
-0.000238758
-0.000445926
-0.000652665
-0.000858955
-0.00106478
-0.00127012
-0.00147497
0.0034675
0.00323876
0.00306794
0.00289056
0.00269844
0.00250258
0.0023087
0.00211655
0.00192481
0.00173308
0.00154152
0.00135028
0.0011594
0.000968885
0.000778743
0.000588989
0.000399644
0.000210725
2.22489e-05
-0.00016577
-0.000353318
0.00419376
0.00398552
0.00382767
0.00366416
0.00348794
0.00330846
0.00313068
0.00295442
0.00277855
0.00260272
0.00242707
0.00225173
0.00207673
0.00190208
0.00172779
0.00155387
0.00138035
0.00120723
0.00103453
0.000862267
0.000690456
0.00487431
0.00468464
0.0045386
0.00438772
0.00422593
0.00406134
0.0038982
0.00373638
0.00357494
0.00341359
0.00325241
0.00309152
0.00293097
0.00277076
0.00261089
0.00245138
0.00229224
0.0021335
0.00197516
0.00181724
0.00165975
0.0055097
0.00533685
0.00520159
0.00506225
0.00491358
0.00476252
0.0046127
0.00446404
0.00431574
0.00416755
0.00401955
0.00387183
0.00372443
0.00357736
0.00343062
0.00328423
0.00313821
0.00299255
0.00284729
0.00270243
0.00255799
0.00610075
0.00594316
0.00581777
0.00568895
0.00555224
0.00541349
0.0052758
0.00513913
0.0050028
0.0048666
0.0047306
0.00459488
0.00445946
0.00432436
0.00418959
0.00405515
0.00392106
0.00378733
0.00365398
0.00352102
0.00338845
0.00664852
0.00650477
0.00638842
0.00626924
0.00614342
0.00601588
0.00588925
0.0057635
0.00563808
0.00551282
0.00538775
0.00526296
0.00513846
0.00501427
0.0048904
0.00476685
0.00464364
0.00452078
0.00439828
0.00427616
0.00415442
0.00715426
0.00702305
0.00691502
0.00680466
0.00668876
0.00657142
0.00645487
0.00633908
0.00622362
0.00610832
0.00599322
0.00587839
0.00576384
0.0056496
0.00553565
0.00542203
0.00530873
0.00519577
0.00508315
0.0049709
0.00485902
0.00761936
0.0074995
0.00739912
0.00729684
0.00718998
0.00708194
0.00697456
0.00686786
0.00676147
0.00665524
0.00654923
0.00644347
0.00633799
0.0062328
0.0061279
0.00602331
0.00591904
0.00581509
0.00571148
0.00560822
0.00550532
0.0080453
0.00793572
0.00784236
0.00774749
0.00764886
0.00754927
0.00745025
0.00735183
0.00725369
0.00715573
0.00705798
0.00696048
0.00686326
0.00676631
0.00666964
0.00657327
0.00647721
0.00638146
0.00628604
0.00619096
0.00609622
0.00843363
0.00833332
0.00824641
0.00815832
0.00806717
0.00797526
0.00788385
0.00779295
0.00770232
0.00761187
0.00752164
0.00743164
0.00734191
0.00725245
0.00716327
0.00707437
0.00698576
0.00689747
0.00680948
0.00672182
0.00663449
0.00878591
0.00869396
0.00861296
0.00853105
0.0084467
0.00836175
0.00827723
0.00819315
0.00810933
0.0080257
0.00794228
0.0078591
0.00777616
0.00769349
0.00761108
0.00752895
0.00744711
0.00736555
0.0072843
0.00720336
0.00910369
0.00901924
0.00894364
0.00886735
0.00878914
0.00871048
0.00863219
0.00855429
0.00847663
0.00839916
0.00832189
0.00824486
0.00816807
0.00809152
0.00801524
0.00793922
0.00786348
0.00778802
0.00771285
0.00763798
0.00938849
0.00931074
0.00924004
0.00916884
0.00909616
0.00902315
0.00895046
0.00887812
0.008806
0.00873407
0.00866235
0.00859084
0.00851957
0.00844854
0.00837776
0.00830724
0.00823698
0.008167
0.00809729
0.00802788
0.00964171
0.0095699
0.00950361
0.00943699
0.00936926
0.0093013
0.00923361
0.00916623
0.00909907
0.0090321
0.00896532
0.00889876
0.00883242
0.00876632
0.00870045
0.00863484
0.00856948
0.00850438
0.00843956
0.00837502