/*--------------------------------*- C++ -*----------------------------------*\
  =========                 |
  \\      /  F ield         | OpenFOAM: The Open Source CFD Toolbox
   \\    /   O peration     | Website:  https://openfoam.org
    \\  /    A nd           | Version:  7
     \\/     M anipulation  |
\*---------------------------------------------------------------------------*/
FoamFile
{
    version     2.0;
    format      ascii;
    class       surfaceScalarField;
    location    "220";
    object      phi;
}
// * * * * * * * * * * * * * * * * * * * * * * * * * * * * * * * * * * * * * //

dimensions      [0 3 -1 0 0 0 0];

internalField   nonuniform List<scalar> 
8878
(
-0.00422241
-0.00026194
-0.000260195
-0.00407934
-0.00418763
-0.000294974
-0.00022134
-0.00384172
-0.000255865
-0.00393999
-0.000291337
-0.00404386
-0.00415131
-0.000327658
-0.000214161
-0.00371582
-0.000249069
-0.00380681
-0.000285106
-0.00390396
-0.000322121
-0.00400685
-0.00411345
-0.000359982
-0.00020496
-0.00359674
-0.000240071
-0.0036807
-0.000276435
-0.00377044
-0.000313977
-0.00386642
-0.000352533
-0.00396829
-0.00407405
-0.000391934
-0.000193874
-0.00348381
-0.000229115
-0.0035615
-0.000265623
-0.0036442
-0.000303427
-0.00373264
-0.000342466
-0.00382738
-0.000382563
-0.0039282
-0.00403311
-0.000423501
-0.000180963
-0.00337617
-0.000216324
-0.00344845
-0.000252921
-0.0035249
-0.000290809
-0.00360631
-0.000330038
-0.00369341
-0.000370562
-0.00378685
-0.000412196
-0.00388656
-0.00399064
-0.000454672
-0.000166272
-0.00327269
-0.000201742
-0.0033407
-0.000238438
-0.00341176
-0.000276374
-0.00348696
-0.000315625
-0.00356706
-0.000356259
-0.00365278
-0.000398252
-0.00374486
-0.000441418
-0.0038434
-0.00394662
-0.000485431
-0.000149895
-0.0031717
-0.0001854
-0.00323719
-0.000222196
-0.0033039
-0.000260212
-0.00337374
-0.000299473
-0.0034477
-0.000340065
-0.00352646
-0.000382081
-0.00361076
-0.000425525
-0.00370142
-0.000470215
-0.00379871
-0.00390107
-0.000515764
-0.00013202
-0.00307025
-0.000167379
-0.00313635
-0.000204215
-0.00320035
-0.000242324
-0.00326579
-0.000281645
-0.00333442
-0.000322214
-0.00340713
-0.000364127
-0.00348455
-0.000407499
-0.00356739
-0.000452369
-0.00365655
-0.000498572
-0.0037525
-0.00385399
-0.000545655
-0.00011297
-0.00296325
-0.000147853
-0.00303537
-0.000184565
-0.00309963
-0.000222716
-0.0031622
-0.000262122
-0.00322638
-0.000302735
-0.00329381
-0.000344596
-0.00336527
-0.000387808
-0.00344134
-0.000432508
-0.00352269
-0.000478774
-0.00361028
-0.000526475
-0.0037048
-0.00380538
-0.000575087
-9.32438e-05
-0.0028426
-0.000127127
-0.00292937
-0.000163407
-0.00299909
-0.000201452
-0.00306159
-0.000240901
-0.00312275
-0.00028159
-0.00318569
-0.000323482
-0.00325192
-0.000366618
-0.00332214
-0.000411108
-0.00339685
-0.000457106
-0.00347669
-0.000504733
-0.00356265
-0.00055391
-0.00365562
-0.00375524
-0.000604045
-7.35337e-05
-0.00269648
-0.000105678
-0.00281046
-0.000141029
-0.00289402
-0.000178681
-0.00296144
-0.000218037
-0.00302223
-0.000258767
-0.00308202
-0.000300726
-0.00314374
-0.000343882
-0.00320876
-0.00038828
-0.00327774
-0.000434029
-0.0033511
-0.000481294
-0.00342943
-0.000530242
-0.00351371
-0.000580866
-0.003605
-0.0037036
-0.000632516
-5.47023e-05
-0.00250935
-8.4181e-05
-0.002667
-0.000117888
-0.00277675
-0.000154674
-0.00285723
-0.00019367
-0.00292244
-0.000234317
-0.00298159
-0.000276312
-0.00304003
-0.000319526
-0.00310052
-0.000363936
-0.00316435
-0.000409584
-0.00323209
-0.000456574
-0.00330411
-0.000505076
-0.00338092
-0.000555302
-0.00346348
-0.00060734
-0.00355296
-0.00365044
-0.000660493
-6.34917e-05
-0.00248355
-9.464e-05
-0.00263585
-0.000129871
-0.00274152
-0.000168059
-0.00281904
-0.000208374
-0.00288212
-0.000250291
-0.00293967
-0.000293534
-0.00299678
-0.00033799
-0.00305607
-0.000383642
-0.0031187
-0.00043053
-0.0031852
-0.000478748
-0.00325589
-0.000528463
-0.00333121
-0.000579922
-0.00341202
-0.000633334
-0.00349955
-0.00359581
-0.000687967
-4.45719e-05
-0.00224188
-7.21327e-05
-0.00245599
-0.000104906
-0.00260308
-0.000141622
-0.00270481
-0.000181181
-0.00277949
-0.00022279
-0.00284052
-0.000265956
-0.0028965
-0.00031043
-0.00295231
-0.000356114
-0.00301038
-0.000402997
-0.00307181
-0.000451118
-0.00313708
-0.000500558
-0.00320645
-0.000551467
-0.0032803
-0.000604121
-0.00335937
-0.000658865
-0.00344481
-0.00353973
-0.000714948
-2.83542e-05
-0.00192328
-5.13427e-05
-0.0022189
-8.06204e-05
-0.00242671
-0.000114976
-0.00256872
-0.000153139
-0.00266664
-0.000194038
-0.00273859
-0.000236914
-0.00279764
-0.00028131
-0.00285211
-0.000326998
-0.00290662
-0.000373895
-0.00296348
-0.000421999
-0.00302371
-0.000471347
-0.00308774
-0.000522007
-0.00315579
-0.000574104
-0.0032282
-0.000627929
-0.00330554
-0.000683973
-0.00338876
-0.00348219
-0.000741507
-3.32516e-05
-0.0019056
-5.8001e-05
-0.00219415
-8.89504e-05
-0.00239576
-0.000124845
-0.00253282
-0.000164418
-0.00262707
-0.000206626
-0.00269638
-0.000250745
-0.00275352
-0.000296349
-0.0028065
-0.000343233
-0.00285974
-0.000391329
-0.00291539
-0.000440643
-0.0029744
-0.000491213
-0.00303717
-0.000543098
-0.00310391
-0.00059639
-0.00317491
-0.000651383
-0.00325055
-0.000708721
-0.00333142
-0.00342316
-0.000767756
-1.86876e-05
-0.00149959
-3.80756e-05
-0.00188621
-6.45423e-05
-0.00216768
-9.71186e-05
-0.00236318
-0.000134511
-0.00249543
-0.000175458
-0.00258612
-0.000218944
-0.00265289
-0.000264281
-0.00270818
-0.000311071
-0.00275971
-0.000359132
-0.00281168
-0.00040841
-0.00286611
-0.000458921
-0.00292389
-0.000510709
-0.00298538
-0.000563826
-0.00305079
-0.000618344
-0.00312039
-0.000674542
-0.00319435
-0.000733141
-0.00327282
-0.00336256
-0.00079374
-8.18585e-06
-0.000990223
-2.17642e-05
-0.00148601
-4.28222e-05
-0.00186515
-7.09627e-05
-0.00213954
-0.000105121
-0.00232902
-0.000143971
-0.00245658
-0.000186255
-0.00254384
-0.00023099
-0.00260816
-0.000277518
-0.00266166
-0.000325473
-0.00271176
-0.00037469
-0.00276246
-0.000425133
-0.00281567
-0.000476825
-0.00287219
-0.000529821
-0.00293238
-0.000584179
-0.00299643
-0.00063998
-0.00306459
-0.000697498
-0.00313683
-0.000757262
-0.00321306
-0.00330011
-0.00081971
-9.74435e-06
-0.000982424
-2.47974e-05
-0.00147096
-4.74874e-05
-0.00184246
-7.72584e-05
-0.00210977
-0.000112955
-0.00229333
-0.000153221
-0.00241632
-0.000196808
-0.00250025
-0.000242761
-0.0025622
-0.000290456
-0.00261396
-0.000339551
-0.00266266
-0.000389904
-0.00271211
-0.000441489
-0.00276408
-0.000494342
-0.00281934
-0.000548528
-0.0028782
-0.000604122
-0.00294084
-0.000661257
-0.00300746
-0.000720273
-0.00307782
-0.000781883
-0.00315145
-0.00323752
-0.000844476
-2.40282e-06
-0.000372373
-1.12803e-05
-0.000973546
-2.77785e-05
-0.00145446
-5.20616e-05
-0.00181818
-8.34192e-05
-0.00207841
-0.000120611
-0.00225614
-0.000162252
-0.00237468
-0.000207107
-0.0024554
-0.000254249
-0.00251506
-0.000303084
-0.00256513
-0.000353297
-0.00261245
-0.000404763
-0.00266064
-0.000457468
-0.00271138
-0.000511457
-0.00276535
-0.000566801
-0.00282285
-0.000623602
-0.00288404
-0.000682052
-0.00294901
-0.000742301
-0.00301757
-0.000803399
-0.00309035
-0.00316972
-0.000871195
-2.85865e-06
-0.000369515
-1.28e-05
-0.000963605
-3.07155e-05
-0.00143654
-5.65539e-05
-0.00179234
-8.94552e-05
-0.00204551
-0.000128099
-0.00221749
-0.000171077
-0.0023317
-0.000217165
-0.00240931
-0.000265465
-0.00246676
-0.000315414
-0.00251518
-0.000366721
-0.00256114
-0.000419276
-0.00260809
-0.000473076
-0.00265758
-0.000528171
-0.00271026
-0.000584641
-0.00276638
-0.000642593
-0.00282608
-0.000702196
-0.0028894
-0.000763496
-0.00295627
-0.000826501
-0.00302735
-0.00310255
-0.000893675
-3.30939e-06
-0.000366205
-1.42974e-05
-0.000952617
-3.36003e-05
-0.00141724
-6.09549e-05
-0.00176498
-9.53569e-05
-0.00201111
-0.00013541
-0.00217744
-0.000179685
-0.00228742
-0.000226973
-0.00236202
-0.000276402
-0.00241733
-0.000327438
-0.00246414
-0.000379813
-0.00250877
-0.000433433
-0.00255447
-0.000488302
-0.00260271
-0.000544476
-0.00265408
-0.000602037
-0.00270882
-0.000661093
-0.00276703
-0.00072178
-0.00282872
-0.000784162
-0.00289389
-0.000848499
-0.00296301
-0.00303524
-0.000915802
-3.75446e-06
-0.000362451
-1.57709e-05
-0.000940601
-3.64305e-05
-0.00139658
-6.5262e-05
-0.00173615
-0.000101122
-0.00197525
-0.000142542
-0.00213602
-0.000188076
-0.00224189
-0.000236529
-0.00231357
-0.000287057
-0.00236681
-0.000339154
-0.00241204
-0.000392572
-0.00245535
-0.000447231
-0.00249981
-0.000503144
-0.00254679
-0.000560369
-0.00259686
-0.00061899
-0.0026502
-0.000679109
-0.00270691
-0.000740841
-0.00276699
-0.000804274
-0.00283045
-0.000869664
-0.00289762
-0.00296748
-0.000937432
-4.19335e-06
-0.000358257
-1.72189e-05
-0.000927575
-3.92037e-05
-0.0013746
-6.94723e-05
-0.00170588
-0.000106747
-0.00193797
-0.000149493
-0.00209327
-0.000196248
-0.00219514
-0.000245833
-0.00226399
-0.00029743
-0.00231521
-0.000350561
-0.00235891
-0.000404997
-0.00240091
-0.00046067
-0.00244413
-0.0005176
-0.00248986
-0.000575848
-0.00253861
-0.000635497
-0.00259055
-0.000696644
-0.00264576
-0.000759391
-0.00270424
-0.000823832
-0.00276601
-0.000890166
-0.00283129
-0.00289907
-0.000958573
-4.62553e-06
-0.000353632
-1.86401e-05
-0.00091356
-4.19178e-05
-0.00135132
-7.35837e-05
-0.00167422
-0.00011223
-0.00189933
-0.000156261
-0.00204924
-0.0002042
-0.0021472
-0.000254882
-0.0022133
-0.00030752
-0.00226257
-0.000361657
-0.00230478
-0.000417085
-0.00234549
-0.000473747
-0.00238747
-0.000531667
-0.00243194
-0.000590911
-0.00247937
-0.000651558
-0.0025299
-0.000713702
-0.00258362
-0.000777435
-0.00264051
-0.000842849
-0.0027006
-0.000910089
-0.00276405
-0.00282992
-0.000979233
-5.05051e-06
-0.000348581
-2.00329e-05
-0.000898578
-4.45707e-05
-0.00132678
-7.75938e-05
-0.00164119
-0.00011757
-0.00185935
-0.000162845
-0.00200397
-0.000211929
-0.00209811
-0.000263677
-0.00216155
-0.000317325
-0.00220892
-0.000372442
-0.00224966
-0.000428836
-0.00228909
-0.000486461
-0.00232985
-0.000545346
-0.00237306
-0.000605557
-0.00241915
-0.000667175
-0.00246829
-0.000730288
-0.00252051
-0.000794981
-0.00257581
-0.000861338
-0.00263424
-0.00092947
-0.00269592
-0.00275998
-5.46779e-06
-0.000343114
-2.13961e-05
-0.00088265
-4.71606e-05
-0.00130102
-8.15006e-05
-0.00160685
-0.000122765
-0.00181809
-0.000169242
-0.00195749
-0.000219436
-0.00204792
-0.000272217
-0.00210877
-0.000326846
-0.00215429
-0.000382915
-0.00219359
-0.000440249
-0.00223176
-0.00049881
-0.00227129
-0.000558634
-0.00231324
-0.000619787
-0.002358
-0.000682349
-0.00240572
-0.000746404
-0.00245645
-0.000812032
-0.00251018
-0.000879311
-0.00256696
-0.000948331
-0.0026269
-0.00268919
-5.87691e-06
-0.000337237
-2.27285e-05
-0.000865798
-4.96857e-05
-0.00127406
-8.53023e-05
-0.00157124
-0.000127812
-0.00177558
-0.000175452
-0.00190985
-0.000226719
-0.00199665
-0.0002805
-0.00205499
-0.000336081
-0.00209871
-0.000393075
-0.00213659
-0.000451323
-0.00217351
-0.000510796
-0.00221181
-0.000571532
-0.0022525
-0.000633601
-0.00229593
-0.00069708
-0.00234224
-0.000762052
-0.00239148
-0.000828593
-0.00244364
-0.000896776
-0.00249878
-0.000966678
-0.00255699
-0.00261755
-6.27738e-06
-0.000330959
-2.40288e-05
-0.000848047
-5.21443e-05
-0.00124594
-8.89971e-05
-0.00153439
-0.000132711
-0.00173186
-0.000181474
-0.00186108
-0.000233778
-0.00194435
-0.000288527
-0.00200024
-0.00034503
-0.00204221
-0.000402922
-0.0020787
-0.000462057
-0.00211438
-0.000522415
-0.00215146
-0.000584039
-0.00219087
-0.000646998
-0.00223297
-0.000711369
-0.00227787
-0.000777234
-0.00232561
-0.000844667
-0.00237621
-0.000913737
-0.00242971
-0.000984516
-0.00248621
-6.66879e-06
-0.000324291
-2.5296e-05
-0.000829419
-5.45349e-05
-0.00121671
-9.25834e-05
-0.00149634
-0.000137459
-0.00168699
-0.000187307
-0.00181124
-0.000240612
-0.00189104
-0.000296296
-0.00194456
-0.000353693
-0.00198481
-0.000412455
-0.00201994
-0.000472452
-0.00205438
-0.000533669
-0.00209024
-0.000596154
-0.00212839
-0.000659977
-0.00216915
-0.000725216
-0.00221263
-0.00079195
-0.00225888
-0.000860253
-0.00230791
-0.000930194
-0.00235977
-0.00241457
-7.05071e-06
-0.00031724
-2.65291e-05
-0.000809941
-5.68562e-05
-0.00118638
-9.60598e-05
-0.00145713
-0.000142057
-0.00164099
-0.000192949
-0.00176035
-0.00024722
-0.00183677
-0.000303808
-0.00188797
-0.000362068
-0.00192655
-0.000421674
-0.00196033
-0.000482505
-0.00199355
-0.000544556
-0.00202819
-0.000607877
-0.00206507
-0.000672539
-0.00210449
-0.000738621
-0.00214655
-0.000806201
-0.0021913
-0.000875354
-0.00223875
-0.000946148
-0.00228898
-0.00234206
-7.42273e-06
-0.000309817
-2.7727e-05
-0.000789637
-5.91067e-05
-0.001155
-9.9425e-05
-0.00141681
-0.000146502
-0.00159391
-0.0001984
-0.00170845
-0.000253601
-0.00178157
-0.000311061
-0.00183051
-0.000370156
-0.00186746
-0.000430578
-0.00189991
-0.000492217
-0.00193191
-0.000555076
-0.00196533
-0.000619207
-0.00200094
-0.000684682
-0.00203901
-0.000751582
-0.00207965
-0.000819985
-0.0021229
-0.000889967
-0.00216877
-0.000961595
-0.00221735
-7.78448e-06
-0.000302033
-2.88888e-05
-0.000768532
-6.12853e-05
-0.0011226
-0.000102678
-0.00137542
-0.000150794
-0.0015458
-0.000203659
-0.00165558
-0.000259756
-0.00172547
-0.000318056
-0.00177221
-0.000377957
-0.00180756
-0.000439167
-0.0018387
-0.000501588
-0.00186949
-0.000565228
-0.00190169
-0.000630142
-0.00193602
-0.000696407
-0.00197275
-0.0007641
-0.00201196
-0.000833302
-0.0020537
-0.00090409
-0.00209799
-0.0021449
-8.13559e-06
-0.000293897
-3.00138e-05
-0.000746654
-6.33908e-05
-0.00108923
-0.000105816
-0.001333
-0.000154931
-0.00149668
-0.000208726
-0.00160179
-0.000265684
-0.00166852
-0.000324792
-0.0017131
-0.00038547
-0.00174688
-0.00044744
-0.00177673
-0.000510616
-0.00180631
-0.00057501
-0.00183729
-0.000640683
-0.00187035
-0.00070771
-0.00190572
-0.000776172
-0.0019435
-0.000846149
-0.00198372
-0.00091772
-0.00202641
-0.00207166
-8.47572e-06
-0.000285421
-3.1101e-05
-0.000724029
-6.5422e-05
-0.0010549
-0.000108841
-0.00128958
-0.000158914
-0.00144661
-0.0002136
-0.0015471
-0.000271384
-0.00161073
-0.00033127
-0.00165322
-0.000392694
-0.00168545
-0.000455397
-0.00171403
-0.0005193
-0.00174241
-0.000584423
-0.00177217
-0.000650828
-0.00180395
-0.000718592
-0.00183796
-0.000787797
-0.00187429
-0.000858525
-0.00191299
-0.000930856
-0.00195408
-0.00199765
-8.80454e-06
-0.000276617
-3.21497e-05
-0.000700684
-6.73781e-05
-0.00101968
-0.000111749
-0.00124521
-0.00016274
-0.00139562
-0.00021828
-0.00149156
-0.000276856
-0.00155216
-0.000337487
-0.00159258
-0.00039963
-0.00162331
-0.000463037
-0.00165062
-0.000527641
-0.0016778
-0.000593466
-0.00170635
-0.000660576
-0.00173684
-0.00072905
-0.00176948
-0.000798972
-0.00180437
-0.000870426
-0.00184154
-0.000943492
-0.00188102
-9.12174e-06
-0.000267495
-3.31593e-05
-0.000676646
-6.92581e-05
-0.000983577
-0.000114541
-0.00119992
-0.00016641
-0.00134375
-0.000222767
-0.0014352
-0.000282099
-0.00149282
-0.000343445
-0.00153124
-0.000406277
-0.00156048
-0.00047036
-0.00158654
-0.000535637
-0.00161253
-0.000602136
-0.00163985
-0.000669925
-0.00166905
-0.000739083
-0.00170033
-0.000809696
-0.00173376
-0.00088185
-0.00176938
-0.00180724
-9.42704e-06
-0.000258068
-3.41289e-05
-0.000651944
-7.1061e-05
-0.000946645
-0.000117215
-0.00115377
-0.000169922
-0.00129104
-0.000227058
-0.00137807
-0.000287114
-0.00143277
-0.000349143
-0.00146921
-0.000412634
-0.00149699
-0.000477366
-0.00152181
-0.000543288
-0.00154661
-0.000610434
-0.0015727
-0.000678874
-0.00160061
-0.000748689
-0.00163051
-0.000819967
-0.00166248
-0.000892794
-0.00169656
-0.00173278
-9.72013e-06
-0.000248348
-3.5058e-05
-0.000626607
-7.2786e-05
-0.000908917
-0.000119771
-0.00110679
-0.000173276
-0.00123754
-0.000231154
-0.00132019
-0.0002919
-0.00137202
-0.000354581
-0.00140653
-0.000418701
-0.00143287
-0.000484052
-0.00145646
-0.000550592
-0.00148007
-0.000618358
-0.00150494
-0.000687422
-0.00153154
-0.000757867
-0.00156006
-0.000829782
-0.00159056
-0.000903255
-0.00162308
-0.00165766
-1.00008e-05
-0.000238347
-3.5946e-05
-0.000600661
-7.44325e-05
-0.00087043
-0.000122208
-0.00105901
-0.000176472
-0.00118327
-0.000235055
-0.00126161
-0.000296456
-0.00131062
-0.000359757
-0.00134323
-0.000424477
-0.00136815
-0.00049042
-0.00139051
-0.00055755
-0.00141294
-0.000625907
-0.00143658
-0.000695567
-0.00146189
-0.000766614
-0.00148902
-0.000839139
-0.00151804
-0.00091323
-0.00154899
-1.02687e-05
-0.000228078
-3.67923e-05
-0.000574138
-7.59995e-05
-0.000831223
-0.000124525
-0.00101048
-0.000179508
-0.00112829
-0.00023876
-0.00120235
-0.000300783
-0.0012486
-0.000364673
-0.00127934
-0.000429963
-0.00130286
-0.000496468
-0.00132401
-0.000564159
-0.00134525
-0.000633079
-0.00136766
-0.000703307
-0.00139166
-0.000774929
-0.0014174
-0.000848035
-0.00144493
-0.00147431
-1.05237e-05
-0.000217555
-3.75964e-05
-0.000547065
-7.74866e-05
-0.000791333
-0.000126722
-0.00096125
-0.000182384
-0.00107263
-0.000242268
-0.00114247
-0.00030488
-0.00118599
-0.000369327
-0.00121489
-0.000435158
-0.00123703
-0.000502196
-0.00125697
-0.000570419
-0.00127702
-0.000639875
-0.0012982
-0.000710642
-0.00132089
-0.000782809
-0.00134523
-0.000856468
-0.00137127
-0.00139906
-1.07656e-05
-0.000206789
-3.83578e-05
-0.000519473
-7.8893e-05
-0.000750798
-0.000128797
-0.000911345
-0.000185101
-0.00101632
-0.00024558
-0.00108199
-0.000308746
-0.00112282
-0.00037372
-0.00114992
-0.000440061
-0.00117069
-0.000507603
-0.00118943
-0.000576329
-0.0012083
-0.000646291
-0.00122824
-0.000717569
-0.00124961
-0.000790252
-0.00127254
-0.000864435
-0.00129709
-0.00132329
-1.0994e-05
-0.000195795
-3.9076e-05
-0.000491391
-8.02181e-05
-0.000709656
-0.000130751
-0.000860812
-0.000187656
-0.000959419
-0.000248695
-0.00102095
-0.000312381
-0.00105913
-0.00037785
-0.00108445
-0.000444671
-0.00110387
-0.000512688
-0.00112141
-0.000581889
-0.0011391
-0.000652328
-0.0011578
-0.000724087
-0.00117785
-0.000797258
-0.00119937
-0.000871935
-0.00122241
-0.00124701
-1.12089e-05
-0.000184586
-3.97506e-05
-0.000462849
-8.14614e-05
-0.000667945
-0.000132583
-0.000809691
-0.00019005
-0.000901952
-0.000251612
-0.000959391
-0.000315786
-0.000994959
-0.000381717
-0.00101852
-0.000448988
-0.00103659
-0.000517451
-0.00105295
-0.000587096
-0.00106945
-0.000657983
-0.00108691
-0.000730195
-0.00110564
-0.000803824
-0.00112575
-0.000878966
-0.00114727
-1.14101e-05
-0.000173176
-4.03811e-05
-0.000433878
-8.26223e-05
-0.000625704
-0.000134292
-0.000758021
-0.000192283
-0.00084396
-0.000254331
-0.000897344
-0.000318959
-0.000930331
-0.000385322
-0.000952155
-0.000453013
-0.000968903
-0.00052189
-0.00098407
-0.000591951
-0.00099939
-0.000663256
-0.00101561
-0.00073589
-0.00103301
-0.000809947
-0.00105169
-0.0010717
-1.15973e-05
-0.000161579
-4.09672e-05
-0.000404508
-8.37004e-05
-0.00058297
-0.000135878
-0.000705844
-0.000194354
-0.000785484
-0.000256852
-0.000834845
-0.0003219
-0.000865283
-0.000388663
-0.000885392
-0.000456743
-0.000900823
-0.000526006
-0.000914807
-0.000596453
-0.000928943
-0.000668146
-0.000943915
-0.000741173
-0.000959981
-0.000815627
-0.000977234
-0.000995715
-1.17705e-05
-0.000149808
-4.15086e-05
-0.00037477
-8.46953e-05
-0.000539784
-0.00013734
-0.000653199
-0.000196262
-0.000726563
-0.000259175
-0.000771933
-0.000324609
-0.000799849
-0.00039174
-0.000818261
-0.000460179
-0.000832384
-0.000529797
-0.000845189
-0.0006006
-0.00085814
-0.000672652
-0.000871863
-0.000746041
-0.000886592
-0.000820863
-0.000902412
-0.000919361
-1.19294e-05
-0.000137879
-4.20049e-05
-0.000344695
-8.56064e-05
-0.000496182
-0.000138679
-0.000600127
-0.000198008
-0.000667233
-0.000261299
-0.000708642
-0.000327086
-0.000734061
-0.000394554
-0.000750794
-0.00046332
-0.000763618
-0.000533264
-0.000775246
-0.000604392
-0.000787012
-0.000676772
-0.000799483
-0.000750493
-0.000812872
-0.000825651
-0.000827254
-0.000842666
-1.2074e-05
-0.000125805
-4.24558e-05
-0.000314313
-8.64335e-05
-0.000452204
-0.000139893
-0.000546667
-0.00019959
-0.000607536
-0.000263223
-0.000645009
-0.000329331
-0.000667953
-0.000397103
-0.000683022
-0.000466167
-0.000694554
-0.000536404
-0.000705008
-0.000607828
-0.000715588
-0.000680506
-0.000726806
-0.000754528
-0.00073885
-0.000829991
-0.00075179
-0.000765659
-1.22041e-05
-0.000113601
-4.28611e-05
-0.000283656
-8.71762e-05
-0.000407889
-0.000140982
-0.000492861
-0.00020101
-0.000547508
-0.000264949
-0.00058107
-0.000331342
-0.00060156
-0.000399387
-0.000614977
-0.000468717
-0.000625224
-0.000539219
-0.000634506
-0.000610907
-0.0006439
-0.000683852
-0.000653861
-0.000758144
-0.000664557
-0.000833882
-0.000676052
-0.000688374
-1.23196e-05
-0.000101281
-4.32205e-05
-0.000252755
-8.78342e-05
-0.000363276
-0.000141946
-0.000438749
-0.000202265
-0.000487189
-0.000266475
-0.00051686
-0.000333121
-0.000534914
-0.000401406
-0.000546691
-0.000470971
-0.000555659
-0.000541707
-0.000563771
-0.000613629
-0.000571977
-0.00068681
-0.00058068
-0.000761342
-0.000590026
-0.000837323
-0.000600071
-0.000610842
-1.24204e-05
-8.88608e-05
-4.35338e-05
-0.000221641
-8.84071e-05
-0.000318402
-0.000142785
-0.000384371
-0.000203357
-0.000426617
-0.000267801
-0.000452416
-0.000334666
-0.000468049
-0.00040316
-0.000478197
-0.000472929
-0.000485891
-0.000543867
-0.000492833
-0.000615993
-0.000499851
-0.00068938
-0.000507293
-0.000764119
-0.000515287
-0.000840311
-0.000523879
-0.000533094
-1.25065e-05
-7.63543e-05
-4.38008e-05
-0.000190347
-8.88949e-05
-0.000273308
-0.000143499
-0.000329767
-0.000204285
-0.000365831
-0.000268927
-0.000387774
-0.000335977
-0.000400999
-0.000404649
-0.000409525
-0.00047459
-0.000415949
-0.0005457
-0.000421723
-0.000617998
-0.000427553
-0.000691559
-0.000433732
-0.000766475
-0.00044037
-0.000842847
-0.000447507
-0.000455164
-1.25777e-05
-6.37766e-05
-4.40213e-05
-0.000158903
-8.92971e-05
-0.000228032
-0.000144087
-0.000274977
-0.000205048
-0.00030487
-0.000269853
-0.000322969
-0.000337055
-0.000333797
-0.000405871
-0.000340709
-0.000475954
-0.000345866
-0.000547205
-0.000350473
-0.000619645
-0.000355113
-0.000693349
-0.000360029
-0.00076841
-0.000365309
-0.000844929
-0.000370988
-0.000377082
-1.2634e-05
-5.11426e-05
-4.41953e-05
-0.000127342
-8.96138e-05
-0.000182614
-0.000144548
-0.000220043
-0.000205647
-0.000243771
-0.000270579
-0.000258038
-0.000337898
-0.000266478
-0.000406827
-0.00027178
-0.000477021
-0.000275672
-0.000548381
-0.000279113
-0.000620932
-0.000282563
-0.000694747
-0.000286213
-0.000769922
-0.000290134
-0.000846557
-0.000294353
-1.26754e-05
-3.84672e-05
-4.43225e-05
-9.56949e-05
-8.98446e-05
-0.000137092
-0.000144884
-0.000165003
-0.000206081
-0.000182574
-0.000271104
-0.000193015
-0.000338508
-0.000199073
-0.000407517
-0.000202771
-0.00047779
-0.0002054
-0.000549229
-0.000207674
-0.000621858
-0.000209933
-0.000695754
-0.000212317
-0.000771011
-0.000214878
-0.000217634
-1.27018e-05
-2.57655e-05
-4.4403e-05
-6.39937e-05
-8.99896e-05
-9.15053e-05
-0.000145094
-0.000109899
-0.000206351
-0.000121317
-0.000271428
-0.000127938
-0.000338883
-0.000131618
-0.000407941
-0.000133713
-0.000478261
-0.00013508
-0.000549747
-0.000136187
-0.000622425
-0.000137255
-0.00069637
-0.000138372
-0.000771677
-0.000139571
-0.000140864
-1.27131e-05
-1.30524e-05
-4.44366e-05
-3.22702e-05
-9.00486e-05
-4.58934e-05
-0.000145177
-5.47706e-05
-0.000206456
-6.00381e-05
-0.000271552
-6.28424e-05
-0.000339024
-6.41461e-05
-0.000408098
-6.46387e-05
-0.000478434
-6.47441e-05
-0.000549936
-6.46847e-05
-0.000622631
-6.45604e-05
-0.000696594
-6.44095e-05
-0.000771919
-6.42455e-05
-6.40746e-05
-1.27094e-05
-3.42992e-07
-4.44233e-05
-5.56238e-07
-9.00215e-05
-2.95216e-07
-0.000145134
3.41571e-07
-0.000206395
1.22358e-06
-0.000271474
2.23653e-06
-0.00033893
3.3095e-06
-0.000407988
4.41945e-06
-0.000478309
5.57638e-06
-0.000549796
6.80296e-06
-0.000622476
8.11967e-06
-0.000696425
9.53901e-06
-0.000771737
1.10662e-05
1.2702e-05
-1.26907e-05
1.23478e-05
-4.43633e-05
3.11163e-05
-8.99086e-05
4.52501e-05
-0.000144964
5.53973e-05
-0.00020617
6.24296e-05
-0.000271196
6.72625e-05
-0.000338602
7.07149e-05
-0.000407612
7.34294e-05
-0.000477885
7.58499e-05
-0.000549327
7.82445e-05
-0.000621961
8.0754e-05
-0.000695864
8.3442e-05
-0.00077113
8.63326e-05
8.94334e-05
-1.26571e-05
2.50048e-05
-4.42564e-05
6.27156e-05
-8.97097e-05
9.07033e-05
-0.000144668
0.000110356
-0.00020578
0.000123542
-0.000270717
0.0001322
-0.000338039
0.000138036
-0.000406968
0.000142359
-0.000477163
0.000146045
-0.000548528
0.000149609
-0.000621085
0.000153311
-0.000694911
0.000157268
-0.0007701
0.000161522
0.000166087
-1.26084e-05
3.76133e-05
-4.41027e-05
9.42099e-05
-8.94248e-05
0.000136025
-0.000144246
0.000165178
-0.000205225
0.000184521
-0.000270038
0.000197012
-0.000337241
0.00020524
-0.000406058
0.000211176
-0.000476143
0.00021613
-0.000547399
0.000220864
-0.000619848
0.00022576
-0.000693565
0.000230985
-0.000768645
0.000236602
-0.00084519
0.000242632
0.000249083
-1.25448e-05
5.01581e-05
-4.39023e-05
0.000125567
-8.90541e-05
0.000181177
-0.000143698
0.000219822
-0.000204506
0.000245328
-0.000269157
0.000261663
-0.000336209
0.000272292
-0.000404881
0.000279848
-0.000474825
0.000286074
-0.000545941
0.00029198
-0.00061825
0.00029807
-0.000691827
0.000304563
-0.000766767
0.000311541
-0.000843169
0.000319034
0.000327052
-1.24663e-05
6.26244e-05
-4.36553e-05
0.000156756
-8.85977e-05
0.000226119
-0.000143023
0.000274247
-0.000203621
0.000305926
-0.000268075
0.000326117
-0.000334942
0.000339159
-0.000403437
0.000348343
-0.000473208
0.000355846
-0.000544153
0.000362924
-0.000616291
0.000370208
-0.000689697
0.000377969
-0.000764464
0.000386308
-0.000840693
0.000395263
0.000404847
-1.2373e-05
7.49974e-05
-4.33618e-05
0.000187745
-8.80556e-05
0.000270813
-0.000142223
0.000328415
-0.000202572
0.000366274
-0.000266793
0.000390338
-0.000333441
0.000405807
-0.000401726
0.000416628
-0.000471293
0.000425413
-0.000542036
0.000433667
-0.000613972
0.000442145
-0.000687176
0.000451172
-0.000761738
0.000460871
-0.000837761
0.000471285
0.000482433
-1.22649e-05
8.72623e-05
-4.3022e-05
0.000218503
-8.74282e-05
0.000315219
-0.000141297
0.000382283
-0.000201357
0.000426335
-0.000265309
0.00045429
-0.000331704
0.000472203
-0.000399748
0.000484672
-0.00046908
0.000494744
-0.00053959
0.000504177
-0.000611293
0.000513848
-0.000684263
0.000524141
-0.00075859
0.000535198
-0.000834374
0.00054707
0.000559778
-1.21421e-05
9.94043e-05
-4.26361e-05
0.000248997
-8.67157e-05
0.000359299
-0.000140244
0.000435812
-0.000199979
0.00048607
-0.000263625
0.000517936
-0.000329734
0.000538311
-0.000397504
0.000552442
-0.000466569
0.000563809
-0.000536814
0.000574422
-0.000608254
0.000585288
-0.000680958
0.000596845
-0.000755018
0.000609258
-0.000830533
0.000622585
0.00063685
-1.20047e-05
0.000111409
-4.22042e-05
0.000279196
-8.59183e-05
0.000403013
-0.000139067
0.000488961
-0.000198436
0.000545439
-0.000261741
0.000581241
-0.000327529
0.000604099
-0.000394993
0.000619907
-0.00046376
0.000632576
-0.000533711
0.000644372
-0.000604856
0.000656433
-0.000677264
0.000669253
-0.000751025
0.000683019
-0.000826239
0.000697798
0.000713618
-1.18529e-05
0.000123262
-4.17267e-05
0.00030907
-8.50362e-05
0.000446323
-0.000137764
0.000541689
-0.000196729
0.000604403
-0.000259656
0.000644167
-0.00032509
0.000669534
-0.000392216
0.000687033
-0.000460654
0.000701014
-0.000530279
0.000713997
-0.000601098
0.000727253
-0.000673179
0.000741334
-0.000746611
0.000756451
-0.000821492
0.000772679
0.000790048
-1.16867e-05
0.000134949
-4.12038e-05
0.000338587
-8.407e-05
0.000489189
-0.000136337
0.000593956
-0.000194859
0.000662925
-0.000257371
0.00070668
-0.000322417
0.000734579
-0.000389173
0.000753789
-0.00045725
0.000769091
-0.000526519
0.000783266
-0.000596983
0.000797717
-0.000668706
0.000813057
-0.000741777
0.000829523
-0.000816294
0.000847195
0.00086611
-1.15064e-05
0.000146455
-4.06357e-05
0.000367716
-8.30199e-05
0.000531573
-0.000134785
0.000645721
-0.000192824
0.000720964
-0.000254886
0.000768741
-0.00031951
0.000799203
-0.000385864
0.000820144
-0.00045355
0.000836778
-0.000522431
0.000852147
-0.000592509
0.000867794
-0.000663844