/*--------------------------------*- C++ -*----------------------------------*\
  =========                 |
  \\      /  F ield         | OpenFOAM: The Open Source CFD Toolbox
   \\    /   O peration     | Website:  https://openfoam.org
    \\  /    A nd           | Version:  7
     \\/     M anipulation  |
\*---------------------------------------------------------------------------*/
FoamFile
{
    version     2.0;
    format      ascii;
    class       volVectorField;
    location    "220";
    object      U;
}
// * * * * * * * * * * * * * * * * * * * * * * * * * * * * * * * * * * * * * //

dimensions      [0 1 -1 0 0 0 0];

internalField   nonuniform List<vector> 
4575
(
(1.18399 0.341295 -1.35504e-20)
(1.18156 0.360923 4.97603e-20)
(1.17455 0.345292 -4.70167e-20)
(1.18385 0.402337 -5.82204e-20)
(1.17735 0.382996 2.70354e-20)
(1.17143 0.364926 5.66463e-21)
(1.16492 0.349039 4.83455e-20)
(1.17943 0.427415 -3.86122e-20)
(1.17241 0.406732 1.12299e-19)
(1.16646 0.387016 -4.43051e-21)
(1.1611 0.368656 -1.64313e-20)
(1.15511 0.352526 7.705e-21)
(1.17471 0.454133 6.40066e-20)
(1.1672 0.431899 -3.91825e-20)
(1.16073 0.410815 -5.53656e-20)
(1.15536 0.390739 1.57682e-20)
(1.15057 0.3721 -3.8872e-20)
(1.14514 0.355743 -2.82396e-20)
(1.16949 0.482532 -3.64609e-20)
(1.16165 0.458703 -1.09101e-20)
(1.15474 0.436044 -4.41237e-21)
(1.14884 0.414574 -3.02011e-21)
(1.14405 0.394152 5.92806e-22)
(1.13985 0.37525 -3.11264e-20)
(1.135 0.358682 2.01328e-20)
(1.16344 0.512605 9.26084e-20)
(1.15553 0.48718 -2.47216e-20)
(1.14835 0.4629 -2.64688e-21)
(1.14205 0.439836 4.9095e-20)
(1.13674 0.417998 1.42247e-20)
(1.13254 0.397247 4.1696e-20)
(1.12894 0.378095 5.09791e-20)
(1.12469 0.361332 1.12343e-20)
(1.15613 0.54426 1.3495e-20)
(1.1485 0.517323 2.53649e-20)
(1.14131 0.491415 4.92957e-20)
(1.13482 0.46671 6.50186e-21)
(1.12915 0.443265 1.39144e-20)
(1.12444 0.421078 -4.13113e-20)
(1.12084 0.400014 2.8862e-20)
(1.11785 0.380628 -3.85576e-20)
(1.11424 0.363686 -9.24921e-21)
(1.1469 0.577181 -1.19785e-19)
(1.14017 0.549051 -1.36797e-19)
(1.1333 0.521583 -6.32764e-20)
(1.12686 0.495223 -6.88339e-20)
(1.12107 0.47012 -8.34509e-21)
(1.11607 0.446317 -7.02571e-21)
(1.11197 0.423804 -1.14016e-20)
(1.10897 0.402445 -1.36509e-20)
(1.10659 0.382838 -5.48594e-20)
(1.10363 0.365735 2.33944e-20)
(1.13462 0.610595 -1.93556e-20)
(1.12989 0.582068 8.6792e-20)
(1.12392 0.553333 1.24737e-19)
(1.11785 0.525371 2.09134e-20)
(1.11219 0.49859 8.61518e-20)
(1.10714 0.473118 -4.52843e-21)
(1.1028 0.448983 4.79949e-20)
(1.09932 0.426165 -1.65418e-20)
(1.09693 0.404531 -2.04691e-20)
(1.09516 0.384719 3.06636e-20)
(1.09287 0.367469 7.99498e-21)
(1.11736 0.642921 3.66181e-20)
(1.1166 0.615633 5.61336e-20)
(1.11256 0.586388 3.51887e-20)
(1.1074 0.557092 -9.09153e-20)
(1.10216 0.528672 -7.00313e-20)
(1.09731 0.501503 -4.33133e-20)
(1.09302 0.475691 -7.84466e-20)
(1.08938 0.451252 -1.88877e-20)
(1.08653 0.428152 -1.44391e-20)
(1.08474 0.406266 -3.15778e-21)
(1.08358 0.386261 1.76952e-20)
(1.08198 0.36888 -2.34195e-21)
(1.09201 0.671313 -5.09344e-20)
(1.09847 0.648203 -1.8377e-19)
(1.09823 0.620036 -1.28535e-19)
(1.09494 0.590126 -3.87146e-20)
(1.09062 0.560312 5.9069e-20)
(1.08626 0.531473 4.68282e-20)
(1.08224 0.50395 -4.59299e-22)
(1.07874 0.477828 3.99209e-20)
(1.07581 0.453113 -8.34199e-21)
(1.07361 0.429758 1.36697e-20)
(1.07241 0.407641 7.47215e-21)
(1.07185 0.387459 6.72821e-21)
(1.07096 0.369957 -9.34379e-21)
(1.05394 0.691172 -6.09786e-20)
(1.07252 0.676969 1.04458e-19)
(1.07918 0.652774 1.10288e-19)
(1.07954 0.623789 3.92526e-20)
(1.07705 0.593267 3.75564e-20)
(1.07362 0.562981 -1.8425e-20)
(1.07015 0.533761 -1.04162e-20)
(1.06701 0.505917 -5.68865e-21)
(1.06431 0.479518 5.22195e-20)
(1.06212 0.454555 1.60178e-20)
(1.06058 0.430972 1.34827e-20)
(1.05998 0.408651 1.14512e-20)
(1.05998 0.388304 -1.91701e-20)
(1.05982 0.370691 -2.70514e-21)
(0.996881 0.695784 -3.37404e-20)
(1.03428 0.697345 1.70539e-20)
(1.05257 0.681833 -1.01329e-20)
(1.05953 0.656619 9.99833e-20)
(1.06055 0.626878 -9.08774e-20)
(1.05892 0.595797 -1.35859e-20)
(1.05642 0.565084 -2.15797e-21)
(1.05388 0.535522 1.78901e-20)
(1.05162 0.507392 3.95878e-20)
(1.04976 0.480747 -4.33158e-20)
(1.04833 0.455568 -1.57015e-20)
(1.04745 0.431786 -1.42709e-20)
(1.04745 0.409289 -1.39729e-20)
(1.04801 0.38879 1.30375e-21)
(1.04857 0.371066 6.35092e-22)
(0.977635 0.702573 -1.15308e-20)
(1.01407 0.702646 -4.09261e-20)
(1.03219 0.685889 -1.15942e-20)
(1.03954 0.659725 -9.20214e-20)
(1.04129 0.629291 1.26953e-19)
(1.04057 0.597704 3.45824e-21)
(1.03903 0.56661 3.52508e-20)
(1.03744 0.536746 6.52678e-21)
(1.0361 0.508365 5.92319e-22)
(1.03509 0.481507 3.37775e-20)
(1.03444 0.45614 1.25389e-20)
(1.03427 0.432189 8.00664e-22)
(1.03485 0.409547 -1.50363e-21)
(1.03594 0.388906 5.88153e-21)
(1.03724 0.371066 -2.23588e-21)
(0.895098 0.683663 -5.93e-20)
(0.957772 0.708422 -4.64907e-20)
(0.993375 0.707058 -3.81299e-20)
(1.01143 0.689124 5.71703e-20)
(1.01926 0.662079 -5.99262e-21)
(1.0218 0.631014 -7.3471e-20)
(1.02203 0.598976 4.87027e-20)
(1.02148 0.567548 1.46052e-20)
(1.02087 0.537421 -2.62584e-20)
(1.02046 0.508826 -8.66204e-21)
(1.02033 0.481786 -5.94715e-21)
(1.02049 0.456262 -3.81718e-21)
(1.02103 0.432171 1.11857e-22)
(1.02221 0.409416 9.78834e-21)
(1.0238 0.38864 -1.3837e-20)
(1.02586 0.37066 3.74277e-21)
(0.778533 0.629875 1.50967e-21)
(0.876353 0.690053 6.11077e-20)
(0.937345 0.713313 8.06883e-20)
(0.972235 0.710566 5.05108e-20)
(0.990334 0.691525 -2.47373e-20)
(0.998714 0.663668 4.03597e-20)
(1.00211 0.632037 -1.60679e-20)
(1.00332 0.599603 -5.40199e-20)
(1.00379 0.567887 -2.28899e-20)
(1.00418 0.537539 -5.87728e-21)
(1.00473 0.508764 -1.08036e-20)
(1.00549 0.481575 -1.13506e-21)
(1.00648 0.455922 2.4431e-21)
(1.00778 0.43172 -4.36144e-21)
(1.00957 0.408886 9.22321e-21)
(1.01163 0.387972 2.34543e-20)
(1.01445 0.369803 1.97038e-20)
(0.76184 0.63656 -9.25818e-20)
(0.856981 0.695447 -2.91698e-20)
(0.916407 0.717232 6.70609e-20)
(0.950698 0.713158 -9.02954e-20)
(0.968936 0.69308 -7.39082e-20)
(0.977944 0.664484 -3.34172e-20)
(0.982242 0.63235 4.98585e-20)
(0.984472 0.599576 1.8757e-20)
(0.985989 0.56762 1.69139e-20)
(0.987394 0.537091 1.24374e-20)
(0.988909 0.508171 -3.32762e-21)
(0.990587 0.480864 -1.4662e-21)
(0.992435 0.45511 -7.69379e-21)
(0.994514 0.430824 -6.0567e-21)
(0.996927 0.407946 -1.43691e-20)
(0.99945 0.386881 1.47405e-20)
(1.00307 0.368436 -2.38685e-20)
(0.60676 0.53616 9.17741e-20)
(0.744492 0.642271 1.3389e-19)
(0.837038 0.699829 5.1469e-20)
(0.89501 0.720162 -1.96929e-20)
(0.928814 0.714823 7.76564e-21)
(0.947282 0.693781 3.65742e-20)
(0.956985 0.664518 4.97579e-20)
(0.962231 0.631945 -6.70093e-21)
(0.965512 0.598886 -6.74764e-21)
(0.968095 0.566738 -7.08592e-21)
(0.970532 0.536069 -4.58955e-21)
(0.973029 0.507042 1.46072e-21)
(0.975633 0.479647 -3.77267e-21)
(0.978357 0.453816 -5.49996e-21)
(0.981252 0.429471 1.03993e-20)
(0.984306 0.406579 2.48869e-20)
(0.98731 0.385342 -4.07526e-20)
(0.991905 0.366509 3.21565e-20)
(0.405406 0.377816 1.83367e-19)
(0.592559 0.541684 -8.38149e-20)
(0.726544 0.646986 -9.37253e-20)
(0.81658 0.703182 -3.36137e-20)
(0.873209 0.722093 4.45717e-20)
(0.906629 0.71555 3.89957e-20)
(0.925413 0.693619 3.94117e-20)
(0.935872 0.663761 -2.37828e-20)
(0.942107 0.630815 -3.10168e-20)
(0.946468 0.597528 7.40355e-21)
(0.950133 0.565235 -2.21923e-21)
(0.953616 0.534469 -2.55355e-21)
(0.957103 0.50537 -4.23388e-21)
(0.960642 0.477918 -2.66165e-22)
(0.964257 0.452033 2.0755e-20)
(0.967985 0.427645 -8.27886e-21)
(0.971694 0.404749 -1.92925e-20)
(0.975306 0.383288 -1.34821e-21)
(0.981225 0.36401 -4.89198e-20)
(0.395622 0.382258 -7.1209e-20)
(0.577788 0.546317 8.13299e-20)
(0.70805 0.650687 1.14468e-19)
(0.795664 0.705493 -4.63372e-20)
(0.851055 0.723014 9.1522e-21)
(0.884192 0.715332 -6.40809e-20)
(0.90337 0.692588 -1.68705e-20)
(0.914641 0.662208 -2.59708e-21)
(0.921903 0.628954 7.87603e-21)
(0.927365 0.595494 -2.42188e-21)
(0.932128 0.563106 -5.18364e-21)
(0.936666 0.532285 -3.69171e-22)
(0.94115 0.503152 -9.71516e-21)
(0.945629 0.475675 8.54127e-21)
(0.950138 0.449761 2.2792e-20)
(0.95469 0.425345 8.66115e-21)
(0.959067 0.402419 -4.45435e-20)
(0.963545 0.380567 -1.67773e-21)
(0.970977 0.36068 1.39536e-20)
(0.151847 0.153765 1.98133e-20)
(0.385389 0.386037 3.06418e-20)
(0.562496 0.550039 -7.44796e-20)
(0.689067 0.653359 -2.86121e-20)
(0.774345 0.706749 -3.80652e-20)
(0.828601 0.722918 -3.31779e-20)
(0.861549 0.714164 4.38828e-20)
(0.881193 0.690683 3.88202e-21)
(0.893328 0.659853 1.54477e-21)
(0.901649 0.626357 7.41655e-21)
(0.908233 0.592782 1.07067e-20)
(0.914106 0.560347 -8.83497e-21)
(0.919706 0.529516 -4.766e-21)
(0.925192 0.500388 -4.01637e-21)
(0.930611 0.47292 -2.73034e-20)
(0.936005 0.44701 -1.41244e-20)
(0.941353 0.422592 -1.54135e-20)
(0.946434 0.399642 5.47623e-20)
(0.95209 0.377228 -1.30674e-20)
(0.960117 0.354878 4.86607e-20)
(0.14786 0.15551 2.97604e-20)
(0.374745 0.389135 -7.29921e-21)
(0.546733 0.552835 4.09421e-20)
(0.66965 0.654989 -8.24345e-21)
(0.75268 0.706943 2.40984e-20)
(0.805902 0.721797 2.5213e-20)
(0.838747 0.712041 -8.70214e-21)
(0.858926 0.6879 -1.09531e-20)
(0.871969 0.656695 -1.09658e-20)
(0.881376 0.623022 9.52345e-21)
(0.889099 0.589387 -5.94324e-21)
(0.896091 0.556957 1.01956e-20)
(0.902759 0.526159 1.27387e-20)
(0.909248 0.497077 2.1918e-20)
(0.915607 0.469658 8.03245e-21)
(0.921874 0.443791 2.57768e-20)
(0.928004 0.419414 1.35222e-20)
(0.933839 0.396501 -2.64242e-21)
(0.940503 0.374132 2.90339e-20)
(0.948587 0.352022 5.85823e-21)
(0.143685 0.156965 -2.61124e-20)
(0.363726 0.391536 -2.46288e-20)
(0.53055 0.55469 -2.62029e-20)
(0.649856 0.655565 1.41391e-20)
(0.730724 0.706067 -1.4308e-20)
(0.783007 0.719649 -8.50585e-21)
(0.815833 0.70896 8.23681e-23)
(0.836607 0.684237 8.827e-21)
(0.850599 0.652731 1.14253e-20)
(0.861117 0.618945 1.69525e-20)
(0.869992 0.585308 -4.0031e-20)
(0.87811 0.552932 1.31404e-22)
(0.885849 0.522213 -4.55795e-20)
(0.893342 0.493219 -2.1452e-21)
(0.900639 0.465888 -2.10086e-20)
(0.907773 0.440107 3.32185e-20)
(0.914683 0.415811 -5.09723e-20)
(0.921265 0.39296 -1.2561e-20)
(0.92865 0.370629 -1.94736e-20)
(0.93677 0.348588 -7.00895e-20)
(0.139338 0.158124 1.19937e-20)
(0.352369 0.393228 -3.94182e-20)
(0.513996 0.555592 9.10951e-21)
(0.629741 0.65508 1.6404e-22)
(0.708535 0.704116 -3.92145e-21)
(0.75997 0.716471 2.67656e-21)
(0.792854 0.704922 8.42354e-21)
(0.814279 0.679693 -2.11875e-20)
(0.829255 0.647959 -2.39962e-20)
(0.840904 0.614127 -4.94311e-20)
(0.85094 0.580545 3.23092e-20)
(0.860189 0.548273 -3.57264e-21)
(0.868999 0.517678 -1.09235e-20)
(0.877497 0.488814 -1.72862e-20)
(0.88573 0.461612 -2.53684e-20)
(0.893727 0.435957 1.49333e-20)
(0.901425 0.411784 4.19509e-20)
(0.908755 0.389041 -2.35128e-20)
(0.91679 0.366829 3.08259e-20)
(0.925129 0.345034 8.50989e-20)
(0.134835 0.158979 7.12352e-21)
(0.340713 0.394199 1.69369e-20)
(0.497123 0.555531 1.04023e-22)
(0.60936 0.653527 -9.12084e-21)
(0.686167 0.701088 6.11241e-21)
(0.736842 0.712263 1.26337e-20)
(0.769856 0.699926 -8.91927e-21)
(0.791981 0.674271 -1.33153e-20)
(0.807971 0.642382 -1.07107e-20)
(0.820767 0.608567 3.44824e-20)
(0.831972 0.575098 -9.38836e-20)
(0.842354 0.54298 -4.2266e-20)
(0.852236 0.512556 8.61683e-21)
(0.861736 0.483865 1.43916e-20)
(0.870902 0.456832 5.29009e-20)
(0.87976 0.431343 -7.40552e-20)
(0.888248 0.407333 2.1737e-20)
(0.896321 0.384737 1.22595e-20)
(0.904989 0.362703 -1.73305e-20)
(0.913669 0.341239 -6.44719e-20)
(0.130193 0.159524 1.11949e-20)
(0.328797 0.394441 4.45226e-21)
(0.479983 0.554502 5.51249e-21)
(0.588771 0.650904 5.9375e-21)
(0.663676 0.696983 -4.87363e-21)
(0.713674 0.707028 -2.28304e-20)
(0.746883 0.693975 6.05713e-21)
(0.769753 0.667972 2.04362e-20)
(0.786784 0.636001 6.23159e-20)
(0.800739 0.602269 -7.03042e-20)
(0.813117 0.568967 5.70334e-20)
(0.824631 0.537055 7.15835e-20)
(0.835582 0.506847 6.01217e-20)
(0.846082 0.478371 4.55936e-20)
(0.856177 0.451549 -9.61208e-20)
(0.865895 0.426266 -1.60096e-21)
(0.875173 0.402457 -2.53581e-20)
(0.883987 0.380049 9.85096e-20)
(0.893289 0.358241 -3.22715e-21)
(0.902386 0.337141 -4.76712e-20)
(0.125428 0.159755 1.07531e-20)
(0.31666 0.393946 -2.2247e-21)
(0.462626 0.552498 4.49491e-21)
(0.568029 0.647209 -1.86882e-21)
(0.641115 0.691804 -1.09931e-20)
(0.690516 0.700768 -1.47473e-21)
(0.723981 0.687074 -1.52574e-20)
(0.747636 0.6608 -2.63356e-20)
(0.765728 0.62882 2.45987e-20)
(0.780851 0.595234 5.58764e-20)
(0.794403 0.562157 1.31758e-21)
(0.807048 0.5305 2.66584e-20)
(0.819064 0.500553 -4.12837e-20)
(0.830559 0.472336 -5.02999e-20)
(0.841579 0.445765 1.27376e-19)
(0.852152 0.420726 5.10608e-20)
(0.862221 0.397156 -5.29501e-20)
(0.871774 0.374974 -5.84749e-20)
(0.881718 0.353434 -6.57818e-20)
(0.89128 0.332718 -6.92754e-21)
(0.120558 0.159666 -1.80575e-20)
(0.30434 0.392709 -4.03895e-21)
(0.445103 0.549519 -9.20892e-21)
(0.54719 0.642444 -2.30262e-20)
(0.61854 0.685554 4.40622e-20)
(0.667417 0.69349 -4.31264e-20)
(0.701194 0.679229 6.53766e-20)
(0.725668 0.652762 -1.0465e-21)
(0.744839 0.620844 -2.06147e-20)
(0.761135 0.587467 1.97574e-20)
(0.77586 0.55467 1.49289e-20)
(0.789629 0.523319 -7.29719e-20)
(0.802705 0.493679 7.71458e-20)
(0.815188 0.465762 4.78106e-20)
(0.827128 0.439481 -1.73697e-20)
(0.838554 0.414726 -3.4557e-20)
(0.849411 0.391431 2.9477e-20)
(0.859703 0.36951 -5.27229e-20)
(0.870295 0.348274 -7.25039e-20)
(0.880355 0.327955 6.76757e-20)
(0.115599 0.159256 4.31613e-20)
(0.291879 0.390727 -2.48894e-20)
(0.427467 0.545564 -1.60225e-20)
(0.526307 0.636613 1.71571e-20)
(0.596004 0.67824 6.65279e-21)
(0.644428 0.685201 1.63233e-20)
(0.678566 0.670448 2.16355e-20)
(0.703889 0.643864 5.28048e-20)
(0.72415 0.612078 6.61647e-20)
(0.741622 0.578973 -6.2797e-20)
(0.757515 0.546512 7.6709e-20)
(0.772402 0.515515 -8.70484e-20)
(0.786529 0.486228 1.12944e-20)
(0.799995 0.458653 -3.31374e-20)
(0.812847 0.432703 2.51151e-20)
(0.825119 0.408267 2.36053e-20)
(0.836763 0.385281 -1.42963e-20)
(0.847792 0.363657 1.32064e-19)
(0.859036 0.342755 -1.89118e-20)
(0.869616 0.322844 -5.85522e-20)
(0.11057 0.158522 -3.54513e-20)
(0.279314 0.388 4.65375e-20)
(0.409768 0.540636 -1.40041e-20)
(0.505436 0.629723 -5.88999e-20)
(0.573558 0.669871 4.58238e-20)
(0.621596 0.675911 -1.74414e-20)
(0.65614 0.660739 -5.74123e-20)
(0.682336 0.634115 -8.48469e-21)
(0.703697 0.602531 -1.36489e-19)
(0.722342 0.56976 1.32267e-19)
(0.739396 0.537689 -1.20784e-20)
(0.755393 0.507095 3.61161e-20)
(0.770562 0.478205 4.54389e-20)
(0.785 0.451013 1.80583e-20)
(0.798757 0.425431 -1.19673e-19)
(0.811869 0.401352 2.74361e-20)
(0.824294 0.37871 2.42598e-20)
(0.836057 0.357414 -8.12039e-20)
(0.847954 0.336874 2.89664e-20)
(0.859071 0.31738 1.13678e-20)
(0.105486 0.157464 -3.92015e-20)
(0.266685 0.384529 -3.73543e-20)
(0.392056 0.53474 7.36269e-20)
(0.48463 0.62178 5.41849e-20)
(0.551256 0.660457 -4.36389e-20)
(0.598969 0.665631 3.12272e-21)
(0.633959 0.650114 4.03942e-20)
(0.661047 0.623525 1.16683e-20)
(0.683512 0.592212 -2.19076e-21)
(0.703326 0.559835 2.3668e-20)
(0.721532 0.528207 -3.59525e-20)
(0.738627 0.498065 -5.88715e-21)
(0.754827 0.469616 -1.41349e-19)
(0.770226 0.442848 -1.07967e-19)
(0.784879 0.417673 -1.85758e-20)
(0.798823 0.393985 -1.47221e-20)
(0.812022 0.371718 -1.65018e-20)
(0.824515 0.350781 -3.36548e-20)
(0.837062 0.330629 -3.84469e-20)
(0.100366 0.15608 8.33304e-21)
(0.254032 0.380315 9.059e-20)
(0.37438 0.527883 -3.58118e-20)
(0.463942 0.612797 -5.6991e-20)
(0.529148 0.650011 -2.95994e-21)
(0.576593 0.654375 8.18849e-20)
(0.612064 0.638586 -8.49918e-20)
(0.640059 0.612105 1.69294e-20)
(0.66363 0.58113 -1.35867e-20)
(0.684604 0.549207 -1.33915e-19)
(0.70395 0.518075 -1.25704e-19)
(0.722129 0.488432 2.22715e-20)
(0.739347 0.460467 1.98941e-19)
(0.755695 0.434163 2.82061e-20)
(0.771232 0.409432 7.73514e-20)
(0.785998 0.38617 -1.19906e-19)
(0.799964 0.36431 -2.78504e-20)
(0.81318 0.343761 1.36721e-19)
(0.826372 0.324023 5.91176e-20)
(0.0952264 0.154371 3.79813e-20)
(0.241392 0.375366 3.74918e-20)
(0.356791 0.520075 -8.88672e-20)
(0.443424 0.602787 -4.84637e-21)
(0.507284 0.638547 -3.67746e-20)
(0.554514 0.642157 -5.24834e-20)
(0.590497 0.626168 1.75539e-20)
(0.619409 0.599868 -5.01551e-20)
(0.644081 0.569298 9.5287e-20)
(0.666205 0.537888 -6.07368e-20)
(0.686677 0.507303 4.21181e-20)
(0.705926 0.478205 9.65512e-20)
(0.724145 0.450767 -6.35138e-20)
(0.741429 0.424966 1.55522e-20)
(0.757837 0.400715 7.84038e-20)
(0.773414 0.377912 9.63823e-20)
(0.788137 0.35649 -5.03039e-20)
(0.802068 0.336358 -2.75743e-20)
(0.815897 0.317056 4.21183e-20)
(0.0900853 0.15234 -9.01608e-20)
(0.228805 0.369686 3.48236e-20)
(0.339336 0.511327 1.01059e-19)
(0.423127 0.591763 1.1743e-20)
(0.485712 0.626083 -1.55192e-20)
(0.532777 0.628994 -2.87579e-20)
(0.569296 0.612876 -1.38651e-20)
(0.599132 0.586828 6.25811e-20)
(0.6249 0.556728 -9.17484e-20)
(0.648159 0.525887 2.14985e-19)
(0.66974 0.495901 8.96587e-20)
(0.69004 0.467394 -2.87083e-20)
(0.709245 0.440524 -8.64099e-21)
(0.727448 0.415265 3.81729e-20)
(0.744713 0.391529 -1.04464e-19)
(0.761087 0.369217 8.66622e-21)
(0.776557 0.348264 -6.63398e-20)
(0.791192 0.328576 -2.86313e-20)
(0.0849594 0.149989 -1.85335e-20)
(0.216309 0.363285 -1.0894e-19)
(0.322064 0.501654 7.62098e-20)
(0.4031 0.579744 -1.11365e-20)
(0.46448 0.612636 5.84825e-20)
(0.511425 0.614904 1.83182e-20)
(0.548501 0.598728 -3.61577e-21)
(0.579263 0.573002 4.42772e-20)
(0.606116 0.543435 -2.61048e-20)
(0.630495 0.513219 -7.93161e-20)
(0.653164 0.483881 8.67897e-20)
(0.674496 0.456009 9.10902e-20)
(0.694667 0.429749 -5.66003e-23)
(0.713773 0.405069 -2.00748e-20)
(0.731878 0.381883 -1.13049e-20)
(0.749036 0.360094 8.25923e-20)
(0.765239 0.339637 7.14792e-20)
(0.780566 0.320421 1.97833e-20)
(0.0798658 0.147321 9.03094e-20)
(0.203939 0.356174 1.27935e-19)
(0.30502 0.49107 -7.17324e-20)
(0.383393 0.566748 -5.26764e-21)
(0.443636 0.598228 -1.05695e-19)
(0.4905 0.599907 6.50112e-20)
(0.52815 0.583742 -2.66595e-20)
(0.559836 0.558406 -4.94992e-20)
(0.58776 0.529433 -1.87998e-20)
(0.613239 0.499897 -3.16725e-21)
(0.636976 0.471256 -1.87689e-19)
(0.659318 0.444063 -2.36156e-19)
(0.680435 0.418451 -3.59256e-20)
(0.700424 0.394387 7.99505e-20)
(0.719352 0.371784 -3.11136e-20)
(0.737277 0.35055 -1.54827e-19)
(0.754199 0.330617 1.43707e-19)
(0.770203 0.311898 2.03866e-20)
(0.0748211 0.144342 -1.503e-19)
(0.191733 0.348364 5.17207e-20)
(0.28825 0.479595 -4.09185e-20)
(0.364052 0.552798 5.66069e-20)
(0.423224 0.58288 1.05699e-19)
(0.470044 0.584025 -6.68143e-20)
(0.508279 0.567937 1.22742e-19)
(0.540883 0.543058 -4.24126e-20)
(0.569862 0.51474 6.35334e-20)
(0.596419 0.485937 1.19083e-19)
(0.621199 0.458039 6.44385e-20)
(0.644528 0.431567 2.66121e-19)
(0.66657 0.406643 1.20961e-19)
(0.68742 0.38323 -9.37563e-21)
(0.707152 0.361244 -6.42605e-21)
(0.725827 0.340593 1.97419e-20)
(0.743451 0.321213 -1.60231e-19)
(0.760118 0.303017 -8.4399e-20)
(0.0698418 0.141055 8.52699e-20)
(0.179727 0.33987 -2.25357e-20)
(0.271799 0.467248 -1.09709e-19)
(0.345124 0.537915 -9.91008e-20)
(0.403287 0.566616 -1.81955e-20)
(0.450097 0.567281 1.34539e-20)
(0.488925 0.551337 -1.58992e-19)
(0.522438 0.526979 1.18878e-19)
(0.552452 0.499373 -5.37524e-20)
(0.580061 0.471355 -1.23178e-19)
(0.605859 0.444245 -2.9317e-20)
(0.630149 0.418536 -1.10062e-19)
(0.653091 0.394337 -2.2706e-19)
(0.67478 0.37161 1.95097e-20)
(0.695296 0.350272 1.75317e-19)
(0.714701 0.330235 -7.56128e-20)
(0.73301 0.311434 8.97482e-20)
(0.0649441 0.137467 -1.492e-20)
(0.167956 0.330708 -2.05327e-19)
(0.25571 0.454051 2.04204e-19)
(0.326654 0.522125 -5.1008e-20)
(0.38387 0.549462 7.12263e-20)
(0.430698 0.5497 4.27348e-20)
(0.470123 0.533963 1.70592e-19)
(0.504531 0.510188 -2.03751e-19)
(0.535556 0.483352 1.58972e-19)
(0.564191 0.456167 1.24701e-19)
(0.590979 0.429891 -3.58736e-20)
(0.616203 0.404984 -1.83364e-20)
(0.640019 0.381547 6.66075e-20)
(0.662524 0.359539 -1.13204e-19)
(0.6838 0.33888 -1.48853e-19)
(0.703915 0.319485 5.54725e-20)
(0.72289 0.301288 -5.62735e-20)
(0.0601436 0.133586 -1.51966e-20)
(0.156453 0.320894 6.77392e-20)
(0.240025 0.440028 7.76092e-20)
(0.308685 0.505455 -1.33601e-19)
(0.365012 0.531445 6.72569e-20)
(0.411883 0.531307 -1.71677e-19)
(0.451906 0.51584 -1.29313e-20)
(0.487192 0.492709 9.29504e-21)
(0.519204 0.466696 -1.60706e-20)
(0.548835 0.440393 -1.57465e-19)
(0.576582 0.414992 -7.38372e-21)
(0.602711 0.390927 -2.48238e-20)
(0.627373 0.368287 1.4838e-19)
(0.650668 0.347031 -4.56114e-20)
(0.672682 0.327081 -1.29132e-20)
(0.693484 0.308355 7.41558e-20)
(0.713104 0.290788 2.12577e-19)
(0.0554558 0.129419 -2.9184e-20)
(0.145251 0.310448 -1.71556e-20)
(0.224784 0.425205 -8.40652e-20)
(0.291259 0.487934 4.99249e-20)
(0.346754 0.512594 1.39597e-19)
(0.39369 0.512131 -7.59885e-20)
(0.434306 0.496993 -1.19133e-19)
(0.47045 0.474564 1.15599e-19)
(0.50342 0.449427 -3.77708e-20)
(0.534015 0.424053 1.04177e-19)
(0.56269 0.399569 4.68044e-20)
(0.589693 0.376382 -2.71776e-20)
(0.615172 0.354573 -1.00848e-19)
(0.639231 0.3341 1.23607e-19)
(0.661956 0.314888 -3.07926e-20)
(0.683422 0.296856 -1.30795e-19)
(0.703667 0.279944 -4.34876e-20)
(0.0508956 0.124974 5.78227e-20)
(0.134383 0.299391 2.09307e-20)
(0.210027 0.409608 -1.60997e-20)
(0.274416 0.469591 -4.56925e-20)
(0.329134 0.49294 -3.21205e-20)
(0.376153 0.4922 1.86806e-19)
(0.417354 0.47745 3.27614e-20)
(0.454334 0.455779 8.91432e-20)
(0.48823 0.431568 6.49087e-20)
(0.519755 0.407166 -1.73981e-19)
(0.549323 0.383638 -8.9598e-20)
(0.577168 0.361366 1.63426e-19)
(0.603435 0.34042 -4.94222e-21)
(0.628228 0.320761 -1.28684e-19)
(0.651638 0.302314 3.21359e-20)
(0.673745 0.285003 1.53404e-19)
(0.0464773 0.120262 6.72029e-20)
(0.123878 0.287743 -8.49723e-20)
(0.195791 0.393267 -3.78653e-20)
(0.258195 0.450459 -8.54478e-21)
(0.312187 0.472514 -1.0757e-19)
(0.359304 0.471544 -5.61606e-20)
(0.40108 0.457237 -2.35697e-20)
(0.43887 0.436378 -1.77551e-19)
(0.473658 0.413141 -1.32804e-19)
(0.506078 0.389754 1.73224e-19)
(0.536504 0.367221 9.42065e-20)
(0.565156 0.345897 -7.21442e-20)
(0.592178 0.325846 -8.25547e-20)
(0.617676 0.307029 8.76237e-20)
(0.641744 0.289374 -4.91372e-20)
(0.664464 0.272809 6.95841e-20)
(0.0422149 0.115291 8.2225e-20)
(0.113767 0.275529 -1.28306e-19)
(0.182112 0.376213 3.59902e-20)
(0.242633 0.430571 6.27623e-20)
(0.295949 0.45135 -7.08963e-22)
(0.343176 0.450195 -7.64871e-20)
(0.385513 0.436384 6.51386e-20)
(0.424083 0.416388 2.37035e-20)
(0.459728 0.394171 -7.01597e-20)
(0.493004 0.371839 4.61576e-20)
(0.52425 0.350337 -1.19515e-19)
(0.553675 0.329994 -2.59495e-20)
(0.581419 0.310869 1.05112e-19)
(0.60759 0.292921 3.69145e-20)
(0.632287 0.276084 5.65007e-20)
(0.655594 0.260287 -1.05195e-19)
(0.0381216 0.110073 -8.18515e-20)
(0.104078 0.262774 -3.29381e-20)
(0.169024 0.358478 6.31874e-20)
(0.227764 0.409962 -1.29478e-19)
(0.280454 0.429482 -6.20935e-20)
(0.327799 0.428186 1.31717e-19)
(0.37068 0.414922 2.0687e-19)
(0.409998 0.395837 5.80445e-20)
(0.446462 0.374684 7.67201e-20)
(0.480554 0.353446 -6.46835e-22)
(0.512581 0.333008 3.51379e-20)
(0.542741 0.313678 1.21846e-19)
(0.571172 0.295506 -1.73043e-20)
(0.597985 0.278455 -2.10011e-19)
(0.62328 0.262459 1.81103e-21)
(0.647146 0.247452 1.11996e-20)
(0.0342102 0.104619 2.63103e-20)
(0.0948366 0.249503 -6.56357e-20)
(0.15656 0.340095 2.2665e-19)
(0.213623 0.388669 8.44165e-22)
(0.265732 0.406947 8.24837e-20)
(0.313201 0.405551 7.94548e-20)
(0.356605 0.392882 -7.67143e-20)
(0.396639 0.374754 9.57852e-21)
(0.433881 0.354705 -4.87495e-20)
(0.468747 0.334597 1.22082e-20)
(0.501515 0.315257 -1.47091e-21)
(0.532372 0.296969 -5.44578e-20)
(0.561454 0.279778 -2.39047e-20)
(0.588875 0.263648 1.39846e-19)
(0.614737 0.248516 -1.03341e-19)
(0.639133 0.234321 6.77957e-20)
(0.0304928 0.0989412 -5.59969e-20)
(0.0860693 0.235743 -6.18251e-20)
(0.144751 0.3211 -3.28089e-20)
(0.20024 0.366728 7.69579e-20)
(0.251813 0.38378 -6.41934e-20)
(0.299409 0.382324 -1.10797e-19)
(0.343315 0.370295 -6.55303e-20)
(0.384026 0.353168 -1.24922e-19)
(0.422004 0.334262 1.00431e-19)
(0.457602 0.315319 -8.04052e-20)
(0.491068 0.297107 1.68307e-20)
(0.522582 0.279888 1.17709e-20)
(0.552278 0.263704 -4.95401e-20)
(0.580272 0.248518 5.65733e-20)
(0.60667 0.234273 8.37637e-20)
(0.0269807 0.0930523 1.22938e-19)
(0.0777997 0.221524 1.21397e-19)
(0.133626 0.301528 -9.03011e-20)
(0.187646 0.344179 -7.53596e-20)
(0.238725 0.360021 2.05142e-20)
(0.286448 0.358542 4.39789e-20)
(0.33083 0.347194 -1.51259e-19)
(0.372181 0.331109 2.4032e-20)
(0.41085 0.313383 -9.82895e-20)
(0.447134 0.295637 8.22316e-20)
(0.481256 0.278581 1.90043e-20)
(0.513386 0.262458 -8.54754e-20)
(0.543658 0.247305 -1.89313e-20)
(0.57219 0.233085 4.42804e-20)
(0.59909 0.219746 2.05441e-20)
(0.0236848 0.0869656 -5.63496e-20)
(0.0700503 0.206874 1.44124e-20)
(0.123211 0.281417 1.69765e-19)
(0.175867 0.321062 9.30234e-20)
(0.226494 0.335709 6.1075e-20)
(0.274343 0.33424 1.13434e-19)
(0.319173 0.323615 1.52213e-20)
(0.361122 0.308608 1.04391e-20)
(0.400438 0.292096 -8.39934e-22)
(0.437361 0.275576 -1.05103e-19)
(0.472094 0.259705 5.41329e-20)
(0.504798 0.244702 -8.57809e-20)
(0.535607 0.230601 5.54907e-20)
(0.56464 0.217368 -8.74393e-20)
(0.592007 0.204955 -5.033e-20)
(0.020615 0.0806947 -1.21806e-20)
(0.0628419 0.191824 8.33798e-20)
(0.113533 0.260807 -9.63131e-20)
(0.16493 0.297418 -4.29047e-20)
(0.215144 0.310884 3.82858e-20)
(0.263115 0.309458 -8.38392e-20)
(0.308363 0.299592 6.25813e-20)
(0.350868 0.285699 8.61239e-21)
(0.390782 0.270431 5.07314e-20)
(0.428298 0.255165 -2.02566e-21)
(0.463596 0.240502 -4.77425e-20)
(0.49683 0.226642 4.59283e-20)
(0.528136 0.213614 -1.16839e-19)
(0.557632 0.201388 1.60073e-19)
(0.585432 0.189917 6.02421e-20)
(0.0177806 0.0742539 -3.56094e-20)
(0.0561939 0.176405 -3.60208e-20)
(0.104615 0.239736 -5.31763e-20)
(0.154858 0.273288 6.08329e-20)
(0.204697 0.285586 -3.23094e-20)
(0.252783 0.284233 -1.60072e-20)
(0.298418 0.275159 -3.14805e-20)
(0.341434 0.262412 -3.93875e-20)
(0.381898 0.248418 -1.06927e-19)
(0.419957 0.234432 4.56487e-20)
(0.455773 0.220999 -6.27427e-20)
(0.489495 0.208302 1.12849e-19)
(0.521255 0.196367 7.48728e-20)
(0.551178 0.185164 -1.29566e-19)
(0.579375 0.174652 -1.27966e-19)
(0.0151901 0.067658 3.61361e-20)
(0.0501239 0.16065 -9.37389e-20)
(0.0964768 0.218245 -6.32915e-21)
(0.145672 0.248717 -8.34241e-20)
(0.195173 0.259859 -9.19197e-20)
(0.243367 0.258605 1.32149e-19)
(0.289355 0.250354 1.78542e-20)
(0.332836 0.238782 6.34029e-20)
(0.373799 0.226087 6.55731e-20)
(0.412352 0.213403 -1.52494e-20)
(0.448638 0.201223 8.80948e-20)
(0.482802 0.189708 -5.10303e-20)
(0.514976 0.178881 -6.47863e-20)
(0.545285 0.168718 1.01472e-19)
(0.573843 0.15918 1.13213e-19)
(0.0128511 0.060922 -3.68367e-20)
(0.0446478 0.144592 8.2302e-20)
(0.0891388 0.196376 -8.76125e-20)
(0.137393 0.223748 5.54304e-20)
(0.186592 0.233744 5.10103e-20)
(0.234883 0.232614 -7.14041e-20)
(0.281188 0.225214 3.29396e-20)
(0.325087 0.214842 3.64796e-20)
(0.366498 0.203469 -1.12156e-19)
(0.405493 0.192109 5.38878e-20)
(0.442202 0.181198 5.9938e-21)
(0.476762 0.170882 4.95204e-20)
(0.509307 0.161181 -6.309e-20)
(0.539962 0.152071 7.79415e-21)
(0.568843 0.14352 -4.777e-21)
(0.0107706 0.0540614 -3.96315e-20)
(0.03978 0.128265 5.09462e-20)
(0.0826178 0.174171 9.29131e-20)
(0.130037 0.198426 -1.13304e-20)
(0.178968 0.207286 6.29283e-20)
(0.227346 0.206301 -7.77946e-20)
(0.273931 0.199775 1.90832e-20)
(0.3182 0.190627 -6.58542e-20)
(0.360006 0.180597 4.49967e-23)
(0.399392 0.170578 -1.01576e-19)
(0.436473 0.160954 -7.25019e-20)
(0.471383 0.151852 3.79938e-20)
(0.504255 0.143289 9.83693e-21)
(0.535216 0.135246 -2.55982e-20)
(0.564384 0.127693 3.3692e-20)
(0.00895452 0.0470922 3.54572e-20)
(0.0355329 0.111703 1.17076e-20)
(0.0769289 0.151673 2.83857e-20)
(0.12362 0.172795 -4.14928e-20)
(0.172316 0.180527 -1.86299e-20)
(0.220768 0.179706 -3.4793e-20)
(0.267596 0.174075 3.32983e-21)
(0.312184 0.166172 2.35573e-20)
(0.354332 0.157502 7.13302e-20)
(0.394056 0.14884 8.55863e-20)
(0.431459 0.140517 3.24819e-20)
(0.466672 0.132641 -7.68877e-21)
(0.499828 0.125229 -1.62593e-20)
(0.531055 0.118263 -4.02763e-20)
(0.560471 0.111719 4.80354e-21)
(0.00740817 0.0400303 7.38315e-21)
(0.0319172 0.0949408 -4.87402e-20)
(0.0720848 0.128927 -6.62717e-20)
(0.118155 0.146903 -2.29553e-21)
(0.166649 0.153514 -4.84772e-21)
(0.215161 0.152872 2.31768e-20)
(0.262193 0.148154 -7.13815e-20)
(0.307049 0.141511 -2.73588e-20)
(0.349485 0.134217 -4.57562e-20)
(0.389494 0.126926 1.74989e-21)
(0.427168 0.119915 1.46209e-20)
(0.462637 0.113277 3.2196e-20)
(0.496032 0.107025 -6.26707e-21)
(0.527483 0.101146 2.70287e-20)
(0.557109 0.0956191 -1.30141e-20)
(0.00613587 0.0328921 -3.17282e-20)
(0.0289421 0.078014 1.83453e-20)
(0.0680964 0.105974 -1.82539e-20)
(0.113652 0.120794 2.2506e-20)
(0.161977 0.12629 1.7107e-20)
(0.210534 0.125839 4.71489e-21)
(0.257729 0.122049 5.51758e-20)
(0.302802 0.11668 -1.46155e-20)
(0.345472 0.110775 1.27523e-20)
(0.385711 0.104864 1.47912e-20)
(0.423605 0.099176 1.0122e-20)
(0.459282 0.0937848 -2.68717e-20)
(0.492872 0.0887019 3.47526e-20)
(0.524505 0.0839168 2.5668e-20)
(0.554302 0.079414 -9.9252e-21)
(0.0051411 0.0256942 9.7118e-21)
(0.0266145 0.0609584 2.30979e-20)
(0.0649721 0.0828618 -5.1457e-21)
(0.11012 0.0945158 -3.56423e-20)