/*--------------------------------*- C++ -*----------------------------------*\
  =========                 |
  \\      /  F ield         | OpenFOAM: The Open Source CFD Toolbox
   \\    /   O peration     | Website:  https://openfoam.org
    \\  /    A nd           | Version:  7
     \\/     M anipulation  |
\*---------------------------------------------------------------------------*/
FoamFile
{
    version     2.0;
    format      ascii;
    class       volScalarField;
    location    "200";
    object      p;
}
// * * * * * * * * * * * * * * * * * * * * * * * * * * * * * * * * * * * * * //

dimensions      [0 2 -2 0 0 0 0];

internalField   nonuniform List<scalar> 
7156
(
-0.0992786
-0.0871869
-0.0801276
-0.0775361
-0.079285
-0.0860313
-0.0979668
-0.11306
-0.126805
-0.134053
-0.131818
-0.120904
-0.105435
-0.0900243
-0.0778308
-0.0696912
-0.0654488
-0.0653306
-0.069711
-0.07772
-0.086533
-0.0922086
-0.0919329
-0.0855779
-0.0759193
-0.066239
-0.0586616
-0.0539985
-0.0527073
-0.0984866
-0.0867812
-0.0800679
-0.0778002
-0.0798834
-0.0870107
-0.0993792
-0.11491
-0.129003
-0.136413
-0.134102
-0.122898
-0.107009
-0.091141
-0.0785143
-0.0699867
-0.0653817
-0.0648889
-0.0688633
-0.0764582
-0.0849116
-0.09036
-0.0900487
-0.0838596
-0.0745216
-0.0652289
-0.05805
-0.0537806
-0.0528926
-0.0976604
-0.0863415
-0.0799741
-0.07803
-0.0804467
-0.0879534
-0.100753
-0.116722
-0.131169
-0.138747
-0.136367
-0.124877
-0.108569
-0.0922428
-0.0791806
-0.0702636
-0.0652958
-0.0644294
-0.0679997
-0.0751833
-0.0832814
-0.0885075
-0.0881647
-0.0821424
-0.073122
-0.0642121
-0.0574278
-0.0535505
-0.0530662
-0.0967996
-0.0858669
-0.079845
-0.0782241
-0.0809731
-0.088857
-0.102087
-0.118494
-0.133298
-0.141052
-0.138611
-0.126841
-0.110115
-0.0933297
-0.0798301
-0.0705223
-0.0651921
-0.0639534
-0.0671216
-0.0738971
-0.0816441
-0.086653
-0.0862825
-0.0804273
-0.0717211
-0.0631888
-0.0567949
-0.0533077
-0.0532274
-0.0959041
-0.0853569
-0.0796798
-0.078381
-0.0814609
-0.0897193
-0.103376
-0.120223
-0.135389
-0.143327
-0.140833
-0.128788
-0.111647
-0.0944017
-0.0804631
-0.0707637
-0.0650714
-0.063462
-0.0662307
-0.0726015
-0.0800017
-0.0847981
-0.0844032
-0.0787151
-0.0703195
-0.0621593
-0.0561512
-0.0530518
-0.0533756
-0.0949736
-0.0848109
-0.0794775
-0.0784997
-0.0819083
-0.0905381
-0.10462
-0.121905
-0.137437
-0.145568
-0.143031
-0.130717
-0.113163
-0.0954587
-0.08108
-0.0709882
-0.0649347
-0.0629565
-0.0653286
-0.0712982
-0.0783561
-0.0829444
-0.0825284
-0.0770068
-0.0689175
-0.0611236
-0.0554966
-0.0527825
-0.05351
-0.0940081
-0.0842283
-0.0792371
-0.0785788
-0.0823137
-0.0913112
-0.105814
-0.123537
-0.139441
-0.147772
-0.145202
-0.132627
-0.114664
-0.0965007
-0.0816812
-0.0711966
-0.0647829
-0.0624382
-0.0644166
-0.069989
-0.076709
-0.0810937
-0.0806592
-0.0753033
-0.0675158
-0.060082
-0.054831
-0.0524993
-0.05363
-0.0930076
-0.0836087
-0.078958
-0.0786171
-0.0826755
-0.0920366
-0.106956
-0.125117
-0.141395
-0.149938
-0.147345
-0.134516
-0.116149
-0.0975276
-0.082267
-0.0713895
-0.0646169
-0.0619082
-0.0634965
-0.0686756
-0.0750623
-0.0792475
-0.0787965
-0.0736054
-0.0661148
-0.0590348
-0.0541545
-0.052202
-0.0537349
-0.0919722
-0.0829519
-0.0786393
-0.0786137
-0.0829923
-0.0927121
-0.108044
-0.126641
-0.143299
-0.152061
-0.149457
-0.136384
-0.117617
-0.0985396
-0.0828379
-0.0715677
-0.0644377
-0.0613677
-0.0625696
-0.0673598
-0.0734176
-0.0774075
-0.0769414
-0.0719141
-0.0647152
-0.0579822
-0.0534669
-0.0518901
-0.0538239
-0.090902
-0.0822574
-0.0782804
-0.0785675
-0.0832626
-0.0933358
-0.109075
-0.128106
-0.145148
-0.15414
-0.151536
-0.138229
-0.119068
-0.0995365
-0.0833943
-0.0717318
-0.0642462
-0.060818
-0.0616373
-0.0660432
-0.0717767
-0.0755751
-0.0750955
-0.0702302
-0.0633174
-0.0569245
-0.0527683
-0.0515634
-0.0538965
-0.0897973
-0.0815252
-0.0778808
-0.0784775
-0.083485
-0.0939059
-0.110047
-0.12951
-0.146939
-0.156171
-0.15358
-0.140049
-0.120501
-0.100518
-0.0839366
-0.0718826
-0.0640433
-0.0602603
-0.0607012
-0.0647273
-0.0701411
-0.0737519
-0.0732601
-0.0685546
-0.0619221
-0.0558619
-0.0520587
-0.0512216
-0.0539521
-0.0886586
-0.0807551
-0.07744
-0.0783431
-0.0836584
-0.0944207
-0.110957
-0.13085
-0.14867
-0.158153
-0.155588
-0.141845
-0.121916
-0.101486
-0.0844654
-0.0720208
-0.0638301
-0.0596956
-0.0597626
-0.0634137
-0.0685125
-0.0719391
-0.0714369
-0.0668882
-0.0605296
-0.0547948
-0.0513381
-0.0508643
-0.0539899
-0.0874861
-0.0799472
-0.0769576
-0.0781635
-0.0837816
-0.0948784
-0.111804
-0.132123
-0.150338
-0.160082
-0.157558
-0.143613
-0.123312
-0.102438
-0.0849812
-0.0721471
-0.0636074
-0.0591251
-0.0588228
-0.062104
-0.0668924
-0.0701382
-0.0696271
-0.0652316
-0.0591407
-0.0537235
-0.0506066
-0.0504914
-0.0540093
-0.0862805
-0.0791016
-0.0764334
-0.077938
-0.0838536
-0.0952775
-0.112584
-0.133326
-0.15194
-0.161956
-0.159486
-0.145354
-0.124688
-0.103375
-0.0854844
-0.0722624
-0.0633761
-0.0585499
-0.0578832
-0.0607996
-0.0652822
-0.0683506
-0.0678312
-0.0635858
-0.0577559
-0.0526483
-0.0498643
-0.0501026
-0.0540098
-0.0850423
-0.0782185
-0.0758671
-0.077666
-0.0838734
-0.0956166
-0.113297
-0.134457
-0.153473
-0.163772
-0.161372
-0.147067
-0.126045
-0.104298
-0.0859755
-0.0723673
-0.0631372
-0.0579711
-0.0569449
-0.0595018
-0.0636834
-0.0665775
-0.06605
-0.0619515
-0.0563756
-0.0515696
-0.0491113
-0.0496976
-0.0539908
-0.0837724
-0.0772981
-0.0752588
-0.0773473
-0.0838402
-0.0958944
-0.11394
-0.135514
-0.154935
-0.165528
-0.163213
-0.148749
-0.127382
-0.105207
-0.0864551
-0.0724627
-0.0628915
-0.0573897
-0.0560092
-0.058212
-0.0620973
-0.0648201
-0.0642845
-0.0603294
-0.0550006
-0.0504878
-0.0483477
-0.0492764
-0.0539518
-0.0824714
-0.0763409
-0.0746083
-0.0769814
-0.0837533
-0.0961097
-0.114511
-0.136494
-0.156323
-0.167222
-0.165007
-0.150399
-0.128698
-0.106101
-0.0869236
-0.0725492
-0.06264
-0.0568068
-0.0550773
-0.0569315
-0.0605253
-0.0630796
-0.0625357
-0.0587204
-0.0536312
-0.0494033
-0.0475737
-0.0488388
-0.0538922
-0.0811402
-0.0753473
-0.0739159
-0.0765681
-0.0836122
-0.0962614
-0.115009
-0.137396
-0.157635
-0.168851
-0.166753
-0.152018
-0.129993
-0.106981
-0.0873816
-0.0726276
-0.0623836
-0.0562234
-0.0541502
-0.0556615
-0.0589685
-0.0613572
-0.0608047
-0.057125
-0.0522682
-0.0483164
-0.0467896
-0.0483845
-0.0538115
-0.0797799
-0.074318
-0.0731818
-0.0761072
-0.0834162
-0.0963488
-0.115433
-0.138217
-0.158868
-0.170412
-0.168449
-0.153602
-0.131266
-0.107846
-0.0878296
-0.0726987
-0.062123
-0.0556404
-0.053229
-0.0544032
-0.0574281
-0.0596537
-0.0590925
-0.0555441
-0.050912
-0.0472277
-0.0459954
-0.0479137
-0.0537093
-0.0783915
-0.0732536
-0.0724061
-0.0755989
-0.0831652
-0.0963709
-0.115781
-0.138956
-0.160021
-0.171904
-0.170092
-0.155152
-0.132517
-0.108698
-0.0882682
-0.0727632
-0.0618592
-0.0550587
-0.0523148
-0.0531576
-0.0559052
-0.0579704
-0.0573998
-0.0539784
-0.0495633
-0.0461375
-0.0451914
-0.0474261
-0.0535851
-0.0769761
-0.0721549
-0.0715895
-0.0750432
-0.0828589
-0.0963272
-0.116052
-0.13961
-0.161091
-0.173325
-0.171682
-0.156666
-0.133745
-0.109535
-0.0886977
-0.0728219
-0.0615929
-0.0544792
-0.0514084
-0.0519257
-0.0544009
-0.0563081
-0.0557273
-0.0524284
-0.0482225
-0.0450464
-0.044378
-0.0469217
-0.0534385
-0.0755349
-0.0710228
-0.0707324
-0.0744403
-0.0824972
-0.0962173
-0.116246
-0.14018
-0.162077
-0.174672
-0.173215
-0.158142
-0.13495
-0.110359
-0.0891188
-0.0728754
-0.061325
-0.0539029
-0.0505108
-0.0507086
-0.0529161
-0.0546676
-0.0540757
-0.0508948
-0.0468902
-0.0439547
-0.0435553
-0.0464006
-0.0532692
-0.0740691
-0.0698583
-0.0698354
-0.0737905
-0.0820801
-0.0960407
-0.116361
-0.140663
-0.162977
-0.175944
-0.174691
-0.159581
-0.136132
-0.111169
-0.0895319
-0.0729245
-0.0610563
-0.0533305
-0.0496229
-0.0495071
-0.0514518
-0.0530499
-0.0524459
-0.0493784
-0.0455671
-0.042863
-0.0427238
-0.0458627
-0.0530769
-0.0725803
-0.0686623
-0.0688993
-0.0730943
-0.0816079
-0.0957975
-0.116397
-0.141058
-0.163789
-0.17714
-0.176108
-0.160979
-0.13729
-0.111965
-0.0899375
-0.0729699
-0.0607875
-0.0527629
-0.0487454
-0.048322
-0.0500086
-0.0514558
-0.0508385
-0.0478796
-0.0442535
-0.0417718
-0.0418836
-0.0453082
-0.0528611
-0.0710697
-0.0674361
-0.0679248
-0.0723522
-0.0810808
-0.0954875
-0.116353
-0.141364
-0.164512
-0.178256
-0.177464
-0.162338
-0.138423
-0.112748
-0.090336
-0.0730122
-0.0605194
-0.0522007
-0.0478791
-0.0471542
-0.0485876
-0.0498858
-0.0492541
-0.0463991
-0.0429502
-0.0406816
-0.0410353
-0.0447372
-0.0526218
-0.0695388
-0.0661808
-0.066913
-0.0715648
-0.0804992
-0.095111
-0.116229
-0.141581
-0.165144
-0.179293
-0.178758
-0.163654
-0.139532
-0.113517
-0.090728
-0.0730523
-0.0602527
-0.0516447
-0.0470247
-0.0460043
-0.0471892
-0.0483408
-0.0476933
-0.0449374
-0.0416576
-0.0395929
-0.0401792
-0.0441496
-0.0523586
-0.0679892
-0.0648978
-0.0658648
-0.0707329
-0.0798637
-0.0946681
-0.116026
-0.141708
-0.165686
-0.180248
-0.179988
-0.164928
-0.140615
-0.114272
-0.0911138
-0.0730906
-0.059988
-0.0510957
-0.0461829
-0.0448729
-0.0458143
-0.0468214
-0.0461565
-0.0434952
-0.0403762
-0.0385062
-0.0393156
-0.0435459
-0.0520714
-0.0664225
-0.0635885
-0.0647812
-0.0698574
-0.079175
-0.0941595
-0.115742
-0.141745
-0.166136
-0.18112
-0.181153
-0.166158
-0.141672
-0.115014
-0.091494
-0.0731278
-0.0597262
-0.0505542
-0.0453542
-0.0437606
-0.0444633
-0.045328
-0.0446444
-0.042073
-0.0391066
-0.0374222
-0.0384451
-0.042926
-0.05176
-0.0648402
-0.0622542
-0.0636636
-0.0689392
-0.0784338
-0.0935856
-0.11538
-0.141691
-0.166493
-0.181909
-0.182252
-0.167343
-0.142702
-0.115743
-0.0918688
-0.0731646
-0.0594678
-0.0500209
-0.0445392
-0.042668
-0.0431368
-0.0438612
-0.0431574
-0.0406712
-0.0378494
-0.0363413
-0.0375681
-0.0422903
-0.0514244
-0.0632442
-0.0608966
-0.0625132
-0.0679794
-0.0776411
-0.0929472
-0.114938
-0.141547
-0.166757
-0.182612
-0.183283
-0.168482
-0.143705
-0.116458
-0.0922387
-0.0732016
-0.0592135
-0.0494963
-0.0437385
-0.0415955
-0.0418352
-0.0424216
-0.041696
-0.0392904
-0.0366049
-0.0352641
-0.036685
-0.0416391
-0.0510646
-0.061636
-0.0595172
-0.0613313
-0.066979
-0.0767978
-0.0922452
-0.114417
-0.141312
-0.166927
-0.183231
-0.184245
-0.169574
-0.144681
-0.11716
-0.092604
-0.0732393
-0.0589638
-0.0489812
-0.0429525
-0.0405434
-0.0405588
-0.0410093
-0.0402605
-0.0379311
-0.0353737
-0.0341912
-0.0357964
-0.0409725
-0.0506804
-0.0600174
-0.0581177
-0.0601194
-0.0659394
-0.0759051
-0.0914807
-0.113819
-0.140988
-0.167004
-0.183763
-0.185137
-0.170617
-0.145629
-0.117848
-0.092965
-0.0732782
-0.0587194
-0.0484759
-0.0421817
-0.0395121
-0.0393082
-0.0396249
-0.0388513
-0.0365937
-0.0341564
-0.0331231
-0.0349027
-0.040291
-0.050272
-0.0566997
-0.058879
-0.0648618
-0.0749643
-0.0906547
-0.113145
-0.140575
-0.166988
-0.184209
-0.185958
-0.171611
-0.146548
-0.118523
-0.0933222
-0.073319
-0.0584808
-0.047981
-0.0414264
-0.038502
-0.0380834
-0.0382686
-0.0374689
-0.0352788
-0.0329533
-0.0320605
-0.0340045
-0.039595
-0.0498394
-0.0552649
-0.0576116
-0.0637477
-0.0739767
-0.0897687
-0.112394
-0.140073
-0.166878
-0.184568
-0.186707
-0.172555
-0.147437
-0.119184
-0.0936758
-0.073362
-0.0582486
-0.0474969
-0.040687
-0.0375132
-0.0368846
-0.0369407
-0.0361134
-0.0339866
-0.0317651
-0.0310038
-0.0331023
-0.0388848
-0.0493828
-0.0538151
-0.056319
-0.0625985
-0.0729436
-0.0888239
-0.11157
-0.139484
-0.166676
-0.184839
-0.187383
-0.173448
-0.148296
-0.119832
-0.094026
-0.0734079
-0.0580233
-0.0470241
-0.0399639
-0.0365458
-0.0357121
-0.0356412
-0.0347851
-0.0327178
-0.030592
-0.0299536
-0.0321968
-0.0381608
-0.0489023
-0.0523522
-0.0550027
-0.0614157
-0.0718667
-0.0878219
-0.110672
-0.138808
-0.166382
-0.185024
-0.187986
-0.174287
-0.149125
-0.120465
-0.0943731
-0.073457
-0.0578053
-0.046563
-0.0392573
-0.0356002
-0.0345659
-0.0343705
-0.0334843
-0.0314726
-0.0294347
-0.0289106
-0.0312884
-0.0374235
-0.0483982
-0.050878
-0.0536647
-0.060201
-0.0707475
-0.0867644
-0.109702
-0.138047
-0.165997
-0.185122
-0.188515
-0.175074
-0.149922
-0.121085
-0.0947172
-0.0735097
-0.0575952
-0.0461141
-0.0385675
-0.0346762
-0.0334461
-0.0331285
-0.0322111
-0.0302515
-0.0282936
-0.0278754
-0.0303778
-0.0366735
-0.0478708
-0.0493943
-0.0523066
-0.0589562
-0.0695876
-0.085653
-0.108663
-0.137202
-0.165522
-0.185133
-0.188979
-0.175806
-0.150687
-0.12169
-0.0950587
-0.0735666
-0.0573933
-0.0456776
-0.0378948
-0.033774
-0.0323525
-0.0319153
-0.0309657
-0.029055
-0.0271692
-0.0268484
-0.0294656
-0.0359111
-0.0473202
-0.0479031
-0.0509304
-0.0576828
-0.068389
-0.0844897
-0.107556
-0.136275
-0.164957
-0.185057
-0.189361
-0.176482
-0.15142
-0.122281
-0.0953977
-0.0736278
-0.0572002
-0.0452538
-0.0372393
-0.0328936
-0.0312851
-0.0307309
-0.0297482
-0.0278832
-0.0260619
-0.0258303
-0.0285523
-0.0351371
-0.0467469
-0.0464063
-0.0495379
-0.0563827
-0.0671532
-0.0832763
-0.106383
-0.135267
-0.164305
-0.184896
-0.18966
-0.177102
-0.152118
-0.122857
-0.0957341
-0.0736938
-0.0570161
-0.0448432
-0.0366013
-0.032035
-0.0302438
-0.0295752
-0.0285587
-0.0267368
-0.0249722
-0.0248217
-0.0276388
-0.0343518
-0.0461513
-0.0449057
-0.0481311
-0.0550577
-0.0658823
-0.0820149
-0.105145
-0.13418
-0.163565
-0.18465
-0.189881
-0.177665
-0.152783
-0.123418
-0.0960682
-0.0737647
-0.0568414
-0.0444459
-0.0359808
-0.0311982
-0.0292283
-0.028448
-0.0273971
-0.0256159
-0.0239007
-0.0238232
-0.0267255
-0.033556
-0.0455338
-0.0434033
-0.0467119
-0.0537098
-0.0645782
-0.0807076
-0.103845
-0.133015
-0.162741
-0.184319
-0.190027
-0.178169
-0.153412
-0.123964
-0.0963999
-0.0738411
-0.0566765
-0.0440624
-0.0353781
-0.030383
-0.0282386
-0.0273493
-0.0262635
-0.0245209
-0.0228478
-0.0228353
-0.0258132
-0.0327503
-0.0448949
-0.0419009
-0.0452824
-0.0523408
-0.0632428
-0.0793564
-0.102486
-0.131776
-0.161833
-0.183904
-0.190096
-0.178612
-0.154004
-0.124494
-0.0967301
-0.0739237
-0.0565224
-0.0436932
-0.0347937
-0.0295898
-0.0272745
-0.026279
-0.025158
-0.0234524
-0.0218142
-0.021859
-0.0249026
-0.0319354
-0.0442351
-0.0404009
-0.0438446
-0.0509528
-0.0618782
-0.0779637
-0.101069
-0.130464
-0.160843
-0.183406
-0.190086
-0.178994
-0.15456
-0.12501
-0.0970593
-0.0740131
-0.0563794
-0.0433386
-0.0342274
-0.0288181
-0.0263356
-0.0252368
-0.0240807
-0.0224109
-0.0208006
-0.0208948
-0.0239945
-0.0311119
-0.0435549
-0.0389051
-0.0424006
-0.0495478
-0.0604864
-0.0765318
-0.0995958
-0.12908
-0.159773
-0.182826
-0.190003
-0.179318
-0.15508
-0.125508
-0.0973841
-0.0741056
-0.0562441
-0.0429957
-0.033677
-0.0280658
-0.0254192
-0.0242201
-0.0230293
-0.0213957
-0.0198069
-0.019943
-0.0230895
-0.0302806
-0.0428551
-0.037414
-0.040952
-0.0481274
-0.0590692
-0.0750629
-0.0980712
-0.12763
-0.158628
-0.182174
-0.189857
-0.179589
-0.155562
-0.125982
-0.0976945
-0.0741926
-0.0561103
-0.0426605
-0.0331398
-0.0273308
-0.0245232
-0.023226
-0.0220006
-0.0204054
-0.018831
-0.0190025
-0.0221871
-0.0294415
-0.0421361
-0.0359277
-0.0394991
-0.0466928
-0.0576283
-0.0735594
-0.0964974
-0.126117
-0.157411
-0.181445
-0.189631
-0.179782
-0.155987
-0.126426
-0.0979996
-0.074289
-0.0559937
-0.0423471
-0.0326285
-0.0266257
-0.0236607
-0.0222674
-0.0210062
-0.0194417
-0.0178789
-0.0180774
-0.0212901
-0.0285965
-0.0413991
-0.0344671
-0.0380525
-0.045253
-0.0561729
-0.0720239
-0.094863
-0.124508
-0.156056
-0.180532
-0.189189
-0.179807
-0.156344
-0.126895
-0.0983794
-0.0744743
-0.0559612
-0.0421068
-0.0321817
-0.0259831
-0.0228662
-0.0213843
-0.0200896
-0.0185371
-0.0169847
-0.0171941
-0.0204174
-0.0277562
-0.0406457
-0.0330835
-0.0366465
-0.043832
-0.0547208
-0.0704621
-0.0931463
-0.12274
-0.154468
-0.179352
-0.188513
-0.179732
-0.156744
-0.12748
-0.0988851
-0.0747649
-0.0560063
-0.041919
-0.0317675
-0.0253607
-0.0220912
-0.020532
-0.0192191
-0.0177101
-0.0161478
-0.0163584
-0.0195755
-0.0269238
-0.0398717
-0.0316257
-0.0352255
-0.0423721
-0.0531999
-0.0688787
-0.0915381
-0.121269
-0.153423
-0.178977
-0.188784
-0.180347
-0.157391
-0.127938
-0.0990531
-0.0746519
-0.0556677
-0.0414023
-0.0310718
-0.0244631
-0.0210066
-0.0193305
-0.017982
-0.0165212
-0.0150363
-0.015308
-0.0185687
-0.0259831
-0.0390613
-0.0265975
-0.0308626
-0.0379812
-0.0485931
-0.0646629
-0.0888
-0.12101
-0.156038
-0.18385
-0.194626
-0.184821
-0.159773
-0.128539
-0.0983981
-0.0732463
-0.0538934
-0.0394779
-0.0289649
-0.021949
-0.0179038
-0.0156749
-0.0139516
-0.011994
-0.0111441
-0.0116732
-0.0152151
-0.0231131
-0.0370289
-0.057619
-0.0217453
-0.0263789
-0.0338275
-0.044765
-0.0611743
-0.0856068
-0.118031
-0.153149
-0.180921
-0.191711
-0.182185
-0.15733
-0.12601
-0.0958681
-0.0707758
-0.0514606
-0.037015
-0.0263933
-0.0191992
-0.0149665
-0.0126399
-0.0109486
-0.00929379
-0.00828489
-0.0089247
-0.0126192
-0.0208021
-0.0352167
-0.0565292
-0.0172916
-0.0222948
-0.0301568
-0.0414666
-0.0580367
-0.0822126
-0.114003
-0.148539
-0.176402
-0.188024
-0.179075
-0.154377
-0.12314
-0.093102
-0.0681276
-0.0488962
-0.0344841
-0.023833
-0.0165307
-0.0121535
-0.00974793
-0.00807736
-0.00644223
-0.0056493
-0.00649943
-0.0103655
-0.0187773
-0.0335316
-0.0552947
-0.0126817
-0.0180499
-0.0261996
-0.0376926
-0.0542692
-0.0781684
-0.109516
-0.143887
-0.17217
-0.184274
-0.175442
-0.150812
-0.119722
-0.0899341
-0.0652206
-0.0461827
-0.031886
-0.0212675
-0.0138995
-0.00939298
-0.00688369
-0.00517566
-0.003614
-0.00295608
-0.00392847
-0.00791949
-0.0165231
-0.0315965
-0.0538161
-0.00810283
-0.0137232
-0.0219974
-0.0335062
-0.0499889
-0.0736586
-0.104746
-0.139055
-0.167418
-0.179499
-0.17084
-0.146447
-0.115724
-0.08638
-0.0620726
-0.0433353
-0.0292345
-0.0187113
-0.0113281
-0.00673073
-0.00414064
-0.00241877
-0.000972708
-0.0003482
-0.00136811
-0.00541094
-0.0141356
-0.0294772
-0.0521331
-0.00371164
-0.0094672
-0.0177522
-0.029174
-0.0454732
-0.0688352
-0.0995316
-0.133473
-0.161565
-0.173619
-0.165253
-0.1413
-0.111167
-0.0824548
-0.0586972
-0.0403668
-0.026541
-0.0161748
-0.00882675
-0.00417858
-0.00153921
0.000168533
0.00151317
0.00210429
0.00106734
-0.00297436
-0.0117467
-0.0272682
-0.0502606
0.000451668
-0.00535015
-0.0135635
-0.0248126
-0.0408129
-0.063681
-0.0936992
-0.126961
-0.154652
-0.166717
-0.158717
-0.135393
-0.106069
-0.0781783
-0.0551124
-0.037292
-0.0238175
-0.0136671
-0.00640199
-0.00173982
0.000922776
0.00259962
0.00385044
0.00439762
0.00336134
-0.000639743
-0.00939149
-0.0249901
-0.0481807
0.00438039
-0.00138917
-0.0094491
-0.0204297
-0.0359941
-0.0581603
-0.0872468
-0.119631
-0.146808
-0.158827
-0.151261
-0.12876
-0.100464
-0.0735785
-0.0513405
-0.0341279
-0.0210765
-0.0111973
-0.00405979
0.000582971
0.00324693
0.00487967
0.00603831
0.00653879
0.00552042
0.00159766
-0.00706612
-0.0226364
-0.0458818
0.00806946
0.00241004
-0.00541057
-0.0160222
-0.0310177
-0.0523072
-0.0802742
-0.111596
-0.138084
-0.149989
-0.142942
-0.121454
-0.0943943
-0.0686899
-0.0474075
-0.030893
-0.0183307
-0.00877397
-0.00180557
0.00278729
0.00543355
0.00701125
0.00807752
0.00853032
0.00754556
0.00373768
-0.00477172
-0.0202097
-0.0433703
0.0115171
0.00604122
-0.00145876
-0.0116099
-0.0259233
-0.0461946
-0.0728664
-0.102915
-0.128539
-0.140279
-0.13384
-0.113544
-0.0879168
-0.0635538
-0.043343
-0.0276075
-0.0155934
-0.0064054
0.000355844
0.00487102
0.00748337
0.00899768
0.00997009
0.0103732
0.0094339
0.00577322
-0.00251926
-0.0177242
-0.0406602
0.0147284
0.00949956
0.00238989
-0.00722504
-0.0207629
-0.0398864
-0.065081
-0.093652
-0.118268
-0.129812
-0.124061
-0.105119
-0.0810972
-0.0582176
-0.0391795
-0.0242929
-0.0128778
-0.00409936
0.00242037
0.00683264
0.00939766
0.0108427
0.0117194
0.0120697
0.0111833
0.00769618
-0.000322817
-0.0151973
-0.037766
0.0177152
0.0127853
0.0061217
-0.0028972
-0.0155805
-0.0334347
-0.056985
-0.0839095
-0.107402
-0.118726
-0.113736
-0.0962825
-0.0740113
-0.0527335
-0.034952
-0.0209716
-0.0101973
-0.001863
0.00438475
0.0086713
0.011178
0.0125505
0.01333
0.0136236
0.0127934
0.00949997
0.00180412
-0.012647
-0.0347041
0.0204939
0.015904
0.00972836
0.00135033
-0.0104141
-0.0268964
-0.0486695
-0.0738183
-0.0960958
-0.107183
-0.103009
-0.0871495
-0.0667423
-0.0471576
-0.0306971
-0.0176666
-0.00756507
0.000297223
0.00624663
0.0103869
0.0128264
0.0141253
0.0148075
0.0150399
0.0142659
0.0111796
0.00384866
-0.0100924
-0.0314956
0.0230811
0.0188632
0.0132042
0.00549699
-0.00530241
-0.0203381
-0.0402407
-0.0635275
-0.0845345
-0.0953617
-0.0920353
-0.0778445
-0.0593788
-0.0415482
-0.0264519
-0.0144009
-0.00499393
0.00237555
0.00800459
0.0119799
0.0143447
0.0155713
0.0161577
0.0163248
0.0156035
0.0127312
0.00579783
-0.00755533
-0.0281677
0.0254881
0.021667
0.0165421
0.00952182
-0.000284987
-0.0138291
-0.0318136
-0.0532033
-0.0729143
-0.0834549
-0.0809821
-0.0684972
-0.0520117
-0.0359642
-0.0222534
-0.0111971
-0.00249624
0.00436694
0.00965814
0.0134519
0.0157354
0.0168928
0.017387
0.0174853
0.0168101
0.0141518
0.00763851
-0.00505957
-0.0247524
0.0277156
0.0243115
0.0197299
0.0134035
0.00460188
-0.00743779
-0.0235112
-0.043026
-0.061441
-0.0716629
-0.0700215
-0.0592377
-0.0447313
-0.0304635
-0.0181368
-0.00807649
-8.36311e-05
0.00626709
0.0112077
0.0148051
0.0170011
0.0180936
0.0185014
0.0185284
0.0178906
0.0154393
0.00935782
-0.00263025
-0.0212855
0.0297523
0.0267816
0.0227492
0.0171215
0.00932709
-0.00123227
-0.015465
-0.0331848
-0.0503224
-0.0601801
-0.0593153
-0.0501901
-0.0376237
-0.025101
-0.0141356
-0.00505889
0.00223315
0.00807234
0.0126545
0.0160427
0.0181448
0.0191771
0.0195062
0.0194613
0.0188499
0.0165926
0.0109437
-0.000292721
-0.0178059
0.031577
0.0290519
0.0255756
0.0206556
0.0138626
0.00471711
-0.00781282
-0.0238671
-0.0397499
-0.0491769
-0.0490089
-0.0414684
-0.0307685
-0.0199272
-0.0102798
-0.00216192
0.00444454
0.0097797
0.0140006
0.0171689
0.0191701
0.0201464
0.020406
0.0202902
0.0196934
0.0176115
0.0123857
0.00192843
-0.0143545
0.0331665
0.0310918
0.0281788
0.0239817
0.0181754
0.0103318
-0.000693284
-0.0152394
-0.029879
-0.0387897
-0.0392258
-0.033172
-0.0242357
-0.0149866
-0.00659566
0.000599342
0.00654233
0.0113867
0.0152483
0.0181884
0.0200811
0.0210043
0.0212042
0.0210196
0.0204261
0.018497
0.0136753
0.00401067
-0.0109726
0.0345037
0.0328724
0.0305243
0.0270632
0.0222118
0.0155167
0.00576511
-0.00742433
-0.02081
-0.0291223
-0.0300668
-0.0253842
-0.0180841
-0.0103167
-0.00310513
0.00321262
0.00851991
0.0128916
0.0164005
0.0191069
0.020883
0.0217539
0.0219036
0.0216558
0.0210529
0.0192513
0.0148071
0.00593511
-0.00770014
0.0355842
0.0343739
0.0325758
0.0298427
0.0258838
0.0201603
0.0114631
-0.000478784
-0.012584
-0.0202386
-0.0216095
-0.01817
-0.0123593
-0.00594676
0.000174494
0.00566858
0.0103724
0.0142932
0.0174604
0.0199305
0.0215817
0.0223986
0.0225061
0.0222013
0.0215787
0.0198784
0.01578
0.00768831
-0.0045734
0.0364158
0.0355889
0.0342996
0.0322455
0.0290786
0.024156
0.0163541
0.00560875
-0.00519841
-0.0121767
-0.0139091
-0.0115755
-0.00709336
-0.00189785
0.00323074
0.00796081
0.0120968
0.0155909
0.0184309
0.0206657
0.0221843
0.0229432
0.0230142
0.0226592
0.0220086
0.0203846
0.0165979
0.00926397
-0.00162276
0.0370146
0.0365224
0.0356744
0.0342054
0.0317004
0.0274422
0.0204558
0.010896
0.00136715
-0.00496181
-0.00700077
-0.00562763
-0.0023044
0.00181773
0.00605586
0.0100857
0.0136918
0.0167851
0.0193151
0.0213188
0.0226986
0.0233936
0.0234315
0.0230332
0.0223489
0.0207797
0.0172714
0.0106644
0.00112924
0.0374002
0.0371896
0.0366997
0.0356946
0.0337157
0.0300298
0.023835
0.0154483
0.00712717
0.00139044
-0.000899166
-0.000333735
0.00200328
0.00519589
0.00864664
0.0120421
0.015158
0.0178768
0.0201161
0.0218963
0.0231331
0.0237576
0.0237631
0.0233282
0.0226081
0.0210774
0.0178182
0.0119014
0.00366923
0.037592
0.0376122
0.0373974
0.0367358
0.0351645
0.0319893
0.0265731
0.0193117
0.0120865
0.00687936
0.00440458
0.00431806
0.00583786
0.00824002
0.011004
0.0138311
0.0164974
0.0188684
0.0208368
0.0224039
0.0234964
0.0240445
0.0240165
0.0235514
0.0227972
0.0212961
0.0182629
0.0129955
0.00599375
0.037609
0.0378146
0.0378037
0.0373863
0.0361289
0.0334121
0.0287395
0.0225139
0.0162568
0.0115286
0.00894358
0.00835672
0.00921807
0.0109598
0.0131323
0.0154558
0.0177131
0.0197627
0.0214802
0.0228472
0.0237971
0.0242643
0.0242015
0.0237122
0.02293
0.0214573
0.0186353
0.0139746
0.00810931
0.0374693
0.0378209
0.0379581
0.0377112
0.0366962
0.0343833
0.0303907
0.0250854
0.019673
0.0153915
0.0127727
0.0118245
0.0121705
0.0133699
0.015039
0.0169208
0.0188094
0.0205637
0.0220499
0.0232309
0.0240431
0.0244273
0.0243287
0.023822
0.0230216
0.0215846
0.0189679
0.0148709
0.0100316
0.0371904
0.0376543
0.0378971
0.0377688
0.0369418
0.0349762
0.0315836
0.0270767
0.0224
0.0185456
0.0159608
0.014772
0.014727
0.0154883
0.0167339
0.018232
0.0197914
0.0212758
0.0225494
0.0235594
0.0242415
0.0245436
0.0244097
0.0238925
0.0230866
0.0216998
0.0192912
0.0157175
0.011784
0.0367897
0.0373371
0.037654
0.0376088
0.0369287
0.0352581
0.0323827
0.0285595
0.0245236
0.0210804
0.0185828
0.0172531
0.0169217
0.0173351
0.0182284
0.0193964
0.0206643
0.0219042
0.0229829
0.0238368
0.0243983
0.0246221
0.0244553
0.0239347
0.0231378
0.02182
0.0196296
0.0165439
0.0133942
0.036285
0.0368922
0.03726
0.0372745
0.0367119
0.0352918
0.0328572
0.0296145
0.0261339
0.0230824
0.0207126
0.0193219
0.0187895
0.0189318
0.0195352
0.0204219
0.0214341
0.022454
0.023355
0.0240668
0.0245188
0.0246705
0.0244744
0.0239576
0.0231843
0.0219554
0.0199973
0.0173705
0.0148881
0.0356943
0.0363422
0.0367448
0.0368041
0.0363392
0.0351331
0.033073
0.0303225
0.0273166
0.0245087
0.0224176
0.02103
0.0203646
0.0202999
0.0206677
0.0213167
0.0221067
0.0229305
0.0236703
0.0242535
0.0246073
0.0246946
0.0244743
0.0239685
0.0232314
0.0221085
0.0203957
0.0182023
0.0162798
0.035035
0.0357091
0.0361356
0.0362308
0.0358504
0.0348289
0.0330875
0.0307563
0.0281695
0.0256934
0.0237775
0.0224259
0.0216795
0.0214607
0.0216395
0.0220898
0.0226885
0.023339
0.0239336
0.0244008
0.0246675
0.0246992
0.0244604
0.023972
0.0232808
0.0222752
0.0208133
0.0190253
0.0175645
0.0343235
0.035013
0.0354562
0.0355824
0.0352776
0.0344174
0.0329479
0.0309742
0.0287571
0.0266034
0.0248462
0.0235527
0.0227646
0.0224346
0.0224644
0.0227502
0.0231856
0.0236845
0.0241496
0.0245129
0.0247029
0.0246876
0.0244364
0.0239705
0.0233318
0.0224472
0.02123
0.0198097
0.0187195
0.0335749
0.0342719
0.0347272
0.0348817
0.034646
0.0339278
0.0326919
0.0310237
0.0291295
0.0272601
0.0256671
0.0244477
0.0236477
0.0232412
0.0231556
0.023307
0.0236044
0.023972
0.0243226
0.0245936
0.0247167
0.0246625
0.0244046
0.0239649
0.0233816
0.0226149
0.0216222
0.0205199
0.0197159
0.0328023
0.0335013
0.033966
0.0341471
0.0339754
0.033383
0.0323488
0.0309427
0.0293284
0.0277081
0.0262781
0.0251438
0.0243541
0.0238989
0.0237261
0.0237691
0.0239511
0.0242061
0.0244567
0.0246464
0.0247115
0.0246258
0.0243661
0.0239549
0.0234271
0.0227687
0.0219702
0.0211274
0.0205336
0.0320173
0.0327144
0.0331866
0.0333933
0.0332811
0.0328007
0.0319412
0.0307601
0.0293878
0.0279888
0.0267137
0.02567
0.0249067
0.0244246
0.0241881
0.0241451
0.0242318
0.0243914
0.0245557
0.0246745
0.0246899
0.024579
0.0243211
0.0239393
0.0234645
0.0229012
0.0222612
0.021618
0.0211706
0.0312297
0.0319221
0.0324006
0.0326318
0.0325748
0.0321945
0.0314864
0.0304987
0.0293355
0.0281353
0.027003
0.0260516
0.0253258
0.024834
0.0245531
0.0244435
0.0244526
0.0245322
0.0246228
0.0246807
0.0246539
0.024523
0.0242695
0.0239163
0.0234902
0.0230073
0.0224905
0.021993
0.021642
0.0304475
0.0311334
0.0316172
0.0318717
0.0318658
0.0315747
0.0309985
0.0301774
0.0291943
0.0281564
0.0271689
0.0263105
0.0256299
0.0251415
0.024832
0.024672
0.0246191
0.0246326
0.0246612
0.0246675
0.0246052
0.0244587
0.0242111
0.0238833
0.0235015
0.0230845
0.0226598
0.0222638
0.0219728
0.0296775
0.0303554
0.0308438
0.0311202
0.0311613
0.0309496
0.0304886
0.0298115
0.0289843
0.0280852
0.0272338
0.0264661
0.0258353
0.0253601
0.0250348
0.0248383
0.0247367
0.0246965
0.0246737
0.0246367
0.0245451
0.0243865
0.0241455
0.0238417
0.0234969
0.0231322
0.0227746
0.0224465
0.0221903
0.028925
0.0295941
0.0300861
0.0303828
0.0304666
0.0303258
0.0299653
0.0294132
0.028723
0.0279606
0.0272185
0.0265354
0.0259564
0.0255016
0.0251707
0.0249491
0.0248105
0.0247274
0.0246628
0.0245903
0.0244747
0.0243067
0.0240725
0.0237896
0.0234758
0.0231518
0.0228416
0.0225574
0.0223195
0.0281943
0.0288537
0.0293484
0.0296636
0.0297861
0.0297081
0.0294356
0.0289923
0.028422
0.0277798
0.0271369
0.0265327
0.026006
0.0255766
0.025248
0.025011
0.0248452
0.0247289
0.0246308
0.0245296
0.024395
0.0242198
0.0239919
0.0237267
0.0234384
0.0231455
0.0228682
0.0226112
0.0223813
0.0274885
0.0281376
0.028634
0.0289658
0.029123
0.0291006
0.0289051
0.0285565
0.0280908
0.0275537
0.0270013
0.0264705
0.0259953
0.0255946
0.0252745
0.0250298
0.0248453
0.024704
0.0245799
0.0244559
0.0243064
0.024126
0.0239039
0.0236535
0.0233855
0.0231159
0.0228611
0.02262
0.0223919
0.0268101
0.0274482
0.0279454
0.0282917
0.0284796
0.0285062
0.0283779
0.0281116
0.0277374
0.0272927
0.0268221
0.0263592
0.0259339
0.025564
0.0252571
0.0250111
0.0248148
0.0246556
0.024512
0.0243706
0.0242097
0.0240257
0.0238088
0.0235704
0.0233186
0.0230662
0.0228262
0.0225937
0.0223641
0.0261607
0.0267873
0.0272841
0.0276428
0.0278578
0.0279273
0.0278575
0.027663
0.0273688
0.027005
0.0266081
0.0262078
0.0258303
0.0254922
0.0252019
0.0249596
0.0247576
0.0245864
0.0244289
0.0242746
0.0241056
0.0239192
0.023707
0.0234783
0.0232391
0.0229993
0.0227688
0.0225401
0.0223072
0.0255413
0.026156
0.0266513
0.0270203
0.0272587
0.0273656
0.0273469
0.0272149
0.0269902
0.0266974
0.0263669
0.0260241
0.025692
0.0253859
0.0251147
0.0248801
0.024677
0.024499
0.0243323
0.0241691
0.0239945
0.0238069
0.0235989
0.0233782
0.0231487
0.022918
0.0226933
0.0224655
0.0222285
0.0249526
0.0255548
0.0260475
0.0264247
0.0266832
0.0268226
0.0268482
0.0267704
0.0266062
0.026376
0.0261049
0.0258146
0.0255254
0.025251
0.0250003
0.0247764
0.0245763
0.0243956
0.0242237
0.024055
0.0238772
0.0236894
0.0234853
0.0232709
0.0230489
0.0228247
0.0226032
0.0223747
0.0221335
0.0243947
0.024984
0.0254729
0.0258564
0.0261318
0.0262992
0.026363
0.0263321
0.0262208
0.0260457
0.0258276
0.0255852
0.025336
0.0250926
0.0248634
0.0246524
0.0244582
0.0242783
0.0241047
0.0239332
0.0237541
0.0235671
0.0233667
0.0231575
0.0229414
0.0227216
0.0225017
0.0222716
0.0220265
0.0238675
0.0244435
0.0249276
0.0253154
0.0256048
0.0257959
0.0258926