/*--------------------------------*- C++ -*----------------------------------*\
  =========                 |
  \\      /  F ield         | OpenFOAM: The Open Source CFD Toolbox
   \\    /   O peration     | Website:  https://openfoam.org
    \\  /    A nd           | Version:  7
     \\/     M anipulation  |
\*---------------------------------------------------------------------------*/
FoamFile
{
    version     2.0;
    format      ascii;
    class       volVectorField;
    location    "200";
    object      U;
}
// * * * * * * * * * * * * * * * * * * * * * * * * * * * * * * * * * * * * * //

dimensions      [0 1 -1 0 0 0 0];

internalField   nonuniform List<vector> 
7156
(
(0.875692 0.494482 -1.6084e-22)
(0.884536 0.497601 2.91895e-23)
(0.885625 0.493007 2.47896e-23)
(0.877228 0.494121 -4.87633e-23)
(0.857505 0.505362 3.0141e-25)
(0.828479 0.512578 -7.68081e-24)
(0.79671 0.488458 -8.16435e-24)
(0.770006 0.410876 2.08204e-23)
(0.754023 0.278068 -2.16286e-22)
(0.751609 0.109415 -1.74688e-22)
(0.762774 -0.0646209 -7.04656e-23)
(0.784279 -0.215116 8.92096e-23)
(0.810878 -0.323974 -1.83031e-22)
(0.837324 -0.388339 8.80094e-24)
(0.858114 -0.41994 1.28161e-23)
(0.867537 -0.437909 3.28724e-23)
(0.862433 -0.454402 3.18714e-23)
(0.844016 -0.464637 -4.29303e-23)
(0.817226 -0.450616 7.38935e-23)
(0.788793 -0.395138 -7.13357e-24)
(0.7653 -0.293713 1.36258e-22)
(0.751947 -0.157304 -2.42844e-23)
(0.752193 -0.00770623 -1.02479e-22)
(0.766167 0.131232 7.71149e-23)
(0.789129 0.241902 -4.02866e-23)
(0.812113 0.320225 4.35219e-23)
(0.826114 0.371325 4.68065e-23)
(0.826204 0.402534 8.64867e-24)
(0.813397 0.412028 1.52332e-23)
(0.872755 0.493098 1.1303e-22)
(0.882644 0.49707 -1.33131e-22)
(0.884638 0.493308 -5.58889e-23)
(0.876973 0.495384 5.17374e-23)
(0.857888 0.507549 4.37605e-23)
(0.829502 0.515295 4.88357e-23)
(0.798398 0.49108 -1.67359e-23)
(0.772291 0.412831 2.62431e-22)
(0.756738 0.279001 1.49733e-22)
(0.754558 0.109205 9.24348e-23)
(0.765765 -0.0658373 -1.69748e-22)
(0.787108 -0.21698 -1.89643e-22)
(0.813301 -0.326044 2.98961e-22)
(0.839159 -0.390175 -1.40238e-22)
(0.859346 -0.421097 -2.64212e-22)
(0.868227 -0.438051 7.99888e-24)
(0.862614 -0.453482 -1.56588e-22)
(0.843696 -0.462925 5.73359e-23)
(0.816416 -0.448579 1.07027e-22)
(0.787546 -0.39328 1.54397e-22)
(0.763774 -0.292453 5.03787e-23)
(0.750362 -0.156923 -1.4251e-22)
(0.750758 -0.00829029 8.57168e-23)
(0.765007 0.129882 2.20572e-22)
(0.788268 0.240283 2.12223e-23)
(0.811505 0.318945 1.93388e-22)
(0.825747 0.370828 -6.58828e-23)
(0.826099 0.402921 -5.12845e-23)
(0.813571 0.413081 -5.57436e-23)
(0.869861 0.491597 2.39111e-22)
(0.880795 0.496445 3.72479e-23)
(0.8837 0.493532 -1.11134e-22)
(0.876782 0.496573 -1.88325e-22)
(0.858354 0.509665 -1.69584e-22)
(0.830629 0.51796 -4.53747e-23)
(0.800202 0.493696 5.33618e-23)
(0.774696 0.414845 -3.37047e-22)
(0.75957 0.280047 4.68938e-22)
(0.757614 0.10914 -2.74604e-22)
(0.768851 -0.0669041 3.5491e-22)
(0.79002 -0.218708 2.55837e-23)
(0.815797 -0.328002 -3.69116e-22)
(0.841057 -0.391927 -3.10532e-22)
(0.860634 -0.422191 5.90724e-22)
(0.868979 -0.438142 -6.58078e-23)
(0.862867 -0.452516 8.68676e-23)
(0.843462 -0.461179 2.27471e-22)
(0.815706 -0.446534 -6.24974e-23)
(0.786409 -0.391448 2.07827e-22)
(0.762357 -0.291256 6.22353e-23)
(0.748881 -0.156632 -4.86303e-22)
(0.749418 -0.00897351 1.15711e-22)
(0.763929 0.128443 -1.85405e-22)
(0.787475 0.238594 1.38436e-23)
(0.810959 0.317615 -1.23045e-22)
(0.825445 0.370292 -1.67378e-23)
(0.826065 0.40328 -7.0344e-23)
(0.813823 0.414119 1.90885e-24)
(0.867009 0.489977 3.50044e-23)
(0.878988 0.495725 -3.8941e-22)
(0.882809 0.493677 1.20538e-22)
(0.876652 0.497687 3.39745e-22)
(0.858901 0.511707 -2.06279e-22)
(0.831856 0.520571 8.88344e-22)
(0.802121 0.496306 -1.07486e-22)
(0.777219 0.416916 -3.8543e-22)
(0.762517 0.28121 2.68339e-22)
(0.760775 0.109224 -7.5613e-24)
(0.772029 -0.0678189 9.70879e-22)
(0.793014 -0.2203 -8.21993e-22)
(0.818368 -0.329847 8.02392e-22)
(0.843021 -0.393593 1.19046e-21)
(0.861981 -0.423225 -1.0096e-21)
(0.869793 -0.438184 2.28229e-22)
(0.863194 -0.451508 9.85469e-23)
(0.843314 -0.459402 -4.54376e-23)
(0.815096 -0.44448 -2.5974e-22)
(0.785381 -0.389643 -1.60746e-22)
(0.761051 -0.290122 -4.68151e-22)
(0.747505 -0.15643 5.76693e-22)
(0.748173 -0.00975383 -2.63891e-23)
(0.762933 0.126915 -3.56596e-22)
(0.78675 0.236835 2.29473e-22)
(0.810476 0.316232 -3.46184e-22)
(0.825206 0.369718 -6.18177e-22)
(0.826101 0.403609 -3.49601e-22)
(0.814154 0.41514 8.67441e-24)
(0.864198 0.488237 2.90831e-22)
(0.87722 0.494907 1.64646e-22)
(0.881965 0.493738 -6.51411e-22)
(0.876583 0.49872 -5.68613e-22)
(0.859528 0.513672 1.74189e-22)
(0.833182 0.523126 -6.5742e-22)
(0.80415 0.498909 -4.39143e-22)
(0.779857 0.419047 8.47665e-22)
(0.765576 0.282492 -8.25916e-22)
(0.764041 0.109459 1.54656e-22)
(0.7753 -0.068579 -1.71687e-22)
(0.796091 -0.221753 2.00805e-22)
(0.821013 -0.331578 -9.11791e-22)
(0.845049 -0.395173 -8.28125e-22)
(0.863386 -0.424199 7.76911e-22)
(0.870669 -0.438181 -6.7881e-22)
(0.863594 -0.450459 4.00544e-23)
(0.843253 -0.457596 -1.2148e-22)
(0.814587 -0.44242 5.84264e-22)
(0.784463 -0.387864 2.15924e-22)
(0.759855 -0.289049 -9.67055e-23)
(0.746234 -0.156314 -5.16915e-22)
(0.747021 -0.0106293 4.96944e-22)
(0.762016 0.125301 -9.58594e-23)
(0.786091 0.235008 -6.6926e-22)
(0.810053 0.314798 -1.60215e-22)
(0.825031 0.369103 4.44046e-22)
(0.826206 0.403907 4.60659e-22)
(0.814562 0.416143 1.05837e-22)
(0.861427 0.486375 4.11586e-22)
(0.875491 0.49399 -1.10283e-22)
(0.881164 0.493714 1.43879e-22)
(0.876571 0.499669 3.12879e-22)
(0.860231 0.515554 -4.94965e-22)
(0.834604 0.525621 5.00574e-22)
(0.806288 0.501503 1.91206e-22)
(0.782607 0.421237 4.68595e-22)
(0.768747 0.283893 -1.97222e-22)
(0.76741 0.109848 -1.07423e-21)
(0.778662 -0.069182 8.76371e-22)
(0.799249 -0.223066 -5.98003e-22)
(0.823734 -0.333193 2.75574e-23)
(0.847145 -0.396668 -9.6388e-22)
(0.86485 -0.425113 -2.43873e-22)
(0.871607 -0.438133 1.04027e-21)
(0.864067 -0.449373 -2.16179e-22)
(0.84328 -0.455763 -1.06368e-23)
(0.814179 -0.440354 -1.06786e-22)
(0.783655 -0.38611 -2.8244e-22)
(0.758769 -0.288035 -5.70546e-22)
(0.745066 -0.156284 5.88564e-22)
(0.745963 -0.0115979 -3.6016e-22)
(0.761178 0.123603 1.12401e-21)
(0.785499 0.233114 -7.89801e-24)
(0.80969 0.313312 6.66087e-22)
(0.824918 0.368446 8.33511e-22)
(0.82638 0.404173 -1.91781e-22)
(0.815048 0.417127 -7.10666e-22)
(0.858693 0.484389 2.75961e-22)
(0.873797 0.49297 1.37832e-22)
(0.880404 0.4936 -8.62591e-22)
(0.876614 0.500531 6.29717e-22)
(0.861009 0.517352 1.85328e-22)
(0.836119 0.528054 9.73699e-23)
(0.808531 0.504088 6.8252e-22)
(0.785468 0.423487 -1.71928e-21)
(0.772026 0.285415 2.12135e-21)
(0.77088 0.110392 7.12871e-22)
(0.782115 -0.0696254 9.79787e-23)
(0.802489 -0.224237 -6.37564e-23)
(0.826529 -0.334693 1.96987e-21)
(0.849307 -0.398076 1.22273e-21)
(0.866375 -0.425969 2.69894e-22)
(0.872608 -0.438043 -1.04357e-21)
(0.864615 -0.44825 -1.72166e-22)
(0.843393 -0.453904 3.39149e-22)
(0.813872 -0.438284 1.45614e-22)
(0.782958 -0.384383 -4.66272e-22)
(0.757795 -0.28708 4.43334e-22)
(0.744002 -0.156336 7.53853e-23)
(0.744996 -0.0126574 -3.58192e-22)
(0.760416 0.121821 -2.97732e-22)
(0.78497 0.231153 -4.59634e-22)
(0.809386 0.311774 1.70781e-22)
(0.824867 0.367747 -3.06516e-22)
(0.826623 0.404405 -2.11877e-22)
(0.815612 0.418091 7.68522e-22)
(0.855996 0.482279 -1.03349e-22)
(0.872137 0.491847 9.31638e-22)
(0.879684 0.493396 -7.46567e-22)
(0.87671 0.501301 -6.1018e-22)
(0.861858 0.519061 2.227e-22)
(0.837724 0.530423 -3.88288e-22)
(0.810876 0.506662 -6.898e-22)
(0.788436 0.425797 7.79286e-22)
(0.775412 0.287061 1.21302e-21)
(0.774449 0.111096 -2.22363e-21)
(0.785656 -0.069907 3.62722e-22)
(0.805809 -0.225264 3.39917e-22)
(0.8294 -0.336075 -1.20698e-21)
(0.851537 -0.399398 2.13084e-22)
(0.867961 -0.426768 1.64641e-21)
(0.873673 -0.437912 -1.37761e-21)
(0.865238 -0.447095 1.23187e-21)
(0.843594 -0.452022 -6.28603e-22)
(0.813667 -0.43621 -1.68764e-22)
(0.782371 -0.382682 -2.47655e-23)
(0.75693 -0.286183 3.0812e-22)
(0.743041 -0.156469 -4.84749e-22)
(0.744119 -0.0138051 -2.49954e-22)
(0.75973 0.119958 -2.33687e-22)
(0.784503 0.229125 5.40706e-22)
(0.809139 0.310183 1.13011e-22)
(0.824876 0.367004 3.79481e-23)
(0.826932 0.404602 -5.36836e-22)
(0.816252 0.419034 -8.78305e-22)
(0.853333 0.480042 -3.56013e-22)
(0.870508 0.490619 -6.73118e-22)
(0.879001 0.493097 2.09734e-21)
(0.876857 0.501977 -2.21729e-22)
(0.862776 0.520677 1.5544e-21)
(0.839416 0.532723 -1.25449e-21)
(0.813319 0.509223 -4.54867e-22)
(0.791508 0.428166 -7.77226e-22)
(0.778903 0.28883 -5.4436e-22)
(0.778116 0.111959 -4.55957e-23)
(0.789285 -0.0700245 1.90297e-21)
(0.809209 -0.226146 -8.2961e-22)
(0.832345 -0.337339 -1.28508e-21)
(0.853836 -0.400633 -2.18823e-21)
(0.869607 -0.42751 -1.60776e-21)
(0.874801 -0.437744 5.78855e-22)
(0.865935 -0.44591 6.35424e-22)
(0.843882 -0.450119 -3.09157e-22)
(0.813562 -0.434134 5.17632e-22)
(0.781895 -0.381006 2.14147e-22)
(0.756176 -0.285341 -2.52717e-22)
(0.742182 -0.156681 7.02636e-22)
(0.743331 -0.0150383 4.51912e-22)
(0.759117 0.118016 4.60594e-22)
(0.784098 0.227032 -1.51177e-21)
(0.80895 0.308539 -1.35918e-21)
(0.824945 0.366216 -4.9989e-22)
(0.827309 0.404762 3.68828e-22)
(0.816969 0.419954 2.24592e-22)
(0.850703 0.477677 4.05347e-22)
(0.868909 0.489283 7.95906e-22)
(0.878353 0.492701 -1.24566e-22)
(0.877051 0.502555 -1.52678e-21)
(0.863759 0.522197 4.92673e-22)
(0.841191 0.534954 -3.24516e-22)
(0.815858 0.511771 2.2439e-23)
(0.794681 0.430595 -1.41603e-21)
(0.782494 0.290724 2.04183e-21)
(0.781879 0.112986 1.91182e-22)
(0.792999 -0.0699757 -1.61614e-21)
(0.812686 -0.226881 -8.04895e-22)
(0.835365 -0.338485 1.17327e-21)
(0.856203 -0.401781 7.97619e-22)
(0.871315 -0.428196 7.51471e-24)
(0.875992 -0.43754 8.83173e-22)
(0.866706 -0.444696 -1.28824e-21)
(0.844257 -0.448196 1.02972e-21)
(0.813557 -0.432057 -1.88726e-22)
(0.781529 -0.379355 1.27981e-21)
(0.755532 -0.284554 -7.72907e-22)
(0.741424 -0.15697 -6.53076e-22)
(0.742631 -0.0163568 -5.58648e-23)
(0.758577 0.115996 -1.80035e-21)
(0.783753 0.224874 1.22993e-21)
(0.808816 0.306841 7.809e-22)
(0.825072 0.365382 1.52518e-21)
(0.827751 0.404885 4.42899e-22)
(0.817762 0.42085 4.15007e-22)
(0.848104 0.475184 -8.38252e-22)
(0.867337 0.487838 -2.25754e-22)
(0.877737 0.492205 2.15942e-21)
(0.87729 0.503032 -9.259e-22)
(0.864805 0.523618 1.98568e-22)
(0.843045 0.537111 -4.06329e-22)
(0.818487 0.514302 1.69699e-21)
(0.797952 0.433082 2.2642e-21)
(0.786184 0.292744 1.39626e-22)
(0.785734 0.114176 -1.74562e-21)
(0.796798 -0.0697585 -1.39601e-21)
(0.816242 -0.227467 3.54236e-21)
(0.838459 -0.33951 -1.39877e-21)
(0.858639 -0.402842 2.93211e-21)
(0.873086 -0.428827 -2.37648e-21)
(0.877246 -0.437301 4.19861e-22)
(0.867552 -0.443456 1.38466e-21)
(0.84472 -0.446256 -1.49848e-21)
(0.813652 -0.429979 -4.77887e-22)
(0.781273 -0.377728 -8.41523e-22)
(0.754997 -0.283819 4.80979e-22)
(0.740766 -0.157332 -4.01227e-22)
(0.742018 -0.0177584 -3.9593e-22)
(0.758107 0.1139 3.9361e-22)
(0.783466 0.222653 -5.59985e-22)
(0.808736 0.305089 -1.54162e-21)
(0.825257 0.3645 4.0524e-22)
(0.828259 0.404968 -1.22847e-21)
(0.818629 0.421721 -4.32023e-23)
(0.845534 0.47256 -1.88022e-21)
(0.86579 0.486282 -1.02362e-21)
(0.87715 0.491608 6.44642e-22)
(0.877571 0.503405 -4.62484e-22)
(0.86591 0.524936 -1.21108e-21)
(0.844976 0.539191 1.01451e-21)
(0.821204 0.516815 -4.94753e-22)
(0.801316 0.435627 -8.16869e-22)
(0.789969 0.294889 3.81623e-22)
(0.789679 0.115532 -1.87271e-21)
(0.800678 -0.0693708 1.59672e-21)
(0.819873 -0.227903 -2.40527e-22)
(0.841626 -0.340414 1.59606e-22)
(0.861145 -0.403814 -9.41863e-22)
(0.874918 -0.429403 9.35844e-22)
(0.878562 -0.43703 -4.29792e-22)
(0.868472 -0.442193 1.29183e-21)
(0.845269 -0.4443 -4.58603e-22)
(0.813845 -0.427902 1.69815e-22)
(0.781126 -0.376126 7.31843e-22)
(0.754572 -0.283135 -8.17661e-22)
(0.740208 -0.157767 -6.33776e-23)
(0.741489 -0.0192387 1.52225e-21)
(0.757706 0.11173 1.70511e-21)
(0.783235 0.220368 -2.08962e-22)
(0.808709 0.303283 4.75422e-24)
(0.825497 0.363571 7.52662e-22)
(0.828829 0.405011 2.06603e-22)
(0.819571 0.422565 -6.10237e-22)
(0.842991 0.469805 7.53577e-22)
(0.864265 0.484613 1.06607e-21)
(0.876589 0.490906 -1.49267e-22)
(0.87789 0.503669 -7.508e-22)
(0.867071 0.526148 1.18408e-21)
(0.846977 0.541192 -2.39581e-21)
(0.824004 0.519308 2.57135e-21)
(0.80477 0.438228 -1.00251e-21)
(0.793845 0.297161 -1.49064e-21)
(0.793712 0.117056 -8.90544e-22)
(0.804639 -0.0688109 -2.36179e-21)
(0.823579 -0.228187 6.50101e-22)
(0.844867 -0.341196 -4.34829e-21)
(0.863719 -0.404698 -1.49016e-21)
(0.876813 -0.429924 1.49714e-21)
(0.879942 -0.436729 -2.486e-21)
(0.869466 -0.440909 -2.97938e-22)
(0.845904 -0.44233 9.74069e-22)
(0.814137 -0.425826 -8.15825e-23)
(0.781087 -0.374548 -1.28203e-21)
(0.754254 -0.2825 4.9128e-22)
(0.739748 -0.15827 8.25045e-22)
(0.741043 -0.0207956 -1.47027e-22)
(0.757372 0.109487 -2.18682e-21)
(0.78306 0.21802 1.59319e-21)
(0.808733 0.301423 4.16514e-22)
(0.825792 0.362591 -7.63546e-22)
(0.829463 0.405011 8.58837e-23)
(0.820586 0.423381 2.28107e-23)
(0.840473 0.466917 1.65424e-21)
(0.86276 0.482829 -2.1349e-21)
(0.876053 0.490097 1.62997e-21)
(0.878245 0.503824 -2.77604e-22)
(0.868283 0.52725 6.22961e-22)
(0.849047 0.54311 -1.14076e-22)
(0.826882 0.521778 9.25259e-22)
(0.80831 0.440884 1.67597e-21)
(0.79781 0.299558 8.08905e-22)
(0.797829 0.118748 3.34632e-21)
(0.808677 -0.0680768 -5.10783e-22)
(0.827358 -0.228318 -1.21291e-21)
(0.848179 -0.341856 4.93188e-21)
(0.866363 -0.405493 -1.29515e-21)
(0.878771 -0.430392 -2.26078e-22)
(0.881383 -0.436399 2.52754e-21)
(0.870533 -0.439606 8.92372e-22)
(0.846625 -0.440347 -1.28682e-21)
(0.814525 -0.423751 -1.58928e-22)
(0.781155 -0.372993 1.12034e-21)
(0.754045 -0.281913 -3.99156e-22)
(0.739385 -0.158841 1.4676e-21)
(0.740679 -0.022427 -4.82996e-22)
(0.757103 0.107174 9.13267e-22)
(0.782938 0.215611 -1.43767e-22)
(0.808807 0.299507 6.06583e-22)
(0.826141 0.361562 4.82902e-22)
(0.830157 0.404968 -4.88128e-22)
(0.821672 0.424168 1.67727e-23)
(0.837979 0.463897 5.57691e-22)
(0.861273 0.48093 1.83907e-21)
(0.875537 0.48918 -1.71567e-22)
(0.878632 0.503865 -5.82151e-22)
(0.869543 0.528239 1.85353e-21)
(0.851179 0.544943 6.89746e-22)
(0.829834 0.524222 -5.57696e-22)
(0.811931 0.443593 -2.10972e-21)
(0.801858 0.302081 1.54445e-21)
(0.802027 0.120609 -1.98272e-22)
(0.812791 -0.0671669 -3.5574e-22)
(0.831208 -0.228295 5.43805e-21)
(0.851562 -0.342392 -6.66075e-22)
(0.869077 -0.406198 -6.67778e-22)
(0.880791 -0.430807 1.64251e-21)
(0.882887 -0.436042 7.4116e-22)
(0.871672 -0.438287 -1.37553e-21)
(0.847432 -0.438354 1.02074e-21)
(0.815009 -0.42168 -4.4371e-22)
(0.781329 -0.371461 3.20417e-23)
(0.753942 -0.281371 1.63488e-21)
(0.739119 -0.159476 -1.63762e-21)
(0.740395 -0.02413 -5.69315e-22)
(0.756898 0.104793 -2.12199e-22)
(0.782868 0.21314 -7.49962e-22)
(0.808929 0.297535 1.34119e-22)
(0.826541 0.360481 -1.76808e-22)
(0.830912 0.40488 1.25311e-21)
(0.82283 0.424923 -6.42226e-23)
(0.835505 0.460741 -8.62441e-22)
(0.8598 0.478913 2.2273e-21)
(0.875039 0.488151 -1.08739e-21)
(0.879047 0.503789 5.41597e-22)
(0.870847 0.529113 -1.46412e-21)
(0.85337 0.546687 -1.16954e-21)
(0.832856 0.526638 3.66486e-22)
(0.81563 0.446353 -1.02619e-21)
(0.805986 0.304729 2.26937e-21)
(0.806302 0.122642 -2.09497e-21)
(0.816977 -0.0660796 -9.69779e-21)
(0.835128 -0.228116 3.23998e-21)
(0.855016 -0.342804 1.79657e-21)
(0.871859 -0.406815 2.67371e-21)
(0.882875 -0.431169 -3.87098e-21)
(0.884452 -0.43566 -1.35105e-21)
(0.872883 -0.436954 2.46392e-22)
(0.848322 -0.436353 -3.13924e-22)
(0.815587 -0.419611 -5.22276e-22)
(0.781607 -0.369951 5.5352e-22)
(0.753944 -0.280873 -9.86153e-22)
(0.738947 -0.160172 1.34785e-21)
(0.740189 -0.0259019 5.12676e-22)
(0.756755 0.102345 -3.51505e-22)
(0.782849 0.210609 -1.02595e-22)
(0.809099 0.295508 8.82366e-23)
(0.826991 0.359347 -8.00166e-22)
(0.831725 0.404745 -1.58035e-21)
(0.824057 0.425646 1.57174e-21)
(0.83305 0.457451 2.51215e-22)
(0.85834 0.476778 -6.08271e-22)
(0.874556 0.487009 -2.3048e-21)
(0.879488 0.503595 1.17298e-21)
(0.872191 0.529867 -1.32846e-21)
(0.855615 0.548338 3.46301e-21)
(0.835943 0.529023 -3.01149e-21)
(0.8194 0.449162 2.70612e-21)
(0.81019 0.307501 -1.04912e-21)
(0.810651 0.124845 6.86553e-21)
(0.821233 -0.0648133 7.00921e-22)
(0.839116 -0.227779 -6.66408e-23)
(0.858538 -0.34309 -5.73447e-22)
(0.87471 -0.407341 -6.24026e-21)
(0.885022 -0.431478 1.49337e-21)
(0.886077 -0.435254 -1.43744e-22)
(0.874164 -0.435608 2.4114e-22)
(0.849297 -0.434344 -1.19962e-21)
(0.816259 -0.417547 1.63728e-21)
(0.781988 -0.368463 -3.19993e-22)
(0.754052 -0.280417 -2.42785e-24)
(0.738869 -0.160928 4.78746e-22)
(0.740061 -0.0277413 -6.81591e-22)
(0.756671 0.0998313 -1.88948e-22)
(0.782878 0.208018 8.95667e-22)
(0.809313 0.293424 -2.8918e-22)
(0.82749 0.358159 1.23416e-21)
(0.832596 0.404563 4.70771e-22)
(0.825352 0.426336 2.67246e-22)
(0.830613 0.454025 -2.71739e-21)
(0.856889 0.474522 1.43101e-21)
(0.874084 0.485752 3.86851e-21)
(0.879949 0.50328 -6.98725e-22)
(0.873571 0.530499 -2.81466e-21)
(0.857909 0.549895 4.69579e-22)
(0.83909 0.531372 3.34064e-21)
(0.823239 0.452018 -4.96975e-22)
(0.814465 0.310397 -7.73663e-22)
(0.81507 0.12722 -5.00599e-22)
(0.825557 -0.0633669 3.12013e-21)
(0.84317 -0.227284 -2.76067e-22)
(0.862128 -0.343251 1.18518e-21)
(0.877629 -0.407776 -2.29113e-21)
(0.887231 -0.431734 2.17536e-21)
(0.887763 -0.434826 6.37983e-22)
(0.875514 -0.434253 -1.87114e-21)
(0.850354 -0.432329 -1.09996e-22)
(0.817023 -0.415487 1.22613e-22)
(0.782471 -0.366997 -2.39613e-21)
(0.754263 -0.280001 2.21386e-21)
(0.738884 -0.161739 -1.94524e-22)
(0.740007 -0.0296454 -1.51257e-21)
(0.756646 0.0972549 2.03046e-21)
(0.782954 0.205369 -9.26243e-22)
(0.809571 0.291284 3.55621e-22)
(0.828035 0.356916 -2.12032e-21)
(0.833521 0.40433 3.39705e-22)
(0.826714 0.42699 -2.22905e-21)
(0.828191 0.450462 -1.28462e-21)
(0.855445 0.472145 -1.74193e-21)
(0.873621 0.484378 -2.89902e-21)
(0.880429 0.502841 1.77563e-21)
(0.874982 0.531007 -3.43995e-22)
(0.860247 0.551352 -2.52418e-21)
(0.842291 0.533684 -1.07487e-21)
(0.82714 0.454917 -8.6264e-21)
(0.818806 0.313414 2.36778e-22)
(0.819554 0.129766 -2.9851e-23)
(0.829945 -0.0617389 -6.03318e-21)
(0.847288 -0.226629 2.21391e-21)
(0.865785 -0.343285 7.09186e-21)
(0.880616 -0.40812 -4.05557e-21)
(0.889504 -0.431938 -1.44218e-21)
(0.889509 -0.434377 1.87121e-21)
(0.876933 -0.43289 -9.13708e-22)
(0.851493 -0.430311 -1.76491e-21)
(0.817877 -0.413431 1.31337e-21)
(0.783053 -0.36555 -6.06281e-22)
(0.754576 -0.279623 -3.68022e-23)
(0.73899 -0.162605 -6.57607e-22)
(0.740026 -0.0316105 8.02621e-22)
(0.756677 0.0946172 -6.79521e-22)
(0.783074 0.20266 1.89646e-21)
(0.809871 0.289087 2.84401e-22)
(0.828626 0.355617 4.08256e-22)
(0.834501 0.404047 -2.30538e-22)
(0.828141 0.427607 -2.93787e-22)
(0.825781 0.446762 1.26853e-21)
(0.854005 0.469646 -1.37045e-22)
(0.873163 0.482887 -1.73734e-22)
(0.880923 0.502277 1.87451e-21)
(0.87642 0.531387 -1.14743e-21)
(0.862625 0.552708 4.50096e-21)
(0.845542 0.535955 3.21514e-21)
(0.831099 0.457857 2.17321e-21)
(0.823208 0.316552 -4.63653e-21)
(0.824101 0.132485 3.2431e-21)
(0.834393 -0.0599284 -5.75631e-23)
(0.851467 -0.225813 -8.02358e-22)
(0.869506 -0.343191 -2.07568e-21)
(0.883669 -0.408373 3.05456e-21)
(0.891839 -0.432089 -8.34676e-22)
(0.891313 -0.433908 -5.46231e-22)
(0.878419 -0.431522 1.18521e-21)
(0.852712 -0.42829 1.95357e-21)
(0.818819 -0.411382 2.27332e-21)
(0.783732 -0.364124 -1.63237e-21)
(0.754989 -0.279281 2.23404e-21)
(0.739186 -0.163521 -1.48298e-21)
(0.740118 -0.0336338 2.20866e-22)
(0.756763 0.0919202 5.06502e-22)
(0.783239 0.199895 -1.24936e-21)
(0.81021 0.286833 -1.75209e-21)
(0.82926 0.354261 2.60239e-23)
(0.835533 0.403712 -8.90314e-22)
(0.829632 0.428186 -2.93663e-22)
(0.823383 0.442925 5.26315e-21)
(0.852567 0.467023 -2.56158e-21)
(0.872707 0.481275 2.54453e-21)
(0.881427 0.501585 -3.5882e-21)
(0.87788 0.531636 3.5316e-21)
(0.865037 0.553958 -1.67052e-21)
(0.848838 0.53818 7.84504e-22)
(0.83511 0.460835 -2.94351e-21)
(0.827667 0.319808 4.05506e-21)
(0.828704 0.135375 6.44895e-22)
(0.8389 -0.0579345 -1.72464e-21)
(0.855705 -0.224836 -8.76818e-22)
(0.87329 -0.34297 -1.64378e-21)
(0.886789 -0.408534 -3.29086e-22)
(0.894236 -0.432188 4.15939e-21)
(0.893176 -0.43342 -1.28229e-21)
(0.879971 -0.43015 1.87788e-21)
(0.854011 -0.426269 -1.00887e-21)
(0.81985 -0.409338 -8.93298e-22)
(0.784507 -0.362716 3.20834e-22)
(0.755502 -0.278974 -5.07994e-22)
(0.73947 -0.164485 -1.21093e-21)
(0.74028 -0.0357135 -2.81744e-21)
(0.756902 0.0891658 2.37763e-22)
(0.783444 0.197073 -1.08764e-21)
(0.810588 0.284522 -2.12682e-23)
(0.829936 0.352848 -3.79266e-22)
(0.836614 0.403323 -5.48907e-22)
(0.831183 0.428725 1.40165e-22)
(0.820994 0.43895 -4.77205e-22)
(0.851127 0.464275 9.08031e-22)
(0.872249 0.479543 -3.81992e-22)
(0.881937 0.500764 4.65503e-22)
(0.879358 0.531753 -1.22629e-21)
(0.867479 0.555099 -3.14577e-21)
(0.852172 0.540356 -2.97856e-21)
(0.839169 0.463847 4.56541e-21)
(0.832178 0.32318 -1.43076e-21)
(0.833361 0.138437 1.73714e-21)
(0.843461 -0.0557562 -3.93648e-21)
(0.860001 -0.223695 3.80709e-21)
(0.877136 -0.342619 3.70639e-21)
(0.889974 -0.408603 -1.61748e-21)
(0.896696 -0.432234 -3.38389e-21)
(0.895096 -0.432915 1.43388e-21)
(0.881587 -0.428777 1.08786e-21)
(0.855389 -0.424249 2.67113e-22)
(0.820966 -0.4073 4.95545e-22)
(0.785374 -0.361328 1.08368e-21)
(0.756111 -0.278699 7.58729e-23)
(0.739843 -0.165494 1.411e-21)
(0.740511 -0.0378467 5.75457e-22)
(0.757092 0.0863559 1.59685e-21)
(0.78369 0.194195 2.02306e-21)
(0.811002 0.282153 1.49371e-21)
(0.830652 0.351375 4.96956e-22)
(0.837745 0.402879 -1.50068e-22)
(0.832795 0.429222 2.18797e-21)
(0.818613 0.434837 -1.57228e-21)
(0.849684 0.461403 -3.32826e-22)
(0.871788 0.477688 -1.39942e-21)
(0.882449 0.499811 1.00723e-21)
(0.88085 0.531735 8.38731e-22)
(0.869944 0.556129 9.77801e-22)
(0.85554 0.54248 3.77896e-21)
(0.843269 0.466889 -4.78312e-21)
(0.836734 0.326667 3.38928e-21)
(0.838065 0.141669 -2.31113e-21)
(0.848073 -0.0533931 1.49337e-21)
(0.864351 -0.22239 -6.46935e-21)
(0.881041 -0.342139 -3.79828e-21)
(0.893223 -0.408578 -4.27471e-22)
(0.899217 -0.432227 4.72974e-21)
(0.897073 -0.432393 -1.00476e-21)
(0.883265 -0.427405 3.27908e-22)
(0.856843 -0.422231 -7.6579e-22)
(0.822167 -0.405269 8.92791e-22)
(0.786331 -0.359957 4.49446e-22)
(0.756816 -0.278455 7.69924e-22)
(0.740301 -0.166546 7.01031e-22)
(0.74081 -0.0400302 4.38671e-22)
(0.757331 0.0834926 -7.87249e-22)
(0.783974 0.191262 -5.52803e-22)
(0.81145 0.279727 4.60231e-22)
(0.831405 0.349843 2.62424e-22)
(0.838921 0.402379 -9.45782e-23)
(0.834464 0.429677 -3.08882e-22)
(0.816236 0.430586 -7.54623e-23)
(0.848235 0.458405 5.24706e-22)
(0.871318 0.47571 1.17519e-21)
(0.88296 0.498726 -3.23056e-21)
(0.88235 0.531579 1.19151e-21)
(0.872429 0.557043 -1.61476e-21)
(0.858937 0.544547 5.27252e-22)
(0.847405 0.469959 4.49024e-21)
(0.841332 0.330264 1.95399e-21)
(0.842813 0.14507 7.70446e-22)
(0.852732 -0.0508445 1.91217e-21)
(0.868753 -0.22092 -1.88722e-21)
(0.885005 -0.341528 3.42627e-21)
(0.896535 -0.40846 -1.65739e-21)
(0.901799 -0.432167 7.41538e-22)
(0.899106 -0.431855 -1.63665e-21)
(0.885004 -0.426035 -1.0495e-21)
(0.858372 -0.420217 7.72171e-22)
(0.823451 -0.403245 -7.97884e-22)
(0.787376 -0.358604 -1.07814e-21)
(0.757614 -0.27824 1.34777e-22)
(0.740845 -0.167638 -1.97333e-21)
(0.741174 -0.0422613 -6.36688e-22)
(0.757619 0.0805778 -4.18543e-22)
(0.784294 0.188275 5.35718e-22)
(0.811931 0.277242 -1.63908e-21)
(0.832194 0.34825 -2.10783e-22)
(0.840142 0.401821 -2.19725e-21)
(0.836189 0.430087 1.21397e-21)
(0.813864 0.426197 -8.82095e-22)
(0.846777 0.45528 -1.40282e-21)
(0.870837 0.473608 3.78841e-21)
(0.883466 0.497507 -1.96108e-21)
(0.883854 0.531283 4.85176e-21)
(0.874927 0.557839 -4.50588e-22)
(0.862356 0.546553 -9.84269e-22)
(0.851573 0.473051 -5.20012e-21)
(0.845965 0.33397 5.24569e-21)
(0.847599 0.14864 2.06905e-21)
(0.857435 -0.0481103 -4.99526e-21)
(0.873204 -0.219283 8.87173e-21)
(0.889024 -0.340787 -1.86171e-21)
(0.899908 -0.408248 -3.38384e-21)
(0.904442 -0.432055 -1.36605e-21)
(0.901194 -0.431302 2.79828e-21)
(0.886803 -0.424669 2.70274e-21)
(0.859974 -0.418208 3.84796e-23)
(0.824817 -0.401228 4.69334e-22)
(0.788506 -0.357267 2.8949e-21)
(0.758503 -0.278052 -1.31259e-21)
(0.741472 -0.168766 -9.38209e-22)
(0.741604 -0.0445371 -5.26093e-22)
(0.757953 0.0776136 2.96848e-21)
(0.784648 0.185235 -7.53837e-22)
(0.812442 0.2747 9.65096e-22)
(0.833016 0.346595 3.17763e-21)
(0.841406 0.401203 -7.03223e-22)
(0.837967 0.430451 3.11766e-22)
(0.811493 0.42167 -1.83739e-21)
(0.845307 0.452029 -2.29638e-21)
(0.870342 0.471381 5.31508e-22)
(0.883962 0.496153 5.99146e-21)
(0.885357 0.530845 -6.25516e-21)
(0.877433 0.558513 1.98358e-21)
(0.865793 0.548494 1.72582e-21)
(0.855765 0.476161 -2.69481e-21)
(0.850627 0.337781 2.05396e-21)
(0.85242 0.152377 -6.08268e-21)
(0.862179 -0.0451902 -7.59759e-22)
(0.877702 -0.21748 -8.86404e-22)
(0.893096 -0.339913 3.80489e-21)
(0.903342 -0.407942 -1.87858e-21)
(0.907144 -0.431888 -3.50691e-22)
(0.903337 -0.430734 4.24304e-22)
(0.888659 -0.42331 -3.46868e-22)
(0.861648 -0.416207 6.17598e-23)
(0.826263 -0.399218 -2.22187e-21)
(0.789719 -0.355945 -1.06888e-21)
(0.75948 -0.27789 -1.37349e-21)
(0.742182 -0.169929 8.11282e-22)
(0.742098 -0.046855 1.37048e-21)
(0.758331 0.0746021 -8.75427e-22)
(0.785035 0.182143 -6.12536e-22)
(0.812982 0.2721 2.67865e-22)
(0.83387 0.344878 -6.86157e-23)
(0.842709 0.400526 -3.48414e-22)
(0.839797 0.430768 6.07492e-22)
(0.809122 0.417006 -5.06974e-22)
(0.843824 0.448651 5.90928e-22)
(0.869829 0.469029 1.23832e-21)
(0.884445 0.494663 -4.6038e-21)
(0.886855 0.530264 5.44374e-22)
(0.879943 0.559062 -2.66551e-21)
(0.869242 0.550365 1.83179e-21)
(0.859978 0.479285 1.83222e-21)
(0.855314 0.341694 -2.44629e-21)
(0.857268 0.15628 -8.18358e-21)
(0.866958 -0.0420843 5.00637e-21)
(0.882244 -0.215509 1.44442e-21)
(0.897221 -0.338908 -3.91279e-21)
(0.906835 -0.407541 -5.20074e-22)
(0.909906 -0.431668 1.5519e-21)
(0.905533 -0.430152 -1.84838e-21)
(0.890572 -0.421958 -1.33933e-21)
(0.863392 -0.414215 -6.91696e-22)
(0.827788 -0.397216 -8.66209e-22)
(0.791012 -0.354638 1.95881e-21)
(0.760543 -0.277751 1.17814e-21)
(0.742974 -0.171124 -2.91039e-21)
(0.742654 -0.049212 3.13418e-22)
(0.758754 0.0715454 2.99585e-22)
(0.785453 0.178999 1.40561e-21)
(0.813548 0.269442 -2.37771e-22)
(0.834753 0.343099 1.03719e-21)
(0.84405 0.399786 2.8878e-22)
(0.841675 0.431036 -1.52433e-22)
(0.806751 0.412205 1.74717e-21)
(0.842324 0.445146 -4.11541e-21)
(0.869296 0.466551 2.18327e-21)
(0.884911 0.493036 3.28579e-21)
(0.888343 0.529538 4.75583e-22)
(0.88245 0.559483 -5.01887e-22)
(0.872697 0.552162 -1.05145e-20)
(0.864204 0.482418 1.17083e-20)
(0.86002 0.345706 5.80767e-21)
(0.862141 0.160345 1.17957e-22)
(0.87177 -0.0387928 1.01218e-21)
(0.886828 -0.21337 2.62563e-22)
(0.901394 -0.337769 1.21875e-21)
(0.910386 -0.407045 -1.23872e-21)
(0.912726 -0.431393 -5.67418e-22)
(0.907783 -0.429557 2.06218e-21)
(0.892538 -0.420615 3.23798e-21)
(0.865203 -0.412233 8.10288e-23)
(0.829389 -0.395222 1.13548e-21)
(0.792383 -0.353346 4.87978e-22)
(0.761688 -0.277635 -7.72182e-22)
(0.743844 -0.172348 -2.00549e-21)
(0.743272 -0.0516052 -8.45615e-22)
(0.759218 0.0684458 2.16496e-21)
(0.785901 0.175806 -1.01976e-21)
(0.81414 0.266727 -2.62384e-21)
(0.835664 0.341255 -3.36122e-22)
(0.845427 0.398984 1.90031e-22)
(0.8436 0.431253 1.4116e-21)
(0.804376 0.407267 -3.86271e-22)
(0.840805 0.441513 2.26485e-21)
(0.868738 0.463947 -4.21568e-21)
(0.885356 0.491272 1.94452e-21)
(0.889817 0.528666 -1.65366e-21)
(0.88495 0.559773 -6.72818e-21)
(0.876152 0.55388 1.40807e-20)
(0.868439 0.485555 -8.87641e-21)
(0.864739 0.349811 -2.4873e-21)
(0.867032 0.164572 3.72137e-22)
(0.87661 -0.0353161 -1.33435e-21)
(0.891449 -0.211062 8.46396e-21)
(0.905614 -0.336497 -5.27804e-21)
(0.913992 -0.406452 -3.04518e-21)
(0.915603 -0.431063 2.82469e-21)
(0.910084 -0.428948 6.48057e-22)
(0.894558 -0.419283 -2.31231e-21)
(0.86708 -0.410264 1.03211e-21)
(0.831067 -0.393236 -4.73059e-22)
(0.79383 -0.352066 2.30715e-21)
(0.762912 -0.27754 5.18448e-22)
(0.744793 -0.173599 -9.29019e-23)
(0.743952 -0.0540319 1.10942e-21)
(0.759724 0.0653053 -2.44161e-21)
(0.786377 0.172564 1.95085e-22)
(0.814754 0.263954 -3.80886e-22)
(0.8366 0.339347 -2.65545e-22)
(0.846837 0.398118 2.71835e-22)
(0.845569 0.431418 3.75162e-23)
(0.801997 0.402194 4.22049e-21)
(0.839265 0.437754 1.94175e-21)
(0.868154 0.461217 -2.13977e-21)
(0.885776 0.489371 5.67813e-22)
(0.891271 0.527645 1.6834e-21)
(0.887438 0.559928 5.78905e-21)
(0.879603 0.555516 -9.79183e-22)
(0.872677 0.488692 -7.29651e-21)
(0.869466 0.354006 9.13483e-21)
(0.871936 0.168958 -8.01314e-21)
(0.881476 -0.0316547 3.65081e-21)
(0.896107 -0.208584 -4.12154e-21)
(0.90988 -0.335091 -2.49576e-21)
(0.917651 -0.405764 4.49902e-21)
(0.918536 -0.430679 1.42433e-21)
(0.912436 -0.428325 -6.63302e-22)
(0.896628 -0.417964 -1.94857e-21)
(0.86902 -0.408308 1.49179e-21)
(0.832819 -0.391258 -1.15273e-21)
(0.795349 -0.350798 3.46873e-22)
(0.764212 -0.277464 -1.53183e-21)
(0.745819 -0.174874 7.44424e-22)
(0.744692 -0.0564892 8.12024e-23)
(0.76027 0.0621263 -3.26911e-22)
(0.786879 0.169275 2.35429e-21)
(0.815389 0.261123 1.78634e-21)
(0.837559 0.337374 3.49098e-22)