/*--------------------------------*- C++ -*----------------------------------*\
  =========                 |
  \\      /  F ield         | OpenFOAM: The Open Source CFD Toolbox
   \\    /   O peration     | Website:  https://openfoam.org
    \\  /    A nd           | Version:  7
     \\/     M anipulation  |
\*---------------------------------------------------------------------------*/
FoamFile
{
    version     2.0;
    format      ascii;
    class       surfaceScalarField;
    location    "220";
    object      phi;
}
// * * * * * * * * * * * * * * * * * * * * * * * * * * * * * * * * * * * * * //

dimensions      [0 3 -1 0 0 0 0];

internalField   nonuniform List<scalar> 
14029
(
0.000371301
0.00201776
-0.00215437
0.000499243
0.000252379
-0.00038032
0.000620158
-0.00167037
0.00154945
0.000734294
-0.00357229
0.00345815
0.000836318
-0.00521622
0.0051142
0.000919171
-0.00642567
0.00634282
0.000978785
-0.00717049
0.00711087
0.00101526
-0.0075334
0.00749692
0.00103143
-0.00763949
0.00762332
0.00103066
-0.0076003
0.00760106
0.00101344
-0.00751198
0.0075292
0.000977456
-0.00747672
0.00751271
0.000925317
-0.00754242
0.00759456
0.000872793
-0.00755925
0.00761178
0.00084486
-0.00714614
0.00717407
0.000859062
-0.00592136
0.00590716
0.000914587
-0.00382196
0.00376643
0.000997742
-0.00116458
0.00108142
0.00109128
0.00156244
-0.00165598
0.0011795
0.00392919
-0.0040174
0.0012515
0.00569367
-0.00576568
0.00130231
0.00682335
-0.00687415
0.00133166
0.00743967
-0.00746902
0.00134308
0.00771784
-0.00772926
0.0013417
0.00779474
-0.00779336
0.00132983
0.00777995
-0.00776808
0.00130522
0.00781966
-0.00779505
0.00126556
0.00802969
-0.00799003
0.00121496
0.00830263
-0.00825202
0.00823939
-0.00818946
0.000408105
0.00188422
0.000531317
0.000129166
0.000646655
-0.00178571
0.000754937
-0.00368057
0.000851133
-0.00531242
0.000928479
-0.00650301
0.000983225
-0.00722523
0.00101567
-0.00756584
0.00102865
-0.00765248
0.00102549
-0.00759713
0.00100666
-0.00749315
0.000969556
-0.00743961
0.000916069
-0.00748893
0.000861401
-0.00750458
0.000830975
-0.00711571
0.000843668
-0.00593406
0.000899591
-0.00387788
0.000984887
-0.00124987
0.00108163
0.00146569
0.00117349
0.00383733
0.00124906
0.0056181
0.00130299
0.00676942
0.00133491
0.00740775
0.00134839
0.00770436
0.00134865
0.00779447
0.00133809
0.00779052
0.0013146
0.00784315
0.00127605
0.00806823
0.00122645
0.00835223
0.00828883
0.000444945
0.00175405
0.000563233
1.08789e-05
0.000672902
-0.00189538
0.000775287
-0.00378296
0.000865638
-0.00540277
0.000937477
-0.00657485
0.000987383
-0.00727514
0.00101586
-0.00759432
0.00102573
-0.00766235
0.00102025
-0.00759165
0.000999887
-0.00747279
0.000961788
-0.00740151
0.000907113
-0.00743426
0.000850421
-0.00744789
0.000817481
-0.00708277
0.000828502
-0.00594508
0.000884614
-0.00393399
0.000971877
-0.00133714
0.00107172
0.00136585
0.00116715
0.0037419
0.00124627
0.00553898
0.00130335
0.00671234
0.00133786
0.00737324
0.00135345
0.00768877
0.00135542
0.00779251
0.00134621
0.00779972
0.00132392
0.00786544
0.00128656
0.00810559
0.00123802
0.00840076
0.00833776
0.000481688
0.00162755
0.000594893
-0.000102326
0.000698834
-0.00199932
0.00079531
-0.00387943
0.000879813
-0.00548728
0.000946157
-0.0066412
0.00099126
-0.00732024
0.00101583
-0.00761889
0.00102267
-0.00766919
0.00101493
-0.00758392
0.000993128
-0.00745099
0.000954155
-0.00736254
0.000898454
-0.00737856
0.000839868
-0.00738931
0.000804405
-0.00704731
0.000813593
-0.00595426
0.000869678
-0.00399008
0.000958724
-0.00142618
0.00106153
0.00126304
0.00116048
0.00364296
0.00124314
0.00545632
0.00130338
0.0066521
0.00134053
0.00733609
0.00135827
0.00767103
0.00136198
0.0077888
0.00135418
0.00780752
0.00133316
0.00788647
0.00129706
0.00814169
0.00124966
0.00844817
0.00838617
0.000518201
0.00150496
0.000626203
-0.000210328
0.000724393
-0.00209751
0.00081497
-0.00397001
0.000893639
-0.00556594
0.000954513
-0.00670207
0.000994856
-0.00736058
0.00101558
-0.00763962
0.00101947
-0.00767307
0.00100957
-0.00757401
0.000986389
-0.00742781
0.000946659
-0.00732281
0.000890094
-0.00732199
0.000829753
-0.00732897
0.000791773
-0.00700933
0.00079897
-0.00596146
0.000854806
-0.00404591
0.000945443
-0.00151682
0.00105109
0.00115739
0.00115348
0.00354057
0.00123964
0.00537016
0.00130306
0.00658869
0.00134288
0.00729626
0.00136284
0.00765107
0.00136833
0.00778331
0.001362
0.00781384
0.00134231
0.00790616
0.00130756
0.00817644
0.00126134
0.00849439
0.00843403
0.000554353
0.0013865
0.000657073
-0.000313048
0.000749523
-0.00218996
0.000834236
-0.00405472
0.000907099
-0.00563881
0.000962537
-0.00675751
0.00099817
-0.00739622
0.00101513
-0.00765657
0.00101614
-0.00767408
0.00100414
-0.00756202
0.000979674
-0.00740334
0.000939299
-0.00728244
0.000882035
-0.00726473
0.000820086
-0.00726702
0.000779607
-0.00696885
0.000784662
-0.00596652
0.000840019
-0.00410127
0.000932045
-0.00160884
0.00104039
0.00104904
0.00114615
0.00343481
0.00123579
0.00528052
0.00130239
0.00652209
0.00134493
0.00725372
0.00136713
0.00762887
0.00137446
0.00777597
0.00136966
0.00781865
0.00135137
0.00792445
0.00131803
0.00820979
0.00127306
0.00853936
0.00848132
0.000590022
0.00127236
0.000687416
-0.000410442
0.000774169
-0.00227671
0.000853075
-0.00413363
0.000920177
-0.00570591
0.000970221
-0.00680755
0.0010012
-0.0074272
0.00101446
-0.00766983
0.00101268
-0.0076723
0.000998676
-0.00754801
0.000972985
-0.00737765
0.000932074
-0.00724153
0.000874271
-0.00720692
0.000810873
-0.00720362
0.000767927
-0.0069259
0.000770696
-0.00596929
0.000825342
-0.00415592
0.000918546
-0.00170205
0.00102945
0.000938141
0.00113848
0.00332578
0.00123157
0.00518743
0.00130136
0.0064523
0.00134664
0.00720843
0.00137114
0.00760437
0.00138036
0.00776676
0.00137713
0.00782188
0.00136032
0.00794126
0.00132846
0.00824164
0.0012848
0.00858303
0.00852802
0.00062509
0.00116267
0.000717153
-0.000502506
0.000798283
-0.00235784
0.000871459
-0.0042068
0.000932855
-0.0057673
0.000977558
-0.00685226
0.00100395
-0.00745359
0.00101358
-0.00767946
0.0010091
-0.00766783
0.000993164
-0.00753208
0.000966324
-0.00735081
0.000924978
-0.00720018
0.000866799
-0.00714874
0.000802116
-0.00713894
0.00075675
-0.00688054
0.000757099
-0.00596964
0.000810798
-0.00420961
0.000904959
-0.00179621
0.00101826
0.000824843
0.00113048
0.00321356
0.00122698
0.00509093
0.00129996
0.00637932
0.00134803
0.00716037
0.00137487
0.00757753
0.00138602
0.00775561
0.00138442
0.00782348
0.00136914
0.00795654
0.00133884
0.00827194
0.00129654
0.00862533
0.00857409
0.000659445
0.00105755
0.00074621
-0.000589271
0.00082182
-0.00243345
0.000889362
-0.00427435
0.00094512
-0.00582306
0.000984542
-0.00689168
0.00100641
-0.00747546
0.0010125
-0.00768554
0.0010054
-0.00766073
0.00098761
-0.00751429
0.000959691
-0.00732289
0.000918007
-0.0071585
0.000859611
-0.00709035
0.000793815
-0.00707314
0.000746092
-0.00683281
0.000743896
-0.00596744
0.000796409
-0.00426213
0.000891299
-0.0018911
0.00100683
0.000709315
0.00112214
0.00309824
0.001222
0.00499107
0.00129818
0.00630314
0.00134906
0.00710949
0.00137829
0.0075483
0.00139141
0.00774248
0.0013915
0.00782339
0.00137782
0.00797022
0.00134915
0.0083006
0.00130827
0.00866621
0.00861951
0.000692986
0.000957079
0.000774519
-0.000670804
0.000844737
-0.00250367
0.000906757
-0.00433637
0.000956955
-0.00587326
0.000991165
-0.00692589
0.00100859
-0.00749289
0.0010112
-0.00768815
0.00100158
-0.0076511
0.000982018
-0.00749473
0.000953085
-0.00729396
0.000911154
-0.00711657
0.000852695
-0.00703189
0.000785964
-0.00700641
0.000735964
-0.00678281
0.000731112
-0.00596259
0.0007822
-0.00431322
0.000877583
-0.00198648
0.00099517
0.000591728
0.00111347
0.00297995
0.00121665
0.00488789
0.00129602
0.00622377
0.00134974
0.00705576
0.00138139
0.00751665
0.00139654
0.00772733
0.00139836
0.00782158
0.00138634
0.00798223
0.00135938
0.00832757
0.00131998
0.00870561
0.00866425
0.000725619
0.000861291
0.00080202
-0.000747204
0.000866999
-0.00256865
0.000923623
-0.00439299
0.000968348
-0.00591798
0.000997419
-0.00695496
0.00101048
-0.00750595
0.00100971
-0.00768738
0.000997635
-0.00763903
0.000976385
-0.00747348
0.000946505
-0.00726408
0.000904412
-0.00707447
0.000846039
-0.00697352
0.000778557
-0.00693893
0.000726374
-0.00673063
0.00071877
-0.00595498
0.000768195
-0.00436264
0.000863825
-0.00208211
0.000983288
0.000472265
0.00110446
0.00285878
0.0012109
0.00478145
0.00129346
0.00614121
0.00135005
0.00699917
0.00138417
0.00748252
0.00140138
0.00771012
0.00140498
0.00781798
0.0013947
0.00799251
0.0013695
0.00835277
0.00133164
0.00874347
0.00870827
0.00075726
0.000770196
0.000828658
-0.000818602
0.000888574
-0.00262856
0.000939939
-0.00444436
0.000979285
-0.00595733
0.0010033
-0.00697898
0.00101207
-0.00751472
0.001008
-0.00768331
0.000993573
-0.0076246
0.000970714
-0.00745062
0.000939948
-0.00723331
0.000897771
-0.0070323
0.000839629
-0.00691537
0.000771583
-0.00687088
0.000717328
-0.00667637
0.00070689
-0.00594455
0.000754417
-0.00441017
0.000850043
-0.00217774
0.000971191
0.000351117
0.00109511
0.00273485
0.00120476
0.0046718
0.0012905
0.00605547
0.00134998
0.00693969
0.00138661
0.0074459
0.00140593
0.00769081
0.00141136
0.00781255
0.00140287
0.00800101
0.00137951
0.00837613
0.00134324
0.00877973
0.00875153
0.000787834
0.00068377
0.000854389
-0.000885157
0.000909432
-0.0026836
0.000955686
-0.00449061
0.000989753
-0.0059914
0.0010088
-0.00699802
0.00101338
-0.0075193
0.00100609
-0.00767603
0.000989389
-0.00760789
0.000965002
-0.00742623
0.000933411
-0.00720172
0.000891221
-0.00699011
0.000833449
-0.0068576
0.000765029
-0.00680246
0.000708827
-0.00662017
0.000695492
-0.00593121
0.00074089
-0.00445557
0.000836253
-0.0022731
0.000958887
0.000228484
0.00108543
0.0026083
0.00119822
0.00455901
0.00128713
0.00596657
0.00134953
0.00687729
0.0013887
0.00740673
0.00141017
0.00766934
0.00141748
0.00780523
0.00141083
0.00800766
0.00138937
0.00839759
0.00135476
0.00881433
0.00879401
0.000817277
0.000601959
0.000879173
-0.000947052
0.00092955
-0.00273398
0.000970847
-0.00453191
0.000999742
-0.00602029
0.00101391
-0.00701218
0.00101438
-0.00751978
0.00100397
-0.00766562
0.000985083
-0.007589
0.000959246
-0.0074004
0.00092689
-0.00716936
0.000884752
-0.00694797
0.000827479
-0.00680033
0.000758876
-0.00673386
0.000700869
-0.00656216
0.000684593
-0.00591494
0.000727639
-0.00449861
0.000822475
-0.00236794
0.000946386
0.000104573
0.00107542
0.00247927
0.00119128
0.00444315
0.00128334
0.00587451
0.00134867
0.00681196
0.00139042
0.00736498
0.00141408
0.00764568
0.00142332
0.00779599
0.00141857
0.00801241
0.00139907
0.00841709
0.00136618
0.00884722
0.00883564
0.000845535
0.000524676
0.000902979
-0.0010045
0.000948909
-0.00277991
0.000985408
-0.00456841
0.00100924
-0.00604413
0.00101862
-0.00702156
0.00101509
-0.00751625
0.00100164
-0.00765218
0.000980652
-0.00756801
0.000953444
-0.00737319
0.00092038
-0.0071363
0.000878351
-0.00690594
0.000821701
-0.00674368
0.000753107
-0.00666527
0.000693449
-0.00650251
0.000674208
-0.00589569
0.000714687
-0.00453909
0.000808726
-0.00246197
0.000933699
-2.03998e-05
0.00106508
0.00234789
0.00118393
0.00432429
0.00127912
0.00577933
0.0013474
0.00674368
0.00139176
0.00732062
0.00141765
0.00761979
0.00142887
0.00778477
0.00142608
0.0080152
0.0014086
0.00843456
0.00137748
0.00887834
0.0088764
0.000872563
0.000451813
0.000925783
-0.00105772
0.000967494
-0.00282162
0.000999355
-0.00460027
0.00101824
-0.00606301
0.00102293
-0.00702626
0.00101549
-0.0075088
0.000999103
-0.00763579
0.000976092
-0.007545
0.000947591
-0.00734469
0.000913875
-0.00710258
0.000872007
-0.00686407
0.000816093
-0.00668777
0.000747699
-0.00659687
0.000686559
-0.00644137
0.000664349
-0.00587349
0.000702057
-0.0045768
0.000795025
-0.00255494
0.000920834
-0.000146209
0.00105441
0.00221431
0.00117618
0.00420253
0.00127447
0.00568104
0.00134571
0.00667243
0.00139272
0.00727361
0.00142087
0.00759163
0.00143411
0.00777154
0.00143332
0.00801598
0.00141793
0.00844996
0.00138864
0.00890763
0.00891624
0.000898327
0.00038323
0.000947569
-0.00110696
0.000985292
-0.00285934
0.00101268
-0.00462765
0.00102672
-0.00607705
0.00102683
-0.00702637
0.00101558
-0.00749755
0.000996348
-0.00761655
0.000971401
-0.00752005
0.000941684
-0.00731497
0.000907369
-0.00706827
0.000865708
-0.00682241
0.000810634
-0.00663269
0.000742626
-0.00652886
0.000680184
-0.00637892
0.000655025
-0.00584833
0.000689771
-0.00461154
0.000781404
-0.00264658
0.000907791
-0.000272596
0.00104341
0.00207869
0.001168
0.00407793
0.00126937
0.00557968
0.00134359
0.0065982
0.00139327
0.00722393
0.00142373
0.00756117
0.00143902
0.00775625
0.0014403
0.00801471
0.00142704
0.00846321
0.00139964
0.00893504
0.00895509
0.000922805
0.000318769
0.000968328
-0.00115248
0.0010023
-0.00289331
0.00102536
-0.00465072
0.00103469
-0.00608638
0.00103032
-0.007022
0.00101537
-0.0074826
0.000993375
-0.00759456
0.000966575
-0.00749325
0.000935716
-0.00728411
0.000900857
-0.00703341
0.000859441
-0.00678099
0.0008053
-0.00657855
0.000737863
-0.00646143
0.00067431
-0.00631537
0.000646243
-0.00582026
0.000677852
-0.00464315
0.00076786
-0.00273658
0.000894605
-0.00039934
0.00103209
0.0019412
0.00115942
0.00395061
0.00126382
0.00547527
0.00134103
0.006521
0.00139341
0.00717156
0.00142621
0.00752837
0.0014436
0.00773886
0.00144698
0.00801133
0.00143592
0.00847428
0.00141045
0.0089605
0.00899293
0.000945984
0.000258239
0.000988055
-0.00119455
0.00101851
-0.00292376
0.00103741
-0.00466962
0.00104213
-0.0060911
0.00103339
-0.00701327
0.00101484
-0.00746404
0.000990183
-0.00756991
0.000961609
-0.00746468
0.000929682
-0.00725218
0.000894329
-0.00699806
0.000853192
-0.00673986
0.000800069
-0.00652543
0.00073338
-0.00639474
0.000668917
-0.00625091
0.000638005
-0.00578935
0.000666319
-0.00467147
0.000754424
-0.00282469
0.000881277
-0.000526193
0.00102046
0.00180202
0.00115041
0.00382065
0.00125782
0.00536786
0.00133801
0.00644081
0.00139312
0.00711645
0.00142829
0.0074932
0.00144782
0.00771933
0.00145335
0.0080058
0.00144453
0.00848309
0.00142106
0.00898397
0.00902968
0.000967852
0.000201446
0.00100676
-0.00123346
0.00103391
-0.00295092
0.0010488
-0.00468451
0.00104903
-0.00609132
0.00103604
-0.00700028
0.00101399
-0.00744199
0.000986768
-0.00754269
0.000956498
-0.00743441
0.000923574
-0.00721926
0.00088778
-0.00696226
0.000846949
-0.00669903
0.000794915
-0.00647339
0.000729147
-0.00632897
0.000663981
-0.00618574
0.000630312
-0.00575568
0.000655191
-0.00469635
0.000741122
-0.00291062
0.000867822
-0.000652893
0.00100852
0.00166132
0.00114099
0.00368818
0.00125136
0.0052575
0.00133454
0.00635763
0.00139239
0.0070586
0.00142996
0.00745563
0.00145167
0.00769763
0.00145939
0.00799808
0.00145286
0.00848962
0.00143145
0.00900538
0.00906529
0.000988427
0.00014816
0.00102444
-0.00126947
0.00104852
-0.00297501
0.00105954
-0.00469553
0.00105539
-0.00608717
0.00103825
-0.00698314
0.00101282
-0.00741656
0.000983127
-0.00751299
0.000951238
-0.00740252
0.000917386
-0.00718541
0.000881201
-0.00692608
0.000840699
-0.00665852
0.000789817
-0.00642251
0.000725132
-0.00626429
0.000659478
-0.00612009
0.000623158
-0.00571936
0.000644487
-0.00471768
0.000727974
-0.00299411
0.000854256
-0.000779175
0.000996268
0.00151931
0.00113115
0.00355329
0.00124443
0.00514422
0.00133059
0.00627147
0.00139121
0.00699798
0.00143122
0.00741562
0.00145513
0.00767372
0.00146508
0.00798813
0.0014609
0.00849379
0.00144159
0.00902469
0.00909971
0.00100773
0.00104112
-0.00130286
0.00106234
-0.00299623
0.00106962
-0.00470281
0.00106119
-0.00607874
0.00104002
-0.00696197
0.00101133
-0.00738786
0.000979255
-0.00748092
0.000945824
-0.00736909
0.00091111
-0.00715069
0.000874582
-0.00688955
0.000834429
-0.00661837
0.000784748
-0.00637283
0.000721303
-0.00620084
0.000655379
-0.00605417
0.000616536
-0.00568052
0.000634223
-0.00473536
0.000715003
-0.00307489
0.000840593
-0.000904765
0.000983723
0.00137618
0.0011209
0.00341612
0.00123703
0.00502809
0.00132616
0.00618234
0.00138956
0.00693458
0.00143203
0.00737315
0.00145818
0.00764757
0.0014704
0.00797591
0.00146861
0.00849559
0.00145147
0.00904183
0.00913286
0.00105682
-0.0013339
0.00107537
-0.00301478
0.00107903
-0.00470647
0.00106644
-0.00606615
0.00104136
-0.00693688
0.0010095
-0.00735601
0.00097515
-0.00744657
0.00094025
-0.00733419
0.000904739
-0.00711518
0.000867917
-0.00685273
0.000828127
-0.00657858
0.000779686
-0.00632439
0.000717625
-0.00613878
0.000651651
-0.00598819
0.000610436
-0.0056393
0.000624412
-0.00474934
0.000702232
-0.00315271
0.000826852
-0.00102938
0.00097089
0.00123214
0.00111022
0.00327679
0.00122915
0.00490916
0.00132124
0.00609024
0.00138745
0.00686838
0.0014324
0.00732819
0.00146082
0.00761915
0.00147534
0.00796139
0.00147598
0.00849495
0.00146106
0.00905675
0.0091647
0.00107156
-0.00136285
0.00108762
-0.00303085
0.00108777
-0.00470663
0.00107113
-0.00604951
0.00104225
-0.006908
0.00100734
-0.0073211
0.000970807
-0.00741003
0.000934511
-0.00729789
0.000898264
-0.00707894
0.000861194
-0.00681566
0.000821781
-0.00653917
0.000774608
-0.00627722
0.000714063
-0.00607823
0.000648263
-0.00592239
0.000604842
-0.00559588
0.000615065
-0.00475956
0.000689684
-0.00322733
0.00081305
-0.00115275
0.000957779
0.00108741
0.00109913
0.00313543
0.00122079
0.0047875
0.00131583
0.0059952
0.00138485
0.00679936
0.00143231
0.00728072
0.00146303
0.00758844
0.00147988
0.00794454
0.00148299
0.00849185
0.00147033
0.00906941
0.00919515
0.00108536
-0.00138997
0.00109909
-0.00304458
0.00109584
-0.00470337
0.00107525
-0.00602892
0.00104268
-0.00687543
0.00100485
-0.00728327
0.000966223
-0.0073714
0.000928601
-0.00726027
0.000891676
-0.00704201
0.000854406
-0.00677839
0.000815378
-0.00650014
0.000769491
-0.00623133
0.000710584
-0.00601933
0.000645178
-0.00585699
0.000599735
-0.00555044
0.00060619
-0.00476602
0.000677382
-0.00329852
0.000799208
-0.00127458
0.0009444
0.000942221
0.00108764
0.0029922
0.00121195
0.00466319
0.00130992
0.00589724
0.00138175
0.00672753
0.00143175
0.00723072
0.00146478
0.0075554
0.001484
0.00792533
0.00148961
0.00848624
0.00147928
0.00907974
0.00922414
0.00109826
-0.00141553
0.00110981
-0.00305612
0.00110323
-0.0046968
0.00107879
-0.00600447
0.00104266
-0.00683931
0.00100202
-0.00724263
0.000961393
-0.00733078
0.000922514
-0.00722139
0.000884967
-0.00700446
0.000847541
-0.00674096
0.000808906
-0.0064615
0.000764312
-0.00618673
0.000707152
-0.00596217
0.000642358
-0.00579219
0.000595094
-0.00550317
0.000597793
-0.00476871
0.000665348
-0.00336607
0.000785345
-0.00139457
0.000930766
0.0007968
0.00107573
0.00284723
0.00120263
0.00453629
0.0013035
0.00579637
0.00137815
0.00665288
0.0014307
0.00717817
0.00146608
0.00752002
0.00148768
0.00790373
0.00149583
0.00847809
0.00148787
0.0090877
0.00925161
0.0011103
-0.00143975
0.00111977
-0.00306559
0.00110995
-0.00468698
0.00108175
-0.00597627
0.00104219
-0.00679975
0.000998842
-0.00719928
0.000956315
-0.00728825
0.000916245
-0.00718132
0.000878129
-0.00696635
0.000840591
-0.00670342
0.000802356
-0.00642327
0.000759052
-0.00614343
0.000703732
-0.00590685
0.000639766
-0.00572823
0.000590894
-0.0054543
0.000589875
-0.0047677
0.000653604
-0.0034298
0.000771485
-0.00151246
0.000916891
0.000651395
0.00106343
0.0027007
0.00119283
0.00440689
0.00129656
0.00569264
0.00137404
0.0065754
0.00142915
0.00712306
0.0014669
0.00748228
0.0014909
0.00787972
0.00150162
0.00846737
0.00149608
0.00909324
0.00927748
0.0011215
-0.00146284
0.00112898
-0.00307307
0.00111597
-0.00467397
0.00108412
-0.00594442
0.00104125
-0.00675688
0.00099532
-0.00715335
0.000950983
-0.00724392
0.000909789
-0.00714013
0.000871152
-0.00692771
0.000833544
-0.00666582
0.000795714
-0.00638544
0.00075369
-0.00610141
0.00070029
-0.00585345
0.000637361
-0.0056653
0.000587105
-0.00540404
0.000582435
-0.00476303
0.000642172
-0.00348954
0.000757652
-0.00162794
0.000902789
0.000506257
0.00105073
0.00255276
0.00118253
0.00427508
0.0012891
0.00558608
0.0013694
0.00649509
0.0014271
0.00706537
0.00146722
0.00744215
0.00149365
0.00785329
0.00150697
0.00845406
0.0015039
0.0090963
0.00930168
0.0011319
-0.00148498
0.00113746
-0.00307863
0.00112132
-0.00465783
0.00108591
-0.00590901
0.00103985
-0.00671081
0.000991449
-0.00710496
0.000945393
-0.00719786
0.000903139
-0.00709787
0.000864029
-0.0068886
0.000826392
-0.00662818
0.000788972
-0.00634802
0.000748208
-0.00606064
0.000696793
-0.00580203
0.000635104
-0.00560361
0.000583698
-0.00535264
0.000575468
-0.0047548
0.000631069
-0.00354514
0.000743869
-0.00174074
0.000888478
0.000361648
0.00103764
0.00240359
0.00117176
0.00414096
0.00128112
0.00547672
0.00136424
0.00641197
0.00142452
0.00700508
0.00146705
0.00739963
0.00149592
0.00782442
0.00151185
0.00843812
0.00151131
0.00909685
0.00932413
0.00114154
-0.0015063
0.00114521
-0.00308231
0.00112597
-0.0046386
0.0010871
-0.00587014
0.00103797
-0.00666168
0.000987227
-0.00705421
0.000939543
-0.00715018
0.00089629
-0.00705462
0.00085675
-0.00684906
0.000819122
-0.00659055
0.000782119
-0.00631102
0.000742588
-0.00602111
0.000693209
-0.00575265
0.000632951
-0.00554335
0.000580639
-0.00530033
0.000568963
-0.00474312
0.000620314
-0.00359649
0.000730163
-0.00185058
0.000873977
0.000217834
0.00102418
0.00225338
0.00116051
0.00400464
0.00127261
0.00536462
0.00135854
0.00632605
0.00142142
0.0069422
0.00146635
0.00735469
0.00149768
0.00779309
0.00151626
0.00841954
0.00151827
0.00909484
0.00934477
0.00115045
-0.00152693
0.00115224
-0.0030841
0.00112994
-0.0046163
0.0010877
-0.0058279
0.00103564
-0.00660962
0.000982652
-0.00700123
0.000933428
-0.00710095
0.000889237
-0.00701043
0.000849308
-0.00680913
0.000811725
-0.00655297
0.000775145
-0.00627444
0.000736815
-0.00598278
0.000689505
-0.00570534
0.000630864
-0.00548471
0.000577892
-0.00524736
0.00056291
-0.00472814
0.000609921
-0.0036435
0.000716561
-0.00195722
0.000859309
7.50865e-05
0.00101036
0.00210234
0.00114877
0.00386622
0.00126357
0.00524982
0.00135229
0.00623733
0.00141778
0.00687671
0.00146513
0.00730734
0.00149892
0.00775929
0.00152016
0.0083983
0.00152479
0.00909021
0.0093635
0.00115866
-0.00154694
0.00115855
-0.00308399
0.0011332
-0.00459095
0.0010877
-0.0057824
0.00103283
-0.00655475
0.000977721
-0.00694612
0.000927044
-0.00705027
0.000881974
-0.00696536
0.000841694
-0.00676885
0.000804191
-0.00651547
0.00076804
-0.00623828
0.000730872
-0.00594561
0.000685651
-0.00566012
0.000628799
-0.00542786
0.000575421
-0.00519398
0.00055729
-0.00471001
0.000599903
-0.00368612
0.000703089
-0.00206041
0.000844495
-6.63194e-05
0.000996179
0.00195065
0.00113657
0.00372584
0.001254
0.00513238
0.0013455
0.00614583
0.00141359
0.00680862
0.00146337
0.00725756
0.00149964
0.00772303
0.00152355
0.00837439
0.00153082
0.00908294
0.00938026
0.0011662
-0.00156635
0.00116415
-0.00308194
0.00113577
-0.00456256
0.00108709
-0.00573372
0.00102954
-0.0064972
0.000972433
-0.00688901
0.000920388
-0.00699823
0.000874496
-0.00691947
0.0008339
-0.00672826
0.000796509
-0.00647808
0.000760794
-0.00620257
0.000724748
-0.00590957
0.00068162
-0.00561699
0.000626715
-0.00537295
0.000573187
-0.00514045
0.000552086
-0.0046889
0.000590267
-0.0037243
0.000689793
-0.00215994
0.000829544
-0.00020607
0.000981664
0.00179853
0.0011239
0.0035836
0.0012439
0.00501238
0.00133815
0.00605158
0.00140885
0.00673792
0.00146106
0.00720534
0.0014998
0.00768429
0.00152641
0.00834778
0.00153636
0.00907299
0.00152166
0.00939497
0.00876997
0.00117311
-0.00158515
0.00116904
-0.00307787
0.00113763
-0.00453116
0.00108589
-0.00568198
0.00102579
-0.0064371
0.000966786
-0.00683001
0.000913457
-0.0069449
0.000866798
-0.00687281
0.000825919
-0.00668738
0.000788669
-0.00644083
0.0007534
-0.0061673
0.00071843
-0.0058746
0.000677383
-0.00557594
0.000624572
-0.00532014
0.000571151
-0.00508703
0.000547274
-0.00466503
0.000581019
-0.00375804
0.000676658
-0.00225557
0.000814511
-0.000343923
0.000966828
0.00164621
0.00111077
0.00343966
0.00123328
0.00488987
0.00133025
0.00595461
0.00140355
0.00666463
0.00145819
0.0071507
0.00149941
0.00764307
0.00152871
0.00831849
0.00154139
0.0090603
0.00152882
0.00940754
0.00881422
0.0011794
-0.00160329
0.00117321
-0.00307168
0.00113879
-0.00449673
0.00108408
-0.00562727
0.00102157
-0.00637459
0.00096078
-0.00676922
0.000906248
-0.00689037
0.000858875
-0.00682543
0.000817743
-0.00664625
0.000780661
-0.00640374
0.000745847
-0.00613249
0.000711907
-0.00584066
0.000672916
-0.00553695
0.00062233
-0.00526956
0.000569272
-0.00503397
0.000542829
-0.00463858
0.000572159
-0.00378737
0.000663726
-0.00234714
0.000799405
-0.000479603
0.000951693
0.00149393
0.00109719
0.00329417
0.00122212
0.00476493
0.00132179
0.00585494
0.00139768
0.00658874
0.00145476
0.00709362
0.00149845
0.00759938
0.00153045
0.00828649
0.00154589
0.00904486
0.00153553
0.0094179
0.00885758
0.00118508
-0.00162066
0.00117667
-0.00306327
0.00113923
-0.0044593
0.00108166
-0.0055697
0.00101687
-0.00630979
0.000954414
-0.00670676
0.000898757
-0.00683471
0.000850723
-0.0067774
0.000809366
-0.00660489
0.000772475
-0.00636685
0.000738128
-0.00609814
0.000705171
-0.0058077
0.000668196
-0.00549998
0.000619949
-0.00522131
0.000567509
-0.00498153
0.000538724
-0.0046098
0.000563686
-0.00381233
0.000651018
-0.00243447
0.000784267
-0.000612851
0.000936279
0.00134191
0.00108317
0.00314727
0.00121044
0.00463766
0.00131277
0.00575262
0.00139124
0.00651027
0.00145075
0.00703411
0.0014969
0.00755323
0.0015316
0.00825178
0.00154984
0.00902663
0.00154177
0.00942596
0.00889993
0.00119018
-0.00163711
0.0011794
-0.00305249
0.00113896
-0.00441885
0.00107864
-0.00550939
0.0010117
-0.00624285
0.000947687
-0.00664275
0.000890983
-0.00677801
0.000842336
-0.00672875
0.000800781
-0.00656333
0.000764101
-0.00633017
0.000730233
-0.00606427
0.000698212
-0.00577568
0.000663201
-0.00546497
0.00061739
-0.0051755
0.000565821
-0.00492996
0.000534929
-0.00457891
0.00055559
-0.003833
0.000638558
-0.00251744
0.000769119
-0.000743412
0.000920613
0.00119042
0.00106874
0.00299915
0.00119825
0.00450815
0.00130319
0.00564768
0.00138422
0.00642923
0.00144615
0.00697218
0.00149477
0.00750461
0.00153217
0.00821438
0.00155322
0.00900557
0.00154753
0.00943166
0.00894116
0.00119468
0.0011814
-0.00303921
0.00113797
-0.00437542
0.00107502
-0.00544644
0.00100607
-0.0061739
0.0009406
-0.00657727
0.000882921
-0.00672033
0.000833711
-0.00667954
0.000791982
-0.00652161
0.000755531
-0.00629372
0.000722153
-0.0060309
0.000691024
-0.00574455
0.000657914
-0.00543186
0.000614616
-0.0051322
0.000564166
-0.00487951
0.000531415
-0.00454616
0.000547865
-0.00384945
0.000626365
-0.00259594
0.000754001
-0.000871047
0.000904723
0.0010397
0.00105389
0.00284998
0.00118554
0.0043765
0.00129305
0.00554018
0.00137663
0.00634565
0.00144097
0.00690784
0.00149203
0.00745355
0.00153212
0.00817429
0.00155602
0.00898167
0.00155278
0.00943491
0.00898116
0.00118265
-0.00302327
0.00113625
-0.00432902
0.0010708
-0.00538099
0.000999972
-0.00610307
0.000933152
-0.00651045
0.000874571
-0.00666175
0.000824843
-0.00662981
0.000782963
-0.00647973
0.000746756
-0.00625751
0.000713882
-0.00599802
0.000683601
-0.00571427
0.000652317
-0.00540057
0.000611592
-0.00509148
0.000562503
-0.00483042
0.000528151
-0.0045118
0.000540495
-0.00386179
0.000614451
-0.0026699
0.000738941
-0.000995538
0.00088864
0.000889998
0.00103866
0.00269996
0.00117234
0.00424282
0.00128235
0.00543017
0.00136845
0.00625955
0.00143519
0.0068411
0.00148868
0.00740006
0.00153146
0.00813151
0.00155823
0.0089549
0.00155751
0.00943563
0.00901979
0.00118316
-0.00300451
0.00113381
-0.00427967
0.00106598
-0.00531316
0.00099341
-0.0060305
0.000925345
-0.00644239
0.00086593
-0.00660233
0.000815729
-0.00657961
0.00077372
-0.00643772
0.000737768
-0.00622156
0.000705409
-0.00596566
0.000675937
-0.0056848
0.000646396
-0.00537103
0.000608284
-0.00505336
0.00056079
-0.00478293
0.000525104
-0.00447612
0.000533466
-0.00387015
0.000602821
-0.00273925
0.000723971
-0.00111669
0.000872399
0.000741571
0.00102307
0.00254929