/*--------------------------------*- C++ -*----------------------------------*\
  =========                 |
  \\      /  F ield         | OpenFOAM: The Open Source CFD Toolbox
   \\    /   O peration     | Website:  https://openfoam.org
    \\  /    A nd           | Version:  7
     \\/     M anipulation  |
\*---------------------------------------------------------------------------*/
FoamFile
{
    version     2.0;
    format      ascii;
    class       volVectorField;
    location    "220";
    object      U;
}
// * * * * * * * * * * * * * * * * * * * * * * * * * * * * * * * * * * * * * //

dimensions      [0 1 -1 0 0 0 0];

internalField   nonuniform List<vector> 
7156
(
(0.194214 0.201087 3.74546e-22)
(0.280333 0.0299517 -5.39041e-23)
(0.361352 -0.151125 -4.38697e-22)
(0.438818 -0.32522 -2.14396e-23)
(0.510784 -0.471149 4.04833e-22)
(0.572041 -0.574196 3.08253e-22)
(0.618667 -0.633259 -2.31981e-22)
(0.649636 -0.657168 -1.67396e-22)
(0.666255 -0.658027 -9.00546e-23)
(0.671004 -0.646241 -9.62799e-24)
(0.665777 -0.630518 9.27707e-23)
(0.649357 -0.619596 -4.04255e-23)
(0.619994 -0.616993 -1.38982e-22)
(0.582657 -0.609791 1.28496e-22)
(0.552406 -0.567593 9.1681e-23)
(0.54623 -0.462302 1.10366e-22)
(0.569809 -0.292439 7.8225e-23)
(0.616702 -0.0853325 -3.20878e-22)
(0.676 0.12063 1.1283e-23)
(0.736579 0.293666 1.48668e-22)
(0.789483 0.417575 2.62918e-22)
(0.829724 0.49218 -2.56325e-22)
(0.855813 0.528241 7.07905e-23)
(0.868768 0.539701 -4.13188e-23)
(0.871913 0.53705 1.16855e-22)
(0.868415 0.528217 3.95783e-24)
(0.857946 0.523105 -1.3161e-23)
(0.837729 0.529214 6.23137e-23)
(0.807471 0.539283 1.81212e-23)
(0.772944 0.527738 7.18552e-23)
(0.216559 0.18805 -1.58412e-22)
(0.30259 0.0179704 -1.89666e-21)
(0.382841 -0.162277 1.86083e-21)
(0.459112 -0.335608 -1.04632e-21)
(0.529354 -0.48031 -2.65946e-22)
(0.588322 -0.581523 -5.09603e-22)
(0.632309 -0.638443 1.46785e-21)
(0.660639 -0.660279 -8.65488e-22)
(0.674865 -0.659365 -3.63257e-23)
(0.677549 -0.646141 -1.51504e-22)
(0.670716 -0.629061 3.95639e-22)
(0.653252 -0.616616 3.3195e-22)
(0.623097 -0.612716 -6.44936e-22)
(0.584497 -0.605499 -6.91236e-22)
(0.551951 -0.565289 9.31244e-22)
(0.542809 -0.463366 -4.52344e-22)
(0.563714 -0.296761 -2.72213e-22)
(0.60879 -0.0917838 4.29619e-22)
(0.667236 0.113425 1.04781e-21)
(0.72788 0.28692 -9.24591e-22)
(0.781607 0.412097 4.90076e-22)
(0.823134 0.488314 2.17845e-23)
(0.850641 0.525972 -2.26875e-22)
(0.864971 0.538738 1.41779e-22)
(0.869397 0.537002 -2.27018e-22)
(0.867004 0.528899 1.3507e-22)
(0.857403 0.524642 -3.83607e-23)
(0.837873 0.531729 -2.94826e-22)
(0.808278 0.542487 3.5001e-23)
(0.77454 0.530876 2.12901e-22)
(0.23944 0.175322 2.12124e-21)
(0.325196 0.00644671 2.43171e-21)
(0.404583 -0.172902 -2.26561e-21)
(0.479617 -0.345454 -1.39763e-21)
(0.548096 -0.488937 2.89338e-22)
(0.604727 -0.588352 1.82462e-21)
(0.646032 -0.643193 -6.90318e-22)
(0.671699 -0.663036 1.22997e-21)
(0.68353 -0.660427 -1.29895e-21)
(0.684163 -0.645835 1.53972e-21)
(0.675729 -0.627467 -1.33911e-21)
(0.657238 -0.613543 6.35515e-22)
(0.626346 -0.608331 8.80446e-22)
(0.586579 -0.601035 -8.58668e-22)
(0.551829 -0.562783 -2.83788e-22)
(0.539738 -0.464301 6.5078e-22)
(0.557924 -0.301102 -1.4168e-21)
(0.601121 -0.0983885 -8.94086e-22)
(0.658653 0.105986 2.07971e-22)
(0.719307 0.279907 7.75996e-22)
(0.773813 0.406357 -8.25923e-22)
(0.816593 0.48422 3.16046e-22)
(0.845499 0.523515 -4.13122e-22)
(0.861205 0.537625 2.16302e-22)
(0.86692 0.536832 1.66477e-22)
(0.865643 0.529484 -1.73385e-22)
(0.856925 0.526096 -2.17724e-22)
(0.838103 0.534163 -2.26111e-22)
(0.809199 0.545617 1.00531e-22)
(0.776273 0.533977 -4.15434e-22)
(0.262758 0.162932 1.93151e-22)
(0.34807 -0.00460254 2.72016e-21)
(0.426518 -0.182993 -6.21798e-22)
(0.500292 -0.354754 3.56082e-21)
(0.566982 -0.49703 -1.84212e-21)
(0.621236 -0.594685 8.91568e-22)
(0.659824 -0.647512 -2.2936e-22)
(0.682808 -0.665444 -1.33358e-21)
(0.692248 -0.661219 8.70932e-22)
(0.690844 -0.645329 -6.3441e-22)
(0.68082 -0.625743 2.84573e-22)
(0.661315 -0.610389 -1.12647e-21)
(0.629738 -0.60385 -3.96145e-22)
(0.588902 -0.596408 6.18029e-22)
(0.552044 -0.560072 1.61816e-21)
(0.537031 -0.465095 -4.87068e-22)
(0.552454 -0.305445 -4.23671e-22)
(0.593707 -0.105132 1.02348e-21)
(0.650261 0.0983211 -2.95897e-22)
(0.710867 0.272632 2.01201e-23)
(0.766104 0.400357 1.24576e-21)
(0.810101 0.479895 -6.17784e-22)
(0.840388 0.520869 1.88157e-22)
(0.857468 0.536357 -5.20844e-22)
(0.864479 0.53654 3.0737e-22)
(0.864327 0.52997 6.92535e-22)
(0.856509 0.527461 -5.15773e-22)
(0.838418 0.53651 4.94915e-22)
(0.810232 0.54867 -2.41042e-22)
(0.778139 0.537039 -7.21586e-22)
(0.286417 0.150905 4.79384e-21)
(0.371135 -0.0151634 5.04016e-21)
(0.44859 -0.192545 -1.02731e-20)
(0.521096 -0.363506 4.40553e-21)
(0.585982 -0.504588 -3.36821e-21)
(0.637827 -0.600521 2.12787e-21)
(0.67367 -0.651403 -9.79614e-22)
(0.693958 -0.667509 -8.81462e-22)
(0.701014 -0.661747 2.23261e-21)
(0.697592 -0.64463 -2.0015e-22)
(0.685988 -0.623896 8.49704e-22)
(0.665483 -0.607162 9.0203e-22)
(0.633271 -0.599289 -1.04004e-21)
(0.591464 -0.591631 2.1427e-22)
(0.552601 -0.557157 -1.93721e-22)
(0.534696 -0.465734 -7.11133e-22)
(0.547316 -0.309774 1.3828e-21)
(0.586559 -0.112001 2.86913e-22)
(0.642069 0.0904406 -3.51546e-22)
(0.702568 0.2651 -9.616e-22)
(0.758485 0.394099 -4.95781e-22)
(0.80366 0.475341 -3.63868e-22)
(0.835308 0.51803 -1.36671e-21)
(0.853759 0.534932 -1.14374e-22)
(0.862071 0.53612 5.04136e-22)
(0.863056 0.530353 -1.47748e-22)
(0.856153 0.528734 -6.40146e-22)
(0.838816 0.538765 2.46452e-22)
(0.811373 0.551641 -1.11034e-21)
(0.780134 0.54006 -1.77857e-22)
(0.310322 0.139264 5.47409e-21)
(0.394311 -0.0252261 -2.31545e-21)
(0.470742 -0.201558 -3.27612e-21)
(0.541992 -0.371713 -2.0633e-21)
(0.605069 -0.511613 -3.55385e-21)
(0.654481 -0.605863 3.43703e-22)
(0.687558 -0.654869 4.8065e-21)
(0.705142 -0.669235 -7.52068e-22)
(0.709823 -0.662019 -8.80129e-22)
(0.704406 -0.643745 -4.57033e-22)
(0.691234 -0.621931 7.30902e-22)
(0.669741 -0.603873 -2.9513e-21)
(0.636942 -0.594658 5.73699e-22)
(0.59426 -0.586714 1.21165e-21)
(0.553502 -0.554038 -1.31267e-21)
(0.532745 -0.466208 2.13463e-21)
(0.542523 -0.31407 1.45849e-21)
(0.579689 -0.11898 -1.48501e-22)
(0.634087 0.0823552 -9.24623e-22)
(0.694414 0.257318 -1.41861e-21)
(0.750958 0.387586 1.22333e-21)
(0.797271 0.470555 -2.26251e-22)
(0.830259 0.514996 2.83574e-21)
(0.850076 0.533347 1.08874e-21)
(0.859696 0.53557 -1.31993e-21)
(0.861827 0.530629 1.87446e-21)
(0.855855 0.529909 -1.0621e-21)
(0.839294 0.540923 2.58624e-22)
(0.812619 0.554527 2.07376e-21)
(0.782254 0.543039 5.69322e-22)
(0.334377 0.128029 3.05713e-21)
(0.417526 -0.0347843 6.12685e-21)
(0.492922 -0.210034 -9.68065e-22)
(0.562944 -0.379378 5.36023e-23)
(0.624218 -0.518107 3.20454e-21)
(0.67118 -0.610713 -1.95596e-21)
(0.701474 -0.657915 -2.98318e-21)
(0.716352 -0.670629 1.81793e-22)
(0.718671 -0.662041 -9.75053e-22)
(0.711282 -0.64268 -1.03846e-21)
(0.696559 -0.619856 2.0129e-21)
(0.674089 -0.600529 -9.1175e-23)
(0.640747 -0.589973 9.55972e-23)
(0.597287 -0.581669 3.57967e-22)
(0.554745 -0.550719 -3.63099e-22)
(0.531187 -0.466504 -5.26302e-21)
(0.538086 -0.318315 2.45062e-21)
(0.573108 -0.126052 -2.34553e-21)
(0.626323 0.0740758 3.8975e-21)
(0.686414 0.249291 -1.3021e-21)
(0.743528 0.380819 6.61911e-22)
(0.790937 0.465538 -4.23204e-22)
(0.825239 0.511766 -1.23261e-21)
(0.846419 0.531599 -1.86687e-21)
(0.85735 0.534887 -6.59231e-22)
(0.860636 0.530794 2.17869e-21)
(0.855611 0.530983 -4.33147e-22)
(0.839848 0.54298 -1.09805e-21)
(0.813966 0.557324 -2.43184e-22)
(0.784493 0.545975 -2.24064e-22)
(0.358493 0.117216 -3.52571e-21)
(0.44071 -0.0438355 3.95019e-21)
(0.515083 -0.217976 2.54827e-21)
(0.583918 -0.386506 -1.31255e-20)
(0.643402 -0.524074 8.23453e-21)
(0.687903 -0.615076 -3.51449e-21)
(0.715406 -0.660545 -1.48686e-21)
(0.72758 -0.671697 9.70023e-22)
(0.727553 -0.66182 1.69413e-21)
(0.718221 -0.641441 2.04643e-21)
(0.701963 -0.617677 -6.12968e-22)
(0.678527 -0.597141 -9.2707e-22)
(0.644683 -0.585247 -1.59411e-21)
(0.60054 -0.576511 -1.64942e-21)
(0.556332 -0.547202 1.98354e-21)
(0.530028 -0.466612 2.9687e-21)
(0.534019 -0.322493 1.13084e-21)
(0.566827 -0.133201 -4.2237e-21)
(0.618785 0.0656142 3.35614e-22)
(0.678572 0.241027 1.6178e-21)
(0.736199 0.373803 -9.63846e-22)
(0.784657 0.460289 -4.19674e-22)
(0.82025 0.508336 1.38634e-21)
(0.842785 0.529684 1.83071e-21)
(0.855031 0.534069 -9.97116e-22)
(0.859482 0.530846 1.13902e-22)
(0.855419 0.531951 -1.53135e-22)
(0.840475 0.544931 1.8789e-21)
(0.815411 0.560028 -3.9804e-22)
(0.786847 0.548866 -1.40929e-21)
(0.382583 0.106836 -5.03315e-21)
(0.463796 -0.0523806 -8.94013e-21)
(0.537178 -0.225394 3.33747e-21)
(0.604881 -0.393106 -2.35853e-21)
(0.662597 -0.529519 1.77694e-21)
(0.704633 -0.618956 9.07829e-21)
(0.729341 -0.662766 -4.32458e-21)
(0.738818 -0.672445 1.82482e-21)
(0.736465 -0.661364 -1.73336e-21)
(0.725218 -0.640036 2.23175e-22)
(0.707446 -0.615398 1.59448e-21)
(0.683053 -0.593715 -1.77704e-21)
(0.648745 -0.580491 9.71527e-22)
(0.604011 -0.571253 1.96771e-21)
(0.558258 -0.543491 2.93959e-22)
(0.529276 -0.466522 -1.40723e-21)
(0.53033 -0.326583 -1.52454e-21)
(0.560856 -0.140409 -8.25034e-22)
(0.611483 0.0569829 2.51359e-21)
(0.670895 0.232533 -1.95639e-21)
(0.728973 0.36654 -1.32815e-21)
(0.778434 0.45481 -8.02736e-22)
(0.815291 0.504706 -9.00731e-22)
(0.839173 0.527601 -2.78439e-22)
(0.852737 0.533111 1.09696e-21)
(0.858361 0.530781 -1.79387e-21)
(0.855276 0.532808 1.09912e-21)
(0.841172 0.54677 -7.50392e-22)
(0.816948 0.562634 4.29847e-22)
(0.789311 0.55171 3.43525e-21)
(0.406563 0.0968993 -5.89672e-21)
(0.486723 -0.0604238 -1.03428e-21)
(0.559167 -0.232298 3.3435e-21)
(0.625804 -0.399185 -1.33717e-20)
(0.68178 -0.534449 1.7336e-21)
(0.72135 -0.622359 -7.18819e-21)
(0.743267 -0.664583 6.53624e-21)
(0.75006 -0.672879 -4.03495e-22)
(0.745402 -0.66068 -8.25643e-21)
(0.732272 -0.63847 8.13748e-21)
(0.713008 -0.613026 -8.18536e-21)
(0.687667 -0.590261 1.75428e-21)
(0.652929 -0.57572 -1.7328e-21)
(0.607693 -0.565908 4.57149e-21)
(0.56052 -0.539594 -3.43011e-21)
(0.528935 -0.466224 -4.54516e-22)
(0.527032 -0.330569 1.27605e-21)
(0.555205 -0.147659 -7.78184e-24)
(0.604425 0.0481949 1.38633e-21)
(0.66339 0.223817 3.13008e-21)
(0.721854 0.359035 -1.21339e-21)
(0.772269 0.4491 3.72062e-22)
(0.810361 0.500872 -8.76128e-22)
(0.835582 0.525345 1.21527e-21)
(0.850464 0.532011 -8.42961e-22)
(0.857271 0.530595 1.901e-21)
(0.855178 0.533551 -1.78173e-21)
(0.841934 0.548494 -4.80812e-22)
(0.818574 0.565141 -7.89238e-22)
(0.791879 0.554504 -6.9352e-22)
(0.430358 0.0874118 6.32916e-21)
(0.509437 -0.0679728 -1.50965e-20)
(0.581012 -0.2387 -1.92561e-21)
(0.646661 -0.404756 1.06264e-20)
(0.700929 -0.53887 3.45045e-21)
(0.738038 -0.625289 4.1827e-21)
(0.75717 -0.666002 -2.87757e-21)
(0.761297 -0.673008 2.25053e-21)
(0.75436 -0.659774 2.94314e-21)
(0.73938 -0.636751 -5.58937e-21)
(0.718648 -0.610566 -2.25954e-21)
(0.692367 -0.586784 1.14824e-21)
(0.657231 -0.570946 2.9432e-21)
(0.611579 -0.560492 -8.13639e-22)
(0.563111 -0.535515 -1.9563e-21)
(0.529008 -0.46571 1.61404e-21)
(0.524133 -0.33443 -2.85062e-21)
(0.549885 -0.154933 -1.09096e-21)
(0.597618 0.0392638 -2.65078e-21)
(0.656061 0.214887 -1.28634e-21)
(0.714846 0.351291 -4.15646e-22)
(0.766163 0.44316 8.54386e-21)
(0.80546 0.496835 8.62959e-22)
(0.832009 0.522916 -5.18634e-21)
(0.848211 0.530767 1.58028e-21)
(0.856207 0.530285 -1.37468e-21)
(0.855121 0.534175 3.41688e-22)
(0.842758 0.550098 1.00853e-21)
(0.820283 0.567543 2.0403e-21)
(0.794546 0.557248 -1.09739e-21)
(0.453896 0.078376 -1.09098e-20)
(0.531886 -0.0750382 2.68458e-20)
(0.602681 -0.244615 -2.35914e-20)
(0.667425 -0.409828 -3.08076e-21)
(0.720021 -0.54279 -1.09858e-21)
(0.754679 -0.627754 6.59477e-21)
(0.771038 -0.66703 4.55877e-21)
(0.772523 -0.672836 -5.46989e-21)
(0.763334 -0.658655 3.05525e-21)
(0.746539 -0.634886 5.19643e-21)
(0.724366 -0.608023 -2.97548e-21)
(0.697153 -0.583292 3.45588e-21)
(0.661644 -0.56618 -2.65418e-21)
(0.615659 -0.55502 -8.24159e-22)
(0.566025 -0.531265 -4.00472e-21)
(0.529497 -0.464974 2.12527e-21)
(0.521642 -0.33815 3.68393e-21)
(0.544904 -0.162211 -5.87536e-22)
(0.591071 0.0302042 7.56761e-21)
(0.648915 0.205753 6.62353e-22)
(0.707951 0.343312 -2.81964e-21)
(0.760118 0.43699 -5.30527e-21)
(0.800588 0.492591 3.59004e-21)
(0.828452 0.52031 -5.38278e-22)
(0.845974 0.529375 2.69711e-22)
(0.855168 0.529848 1.76035e-22)
(0.855103 0.534677 9.27181e-22)
(0.84364 0.551577 -1.18912e-21)
(0.822071 0.569836 -1.33899e-21)
(0.797305 0.559939 -1.09018e-21)
(0.477112 0.069791 1.2157e-20)
(0.554028 -0.0816333 -1.32792e-20)
(0.624145 -0.250061 1.16504e-20)
(0.688076 -0.414416 -1.34367e-21)
(0.739038 -0.546216 2.57926e-21)
(0.771256 -0.62976 -8.78134e-21)
(0.78486 -0.667675 3.60483e-21)
(0.783729 -0.672373 1.56638e-21)
(0.772319 -0.657329 -3.38155e-21)
(0.753746 -0.63288 2.32533e-21)
(0.730159 -0.605403 -4.53112e-21)
(0.702022 -0.579791 2.19599e-21)
(0.666165 -0.561435 -1.06168e-22)
(0.619926 -0.549506 -8.47324e-22)
(0.569252 -0.526851 2.71325e-21)
(0.530402 -0.46401 -3.21579e-21)
(0.519567 -0.341709 4.48096e-21)
(0.540272 -0.169473 -9.73463e-21)
(0.584793 0.0210302 7.81878e-21)
(0.641958 0.196424 -6.71495e-21)
(0.701175 0.335104 5.68463e-21)
(0.754134 0.430593 -2.48821e-21)
(0.795744 0.48814 -3.03105e-21)
(0.824911 0.517525 2.02751e-21)
(0.84375 0.527833 1.86539e-21)
(0.854149 0.52928 -2.56295e-21)
(0.855118 0.535053 4.06638e-22)
(0.844576 0.552928 1.24353e-21)
(0.823932 0.572018 -2.0991e-21)
(0.80015 0.562574 7.50729e-22)
(0.499948 0.0616531 4.50517e-21)
(0.575825 -0.0877742 -1.34895e-21)
(0.645382 -0.255054 4.86834e-22)
(0.708593 -0.418531 -1.67129e-20)
(0.757959 -0.54916 1.60987e-20)
(0.787753 -0.631316 -1.36939e-20)
(0.798624 -0.667944 4.2006e-21)
(0.794909 -0.671625 2.61497e-21)
(0.781312 -0.655803 -1.383e-21)
(0.760997 -0.630741 -1.3346e-22)
(0.736027 -0.60271 4.05329e-22)
(0.706975 -0.576287 -2.59738e-21)
(0.670787 -0.55672 2.04312e-21)
(0.624368 -0.543966 -3.57538e-21)
(0.572783 -0.522286 5.32563e-21)
(0.531721 -0.462814 3.92465e-21)
(0.517917 -0.345091 3.21198e-21)
(0.535998 -0.176699 -7.77692e-21)
(0.578789 0.011757 3.59867e-22)
(0.635195 0.18691 2.38071e-21)
(0.694519 0.326673 4.50506e-22)
(0.748213 0.42397 4.11994e-21)
(0.790928 0.48348 -1.61652e-21)
(0.821382 0.514558 -4.76618e-22)
(0.841537 0.526139 6.47822e-22)
(0.853147 0.52858 1.49384e-22)
(0.855164 0.535299 1.74119e-21)
(0.84556 0.554146 -1.16574e-21)
(0.82586 0.574084 1.22354e-21)
(0.803075 0.56515 3.58764e-21)
(0.522353 0.0539558 -8.21614e-21)
(0.597246 -0.0934792 3.08708e-21)
(0.666371 -0.259616 -1.5587e-21)
(0.728959 -0.42219 2.54358e-20)
(0.776767 -0.551628 -3.25703e-21)
(0.804155 -0.632428 -1.4895e-21)
(0.812318 -0.667844 -1.06555e-20)
(0.806056 -0.6706 3.17991e-21)
(0.790308 -0.654086 2.97185e-21)
(0.768289 -0.628476 -8.98129e-22)
(0.741969 -0.599949 -6.95903e-22)
(0.712009 -0.572783 -6.29373e-22)
(0.675506 -0.552047 5.00145e-21)
(0.628976 -0.538416 -5.44938e-22)
(0.576607 -0.51758 1.73645e-21)
(0.533452 -0.461383 -1.00198e-21)
(0.516696 -0.348278 -2.07381e-21)
(0.53209 -0.18387 4.67846e-21)
(0.573068 0.00240874 -1.80181e-21)
(0.628632 0.177222 -8.27127e-21)
(0.687987 0.318023 5.93486e-21)
(0.742357 0.417122 -1.30835e-21)
(0.78614 0.478612 4.77784e-22)
(0.817865 0.511408 -8.43651e-22)
(0.839332 0.524289 2.60382e-21)
(0.852158 0.527744 -2.63742e-21)
(0.855236 0.535411 -4.88303e-23)
(0.846588 0.555228 -8.27015e-23)
(0.827851 0.576031 -5.21979e-22)
(0.806073 0.567666 8.53182e-22)
(0.544284 0.0466897 5.10054e-21)
(0.618266 -0.0987688 1.16413e-20)
(0.687098 -0.263766 -2.81937e-21)
(0.749158 -0.425405 -2.2837e-22)
(0.795443 -0.553632 -7.05782e-21)
(0.820445 -0.633106 -6.11417e-21)
(0.825931 -0.667385 6.52563e-21)
(0.817162 -0.669305 -5.47858e-22)
(0.799302 -0.652182 -2.86165e-21)
(0.775618 -0.62609 -2.37618e-21)
(0.747981 -0.597124 -1.72283e-22)
(0.717122 -0.569285 9.9475e-22)
(0.680316 -0.547424 -2.41392e-21)
(0.633739 -0.53287 -1.84894e-21)
(0.58071 -0.512746 -1.49592e-21)
(0.535588 -0.459716 -3.05772e-21)
(0.515909 -0.351254 -1.52404e-21)
(0.528557 -0.190964 2.97531e-21)
(0.567636 -0.00697108 -1.50994e-21)
(0.622273 0.167372 4.52089e-22)
(0.681582 0.309162 1.49339e-21)
(0.736567 0.410051 -3.4181e-21)
(0.781379 0.473533 -1.95141e-21)
(0.814357 0.508073 1.15023e-21)
(0.837132 0.522282 -2.24822e-21)
(0.851179 0.526768 -1.15224e-21)
(0.85533 0.535387 2.63864e-21)
(0.847656 0.556169 1.29834e-21)
(0.829899 0.577856 -1.82953e-21)
(0.809138 0.570117 6.86743e-22)
(0.565704 0.0398414 1.43184e-20)
(0.638869 -0.103665 -8.62552e-21)
(0.707553 -0.267527 4.85477e-22)
(0.769176 -0.428191 -1.53357e-20)
(0.813973 -0.555181 2.13437e-20)
(0.83661 -0.633358 -1.77079e-20)
(0.839453 -0.666574 6.365e-21)
(0.828221 -0.667748 -1.07263e-21)
(0.80829 -0.650101 3.12321e-21)
(0.782981 -0.623591 -8.73182e-21)
(0.754062 -0.594241 5.07389e-21)
(0.722314 -0.565796 -2.05603e-21)
(0.685213 -0.542861 6.27074e-21)
(0.638647 -0.527344 1.8195e-21)
(0.585081 -0.507799 7.0134e-22)
(0.538123 -0.457814 -1.18165e-21)
(0.515562 -0.354005 -5.53066e-21)
(0.52541 -0.197959 8.27093e-21)
(0.562501 -0.0164336 -2.61329e-21)
(0.61612 0.15737 1.40706e-21)
(0.675308 0.300095 -1.7832e-21)
(0.730844 0.40276 1.23301e-23)
(0.776646 0.468244 2.71207e-21)
(0.810856 0.504551 -2.1925e-21)
(0.834934 0.520115 1.85138e-21)
(0.850206 0.525651 -2.19108e-22)
(0.855441 0.535222 -7.09764e-22)
(0.848758 0.556966 2.34459e-21)
(0.831997 0.579553 -1.34228e-21)
(0.812263 0.572502 1.12529e-22)
(0.586585 0.0333959 1.42265e-20)
(0.659044 -0.108193 -1.21725e-20)
(0.72773 -0.270918 -2.59807e-21)
(0.789003 -0.430562 1.3711e-21)
(0.832339 -0.556284 2.72333e-22)
(0.852633 -0.633193 1.68772e-21)
(0.852872 -0.665421 1.85717e-21)
(0.839227 -0.665937 1.17025e-20)
(0.817268 -0.647848 -6.71969e-22)
(0.790374 -0.620983 -1.63785e-21)
(0.76021 -0.591303 2.78798e-22)
(0.727583 -0.562321 -2.81109e-21)
(0.69019 -0.538366 -1.24926e-21)
(0.643689 -0.521853 1.23947e-21)
(0.589705 -0.502753 -1.46045e-21)
(0.541047 -0.455679 -2.62497e-21)
(0.515656 -0.356515 4.06532e-21)
(0.52265 -0.204837 -1.31218e-21)
(0.55767 -0.0259645 -3.21109e-21)
(0.610185 0.147229 5.04122e-21)
(0.669167 0.29083 -1.89526e-21)
(0.725189 0.395252 1.65314e-21)
(0.771939 0.462744 -1.98611e-21)
(0.807361 0.50084 1.01498e-21)
(0.832734 0.517786 1.21439e-21)
(0.849236 0.524391 -2.3105e-21)
(0.855566 0.534915 -2.81435e-22)
(0.849889 0.557616 2.37417e-21)
(0.834139 0.581121 1.11135e-21)
(0.815441 0.574817 -1.10225e-21)
(0.606904 0.0273436 -5.1614e-21)
(0.678785 -0.112375 1.22423e-20)
(0.747627 -0.273963 -1.54473e-20)
(0.808628 -0.432534 1.83846e-20)
(0.850527 -0.556953 3.08336e-20)
(0.868503 -0.63262 -1.77455e-20)
(0.866179 -0.663934 -1.21854e-21)
(0.850171 -0.663881 -2.53081e-21)
(0.826233 -0.645431 2.76485e-21)
(0.797793 -0.618275 3.12485e-21)
(0.76642 -0.588314 -1.1888e-21)
(0.732928 -0.558861 -1.1538e-21)
(0.695245 -0.533944 9.3961e-22)
(0.648855 -0.51641 -1.69044e-21)
(0.594567 -0.497624 -2.31208e-21)
(0.54435 -0.453316 1.82791e-21)
(0.516192 -0.358772 2.80237e-21)
(0.520286 -0.211574 -2.77262e-22)
(0.553148 -0.0354771 -4.31454e-21)
(0.604471 0.136964 2.90583e-21)
(0.663163 0.281375 -1.02007e-21)
(0.719605 0.38753 -3.93939e-21)
(0.767259 0.457034 -4.87665e-22)
(0.803869 0.496939 -9.77839e-22)
(0.830531 0.515293 2.57786e-22)
(0.848264 0.522984 1.88858e-21)
(0.8557 0.534462 8.46324e-22)
(0.851045 0.558115 -6.35741e-21)
(0.83632 0.582556 5.5939e-21)
(0.818664 0.577058 -3.15316e-21)
(0.62665 0.0216509 1.11864e-20)
(0.698095 -0.116239 2.30763e-20)
(0.767245 -0.276682 -4.18541e-21)
(0.828043 -0.434119 -2.29353e-20)
(0.868523 -0.557197 3.94642e-20)
(0.884205 -0.631648 -2.25805e-20)
(0.879364 -0.662122 1.13871e-20)
(0.86105 -0.661586 -1.0319e-20)
(0.835179 -0.642855 -6.45439e-21)
(0.805235 -0.615471 -3.86458e-21)
(0.772692 -0.585279 1.55039e-21)
(0.738346 -0.555418 -1.28231e-21)
(0.700371 -0.529604 2.86787e-22)
(0.654132 -0.511031 3.85702e-21)
(0.599652 -0.492428 -9.47966e-22)
(0.54802 -0.45073 9.99841e-22)
(0.51717 -0.360765 -8.92862e-22)
(0.518324 -0.21815 3.04984e-21)
(0.548943 -0.0449739 -1.02197e-23)
(0.598982 0.126586 -2.0111e-21)
(0.6573 0.271736 -2.75782e-21)
(0.714093 0.379596 2.29799e-21)
(0.762605 0.451114 2.05331e-22)
(0.80038 0.492846 4.48128e-21)
(0.82832 0.512634 -2.74136e-21)
(0.847286 0.521428 2.20653e-22)
(0.855838 0.533861 2.56574e-21)
(0.852219 0.55846 -3.13109e-21)
(0.838532 0.583853 1.10301e-21)
(0.821927 0.579223 4.66525e-21)
(0.645815 0.0162766 2.10793e-20)
(0.716984 -0.119812 -4.17706e-20)
(0.786589 -0.279097 -2.77893e-20)
(0.847241 -0.435331 4.13562e-20)
(0.886312 -0.557026 1.60649e-20)
(0.899725 -0.630288 -1.42031e-20)
(0.892418 -0.659996 -8.90685e-22)
(0.871855 -0.659062 7.48327e-21)
(0.844103 -0.640128 -1.34397e-20)
(0.812695 -0.612577 1.23427e-20)
(0.77902 -0.582203 -3.22541e-21)
(0.743836 -0.551996 1.60209e-21)
(0.705564 -0.525349 -6.33026e-21)
(0.659512 -0.505729 3.58667e-21)
(0.604944 -0.487181 -3.21252e-21)
(0.552042 -0.447929 -6.53311e-22)
(0.518588 -0.362484 4.72562e-21)
(0.516773 -0.224544 -1.1436e-21)
(0.54506 -0.0544423 5.1823e-21)
(0.593722 0.116111 -6.9574e-22)
(0.651579 0.261924 -2.6386e-21)
(0.708655 0.371455 3.93647e-22)
(0.757977 0.444983 8.31042e-22)
(0.79689 0.488561 -2.64865e-21)
(0.826098 0.509807 3.6909e-22)
(0.8463 0.519721 9.5471e-22)
(0.855977 0.533109 1.55001e-21)
(0.853407 0.558648 1.64389e-21)
(0.840771 0.58501 -9.14152e-22)
(0.825222 0.581307 1.33563e-21)
(0.664401 0.0112463 -4.13059e-20)
(0.735469 -0.123117 3.89917e-21)
(0.805667 -0.281226 2.33213e-20)
(0.866216 -0.436182 -2.54483e-20)
(0.903882 -0.556449 1.45199e-20)
(0.915053 -0.628549 1.47182e-20)
(0.905331 -0.657564 -1.84859e-20)
(0.882581 -0.656315 6.77482e-22)
(0.853002 -0.637255 4.21877e-22)
(0.82017 -0.609598 6.92282e-21)
(0.785401 -0.579088 -5.84343e-21)
(0.749396 -0.548595 2.14369e-21)
(0.710821 -0.521185 6.56609e-21)
(0.664984 -0.500515 -2.30429e-21)
(0.610428 -0.4819 -9.06226e-21)
(0.556403 -0.444922 8.69839e-22)
(0.520442 -0.363921 8.4779e-21)
(0.515636 -0.230736 7.1929e-22)
(0.541507 -0.0638618 -1.57882e-21)
(0.588697 0.105554 -3.657e-21)
(0.646006 0.251947 4.06018e-21)
(0.703291 0.363112 -5.22628e-21)
(0.753376 0.438645 2.02272e-21)
(0.7934 0.484083 2.2251e-21)
(0.823864 0.506812 -3.09325e-21)
(0.8453 0.517862 2.61872e-21)
(0.856111 0.532203 1.03671e-21)
(0.854603 0.558676 -1.4426e-21)
(0.843029 0.586023 2.57004e-21)
(0.828542 0.583307 -5.50879e-21)
(0.753565 -0.12618 2.46473e-20)
(0.824489 -0.28309 -5.29392e-20)
(0.884961 -0.436683 3.82789e-20)
(0.92122 -0.555477 -2.65277e-20)
(0.930175 -0.626441 5.42503e-21)
(0.918095 -0.654836 -9.17128e-22)
(0.893223 -0.653355 8.94908e-21)
(0.861871 -0.634244 5.71682e-21)
(0.827657 -0.606542 -1.81309e-20)
(0.791833 -0.575938 1.90148e-21)
(0.755024 -0.545216 1.24445e-20)
(0.716137 -0.517114 -8.05177e-21)
(0.670536 -0.495402 2.27105e-21)
(0.616087 -0.476603 4.43621e-21)
(0.561084 -0.44172 -2.24118e-21)
(0.522725 -0.365069 -1.79036e-21)
(0.514918 -0.236705 2.28916e-21)
(0.538288 -0.073211 2.07131e-21)
(0.583912 0.094929 -8.36685e-21)
(0.640582 0.241814 7.96314e-21)
(0.698005 0.35457 -2.30917e-21)
(0.748801 0.432098 -2.69805e-21)
(0.789906 0.47941 1.1985e-21)
(0.821614 0.503645 2.79945e-21)
(0.844283 0.515849 -3.99367e-22)
(0.856235 0.531143 -6.18276e-21)
(0.855803 0.558542 -6.8143e-22)
(0.8453 0.58689 -1.34738e-21)
(0.831879 0.585219 -2.71599e-21)
(0.771302 -0.129026 3.86213e-20)
(0.843068 -0.284704 -3.95225e-20)
(0.903473 -0.436845 1.01643e-20)
(0.938312 -0.55412 -9.24867e-21)
(0.945079 -0.623975 2.7243e-20)
(0.930702 -0.651822 -9.55519e-21)
(0.903775 -0.65019 -1.39951e-21)
(0.870708 -0.6311 -4.1675e-21)
(0.835151 -0.603411 5.14439e-21)
(0.798311 -0.572759 -6.90925e-21)
(0.760719 -0.541861 2.223e-21)
(0.72151 -0.51314 3.10706e-22)
(0.67616 -0.4904 8.07699e-22)
(0.621905 -0.471308 4.89128e-21)
(0.566069 -0.438336 -3.24609e-21)
(0.52543 -0.365925 -1.9543e-21)
(0.514623 -0.242434 -6.01919e-22)
(0.535411 -0.0824687 -3.79756e-21)
(0.57937 0.0842533 6.27255e-21)
(0.635312 0.231536 -3.35259e-21)
(0.692798 0.345834 1.27484e-21)
(0.744254 0.425346 -4.51254e-21)
(0.786408 0.474543 -3.17452e-21)
(0.819344 0.500306 3.7214e-21)
(0.843245 0.51368 9.08652e-22)
(0.856346 0.529925 -1.6054e-21)
(0.856999 0.558244 7.97224e-21)
(0.847579 0.587606 -9.74738e-21)
(0.835228 0.58704 5.74467e-21)
(0.788702 -0.131682 -3.07829e-20)
(0.861417 -0.286085 5.89762e-21)
(0.921745 -0.436678 1.83357e-21)
(0.955146 -0.552385 -1.08379e-20)
(0.959755 -0.62116 1.06644e-20)
(0.943144 -0.648531 -4.64694e-21)
(0.914232 -0.646827 3.69746e-21)
(0.879507 -0.627829 -4.74745e-21)
(0.842651 -0.600212 1.71951e-20)
(0.80483 -0.569552 -1.06137e-20)
(0.766477 -0.538531 6.5843e-21)
(0.726936 -0.509263 -4.10298e-21)
(0.681846 -0.485521 -3.52583e-21)
(0.627867 -0.466031 9.38277e-21)
(0.571339 -0.434783 -9.62341e-21)
(0.528547 -0.366486 7.00713e-21)
(0.514755 -0.247905 3.6849e-21)
(0.532882 -0.0916136 -9.12967e-22)
(0.575078 0.0735433 -4.82601e-21)
(0.630199 0.221124 7.49128e-21)
(0.687671 0.336911 -4.4016e-21)
(0.739733 0.418389 5.63873e-21)
(0.782904 0.469482 5.48148e-22)
(0.817053 0.496795 -1.10888e-21)
(0.842183 0.511353 -6.47523e-22)
(0.856438 0.52855 1.33669e-21)
(0.858188 0.557779 -5.78995e-22)
(0.849858 0.588169 -1.5009e-21)
(0.83858 0.588764 -7.01596e-22)
(0.805801 -0.134173 -1.26072e-20)
(0.879551 -0.287247 4.34309e-20)
(0.939773 -0.436189 -1.73678e-20)
(0.97171 -0.550282 3.6677e-20)
(0.974192 -0.618008 -1.13384e-20)
(0.955415 -0.644975 -4.54399e-21)
(0.924589 -0.643275 -4.63928e-21)
(0.888267 -0.624437 1.17333e-20)
(0.850151 -0.596948 -1.09939e-20)
(0.811387 -0.566323 5.17644e-21)
(0.772297 -0.535225 -3.06086e-21)
(0.732412 -0.505485 5.91255e-21)
(0.687586 -0.480772 -3.44547e-21)
(0.633956 -0.46079 1.25221e-21)
(0.576876 -0.431077 -4.80352e-21)
(0.532064 -0.366753 4.19334e-21)
(0.515314 -0.2531 8.30142e-22)
(0.530706 -0.100624 5.51709e-22)
(0.571039 0.0628165 2.17358e-21)
(0.625247 0.210587 -1.90397e-21)
(0.682629 0.327806 2.49681e-21)
(0.73524 0.41123 -2.10145e-21)
(0.779393 0.464225 -4.70375e-22)
(0.814738 0.493109 -2.36681e-22)
(0.841093 0.508868 3.69344e-21)
(0.856508 0.527014 -1.06509e-21)
(0.859363 0.557145 -6.55828e-21)
(0.852131 0.588575 -9.75236e-22)
(0.84193 0.590387 2.07151e-21)
(0.822642 -0.136521 8.40201e-21)
(0.897484 -0.288202 -4.62904e-20)
(0.95755 -0.435387 1.74568e-20)
(0.987991 -0.547821 2.98561e-20)
(0.98838 -0.614529 -3.41789e-20)
(0.967506 -0.641162 8.30754e-21)
(0.934841 -0.639542 1.13275e-20)
(0.896983 -0.620929 -5.05954e-21)
(0.85765 -0.593625 -2.88393e-21)
(0.817979 -0.563074 -2.74052e-21)
(0.778176 -0.531944 3.94612e-21)
(0.737936 -0.501805 -7.54063e-22)
(0.69337 -0.476161 -6.582e-22)
(0.640157 -0.455601 -2.6393e-21)
(0.58266 -0.427232 1.46815e-21)
(0.535967 -0.366727 7.21839e-23)
(0.5163 -0.258005 -4.03322e-22)
(0.528891 -0.109478 -7.38049e-21)
(0.56726 0.0520909 3.5986e-22)
(0.620458 0.199939 1.48931e-21)
(0.677671 0.318524 1.09562e-22)
(0.730775 0.403872 3.07513e-21)
(0.775874 0.458774 -1.00182e-21)
(0.812395 0.489248 -2.07557e-21)
(0.83997 0.506223 2.77832e-21)
(0.856549 0.525317 3.59385e-21)
(0.86052 0.55634 -3.75269e-21)
(0.854392 0.588822 3.02946e-21)
(0.84527 0.591907 -3.33661e-21)
(0.839267 -0.138746 -4.02149e-20)
(0.915231 -0.288958 1.52068e-20)
(0.97507 -0.434276 1.94269e-20)
(1.00398 -0.54501 -2.68172e-20)
(1.00231 -0.610734 1.78112e-20)
(0.979412 -0.637103 -1.91341e-20)
(0.944984 -0.635635 1.15543e-20)
(0.905653 -0.617312 6.90439e-21)
(0.865144 -0.590246 -3.18543e-21)
(0.824599 -0.559808 -5.4818e-21)
(0.784111 -0.528688 4.98625e-21)
(0.743506 -0.498223 -3.028e-21)
(0.69919 -0.471696 3.42667e-21)
(0.646455 -0.450482 -3.72193e-21)
(0.588672 -0.423267 2.17849e-21)
(0.540241 -0.366413 -4.78061e-21)
(0.517713 -0.262606 8.95433e-21)
(0.527442 -0.118155 -9.74505e-21)
(0.563747 0.0413852 6.41766e-21)
(0.615839 0.18919 -4.19817e-21)
(0.672802 0.309074 5.42618e-21)
(0.72634 0.396316 -1.01498e-21)
(0.772346 0.453129 -2.38612e-21)
(0.810023 0.485212 2.12167e-21)
(0.838811 0.503418 -8.624e-22)
(0.856559 0.523457 1.27513e-21)
(0.861652 0.555364 2.06046e-21)
(0.856636 0.588907 -4.34549e-21)
(0.848593 0.593317 5.30697e-21)
(0.85572 -0.140866 -1.52305e-20)
(0.932806 -0.289523 2.76633e-20)
(0.992327 -0.432863 -1.81474e-20)
(1.01966 -0.541858 3.11019e-21)
(1.01597 -0.606633 -2.2401e-20)
(0.991128 -0.632809 3.63008e-20)
(0.955014 -0.631563 -3.70553e-21)
(0.914273 -0.61359 -5.21056e-21)
(0.87263 -0.586816 -6.02588e-21)
(0.831245 -0.55653 4.70034e-21)
(0.790099 -0.525458 -2.53416e-21)
(0.74912 -0.494736 1.54227e-21)
(0.705041 -0.467381 -5.06486e-21)
(0.652835 -0.445449 4.13632e-21)
(0.594893 -0.419199 1.69748e-21)
(0.544869 -0.365816 -2.19086e-21)
(0.519548 -0.266892 2.78818e-21)
(0.526365 -0.126632 -3.72661e-21)
(0.560505 0.0307188 -3.43128e-22)
(0.611392 0.178356 3.89289e-21)
(0.668025 0.299461 -3.69367e-21)
(0.721935 0.388567 -4.93491e-21)
(0.768809 0.447291 -1.53147e-21)
(0.807619 0.481 1.96465e-21)
(0.837613 0.500451 -5.34429e-22)
(0.856533 0.521435 5.96638e-21)
(0.862756 0.554214 -2.59055e-21)
(0.858855 0.588827 -5.42983e-21)
(0.851894 0.594613 2.1742e-21)
(0.872047 -0.142897 3.46381e-21)
(0.95022 -0.289902 4.50854e-20)
(1.00931 -0.431151 -1.21743e-20)