/*--------------------------------*- C++ -*----------------------------------*\
  =========                 |
  \\      /  F ield         | OpenFOAM: The Open Source CFD Toolbox
   \\    /   O peration     | Website:  https://openfoam.org
    \\  /    A nd           | Version:  7
     \\/     M anipulation  |
\*---------------------------------------------------------------------------*/
FoamFile
{
    version     2.0;
    format      ascii;
    class       volScalarField;
    location    "20";
    object      p;
}
// * * * * * * * * * * * * * * * * * * * * * * * * * * * * * * * * * * * * * //

dimensions      [0 2 -2 0 0 0 0];

internalField   nonuniform List<scalar> 
4575
(
-0.274362
-0.278327
-0.283137
-0.288436
-0.294115
-0.299586
-0.304215
-0.306983
-0.30677
-0.302245
-0.292218
-0.275794
-0.252723
-0.223629
-0.190038
-0.154018
-0.117747
-0.0831319
-0.0516192
-0.024105
-0.00108391
0.0173899
0.0315335
-0.274361
-0.278329
-0.283142
-0.288447
-0.294134
-0.299616
-0.304259
-0.307044
-0.30685
-0.302347
-0.292337
-0.275928
-0.252867
-0.223775
-0.190181
-0.154151
-0.11787
-0.0832417
-0.0517156
-0.0241924
-0.00115897
0.0173257
0.0314788
-0.274357
-0.278328
-0.283147
-0.288462
-0.294165
-0.29967
-0.304341
-0.307161
-0.307005
-0.302543
-0.292574
-0.276199
-0.253159
-0.224074
-0.190472
-0.154425
-0.11812
-0.0834666
-0.0519139
-0.0243684
-0.0013103
0.0171966
0.0313693
-0.274348
-0.278323
-0.283151
-0.288482
-0.294209
-0.299747
-0.30446
-0.307331
-0.307235
-0.302835
-0.292928
-0.276603
-0.253596
-0.224521
-0.190909
-0.154837
-0.118498
-0.0838056
-0.0522133
-0.0246328
-0.00153776
0.0170025
0.0312049
-0.274334
-0.278313
-0.283152
-0.288504
-0.294262
-0.299843
-0.304612
-0.307551
-0.307532
-0.303215
-0.29339
-0.277134
-0.254172
-0.225112
-0.191487
-0.155383
-0.119
-0.0842572
-0.0526127
-0.0249852
-0.00184115
0.0167434
0.0309854
-0.274314
-0.278299
-0.28315
-0.288527
-0.294321
-0.299955
-0.304792
-0.307815
-0.307893
-0.303678
-0.293955
-0.277785
-0.25488
-0.225841
-0.192203
-0.15606
-0.119623
-0.0848194
-0.053111
-0.0254248
-0.00222014
0.0164194
0.0307107
-0.274288
-0.278277
-0.283142
-0.288547
-0.294385
-0.30008
-0.304996
-0.308117
-0.308308
-0.304214
-0.294613
-0.278546
-0.255711
-0.2267
-0.193048
-0.156863
-0.120365
-0.0854899
-0.0537071
-0.0259504
-0.00267436
0.0160305
0.0303806
-0.274253
-0.278248
-0.283127
-0.288563
-0.294448
-0.300212
-0.305218
-0.30845
-0.308769
-0.304815
-0.295354
-0.279407
-0.256655
-0.22768
-0.194017
-0.157787
-0.12122
-0.0862657
-0.0544
-0.0265602
-0.00320333
0.0155767
0.029995
-0.27421
-0.278209
-0.283103
-0.288572
-0.294509
-0.300347
-0.305452
-0.308806
-0.309269
-0.305469
-0.296167
-0.280356
-0.257702
-0.228771
-0.195101
-0.158824
-0.122185
-0.087144
-0.0551872
-0.0272536
-0.00380648
0.0150582
0.0295535
-0.274157
-0.278159
-0.283068
-0.28857
-0.294561
-0.30048
-0.30569
-0.309177
-0.309796
-0.306166
-0.29704
-0.281383
-0.25884
-0.229964
-0.196292
-0.15997
-0.123255
-0.0881218
-0.0560661
-0.0280291
-0.00448321
0.0144751
0.0290562
-0.274093
-0.278097
-0.283019
-0.288555
-0.294603
-0.300605
-0.305927
-0.309555
-0.310342
-0.306895
-0.297961
-0.282474
-0.260058
-0.231248
-0.197581
-0.161215
-0.124424
-0.0891959
-0.0570336
-0.0288856
-0.00523282
0.0138277
0.0285029
0.039211
-0.274016
-0.27802
-0.282955
-0.288525
-0.294628
-0.300716
-0.306155
-0.309932
-0.310896
-0.307643
-0.298917
-0.283616
-0.261342
-0.232611
-0.198958
-0.162555
-0.125688
-0.0903604
-0.0580884
-0.0298221
-0.00605446
0.0131163
0.0278937
0.0386939
-0.273927
-0.277929
-0.282873
-0.288475
-0.294635
-0.30081
-0.306368
-0.310299
-0.311448
-0.308386
-0.299896
-0.284797
-0.262681
-0.234043
-0.200415
-0.16398
-0.127041
-0.0916127
-0.0592264
-0.030837
-0.00694718
0.0123414
0.0272286
0.0381283
-0.273824
-0.277821
-0.282772
-0.288405
-0.294619
-0.300881
-0.306559
-0.310648
-0.311988
-0.309106
-0.300886
-0.286004
-0.264062
-0.235533
-0.201942
-0.165485
-0.128476
-0.0929493
-0.060445
-0.0319282
-0.00790987
0.0115035
0.0265078
0.0375142
-0.273707
-0.277696
-0.282651
-0.28831
-0.294577
-0.300924
-0.306723
-0.310972
-0.312508
-0.309968
-0.301876
-0.287226
-0.265473
-0.237069
-0.20353
-0.167061
-0.129987
-0.094366
-0.0617417
-0.0330937
-0.00894128
0.0106035
0.0257317
0.0368517
-0.273575
-0.277553
-0.282507
-0.288191
-0.294506
-0.300936
-0.306854
-0.311264
-0.312999
-0.310669
-0.302855
-0.288449
-0.266904
-0.238642
-0.20517
-0.1687
-0.131571
-0.0958575
-0.0631133
-0.0343315
-0.01004
0.00964201
0.0249007
0.0361409
-0.273427
-0.277391
-0.282341
-0.288044
-0.294403
-0.300912
-0.306948
-0.311517
-0.313454
-0.311355
-0.303811
-0.289664
-0.268342
-0.240241
-0.206855
-0.170391
-0.133222
-0.0974197
-0.0645569
-0.0356392
-0.0112046
0.00862017
0.0240155
0.0353823
-0.273265
-0.27721
-0.282152
-0.287868
-0.294267
-0.300851
-0.307
-0.311727
-0.313865
-0.31201
-0.304736
-0.29086
-0.269778
-0.241857
-0.208569
-0.172138
-0.134933
-0.0990483
-0.066069
-0.0370145
-0.0124333
0.00753909
0.0230768
0.0345763
-0.273087
-0.27701
-0.281938
-0.287664
-0.294096
-0.300749
-0.307006
-0.311889
-0.314228
-0.312618
-0.30562
-0.292028
-0.271203
-0.243478
-0.210311
-0.173926
-0.136698
-0.100739
-0.0676464
-0.0384548
-0.0137243
0.00640005
0.0220855
0.0337234
-0.272894
-0.276791
-0.281701
-0.28743
-0.293889
-0.300605
-0.306965
-0.311997
-0.314536
-0.313172
-0.306458
-0.29316
-0.272605
-0.245096
-0.212073
-0.175749
-0.138513
-0.102487
-0.0692856
-0.0399576
-0.0150757
0.00520451
0.0210425
0.0328245
-0.272687
-0.276553
-0.28144
-0.287166
-0.293645
-0.300417
-0.306873
-0.31205
-0.314785
-0.313667
-0.307241
-0.294244
-0.273978
-0.246707
-0.213846
-0.177601
-0.140371
-0.104289
-0.0709831
-0.04152
-0.0164853
0.00395403
0.0199492
0.0318804
-0.272465
-0.276297
-0.281155
-0.286872
-0.293365
-0.300185
-0.306729
-0.312045
-0.314972
-0.314099
-0.307962
-0.295279
-0.275314
-0.2483
-0.215621
-0.179476
-0.142267
-0.106139
-0.0727354
-0.0431393
-0.017951
0.00265031
0.0188068
0.030892
-0.272229
-0.276024
-0.280848
-0.286549
-0.293048
-0.299908
-0.306533
-0.31198
-0.315094
-0.314463
-0.308618
-0.296256
-0.276607
-0.249868
-0.217394
-0.181368
-0.144196
-0.108034
-0.0745388
-0.0448125
-0.0194705
0.00129517
0.0176168
0.0298607
-0.271981
-0.275734
-0.280519
-0.286198
-0.292695
-0.299586
-0.306284
-0.311855
-0.315149
-0.314757
-0.309206
-0.29717
-0.27785
-0.251405
-0.219156
-0.183271
-0.146154
-0.109969
-0.0763898
-0.0465368
-0.0210413
-0.000109466
0.0163806
0.0287874
-0.27172
-0.275428
-0.280169
-0.28582
-0.292307
-0.299221
-0.305982
-0.311668
-0.315135
-0.314979
-0.30972
-0.298017
-0.279039
-0.252905
-0.220904
-0.18518
-0.148134
-0.111939
-0.0782847
-0.0483091
-0.0226611
-0.00156159
0.0150999
0.0276737
-0.275107
-0.2798
-0.285415
-0.291885
-0.298812
-0.305627
-0.311419
-0.315053
-0.315126
-0.310159
-0.298793
-0.280168
-0.254364
-0.222631
-0.187089
-0.150133
-0.113942
-0.08022
-0.0501264
-0.0243272
-0.00305912
0.0137765
0.0265209
-0.274772
-0.279411
-0.284985
-0.291431
-0.298363
-0.305222
-0.31111
-0.314901
-0.315198
-0.310521
-0.299496
-0.281234
-0.255776
-0.224333
-0.188994
-0.152146
-0.115972
-0.0821921
-0.0519856
-0.0260372
-0.00459989
0.0124121
0.0253305
-0.274424
-0.279005
-0.284532
-0.290944
-0.297872
-0.304766
-0.310741
-0.31468
-0.315195
-0.310804
-0.300122
-0.282233
-0.257138
-0.226005
-0.19089
-0.154168
-0.118025
-0.0841974
-0.0538836
-0.0277884
-0.00618173
0.0110086
0.0241041
-0.274063
-0.278583
-0.284056
-0.290428
-0.297343
-0.304261
-0.310313
-0.314394
-0.315117
-0.311007
-0.30067
-0.283162
-0.258446
-0.227643
-0.192773
-0.156195
-0.120099
-0.0862326
-0.0558175
-0.0295782
-0.0078024
0.00956785
0.0228432
-0.273691
-0.278145
-0.283559
-0.289884
-0.296777
-0.303709
-0.309828
-0.314045
-0.314963
-0.311131
-0.301139
-0.284021
-0.259698
-0.229243
-0.194639
-0.158224
-0.122188
-0.0882941
-0.0577843
-0.031404
-0.00945967
0.00809177
0.0215495
-0.273307
-0.277692
-0.283042
-0.289312
-0.296175
-0.303112
-0.309286
-0.313622
-0.314735
-0.311175
-0.301528
-0.284805
-0.26089
-0.230803
-0.196484
-0.160251
-0.124289
-0.0903786
-0.0597809
-0.0332631
-0.0111512
0.00658238
0.0202247
-0.272912
-0.277225
-0.282506
-0.288715
-0.295539
-0.302471
-0.30869
-0.31311
-0.314434
-0.311139
-0.301837
-0.285516
-0.26202
-0.232319
-0.198306
-0.162271
-0.1264
-0.0924827
-0.0618041
-0.0351529
-0.0128746
0.0050417
0.0188706
-0.272506
-0.276745
-0.281952
-0.288094
-0.29487
-0.301787
-0.308041
-0.312566
-0.314059
-0.311025
-0.302065
-0.286151
-0.263087
-0.233789
-0.2001
-0.164283
-0.128516
-0.0946041
-0.0638521
-0.0370713
-0.0146283
0.00347124
0.0174884
-0.272089
-0.276251
-0.281381
-0.287449
-0.294169
-0.301063
-0.307342
-0.311957
-0.313612
-0.310832
-0.302213
-0.286712
-0.264092
-0.235214
-0.201868
-0.166285
-0.130638
-0.0967422
-0.065924
-0.0390179
-0.0164114
0.0018718
0.016079
-0.271661
-0.275745
-0.280793
-0.286781
-0.293439
-0.300298
-0.306592
-0.311285
-0.313097
-0.310564
-0.302283
-0.287198
-0.265032
-0.23659
-0.203604
-0.168273
-0.13276
-0.098891
-0.0680143
-0.0409875
-0.0182198
0.000246873
0.0146453
-0.271223
-0.275228
-0.280192
-0.286095
-0.292683
-0.299501
-0.305797
-0.310559
-0.312517
-0.310222
-0.302275
-0.287604
-0.265898
-0.2379
-0.205288
-0.170222
-0.134856
-0.101027
-0.0701013
-0.0429614
-0.0200379
-0.00139109
0.0131968
-0.270776
-0.274701
-0.279579
-0.285393
-0.291905
-0.298671
-0.304961
-0.309779
-0.31187
-0.309803
-0.302182
-0.287925
-0.266682
-0.239138
-0.206913
-0.172127
-0.136923
-0.103145
-0.0721817
-0.0449365
-0.0218625
-0.00303889
0.0117369
-0.27414
-0.278923
-0.28464
-0.291065
-0.297769
-0.304058
-0.308904
-0.311125
-0.309295
-0.302019
-0.288205
-0.267465
-0.240418
-0.208618
-0.174142
-0.139117
-0.105397
-0.0743906
-0.0470285
-0.0237883
-0.00477072
0.0102097
-0.273517
-0.278197
-0.283804
-0.29013
-0.29676
-0.303047
-0.307923
-0.310289
-0.308724
-0.30184
-0.288534
-0.26837
-0.241894
-0.21058
-0.176453
-0.141624
-0.107957
-0.0768879
-0.0493778
-0.0259351
-0.00668619
0.00853409
-0.273021
-0.277638
-0.283172
-0.289426
-0.295997
-0.302198
-0.307175
-0.309624
-0.30822
-0.301593
-0.288636
-0.268887
-0.242843
-0.211923
-0.178107
-0.143487
-0.109925
-0.0788699
-0.051302
-0.0277486
-0.00835394
0.00703181
-0.272601
-0.277201
-0.282703
-0.288928
-0.295499
-0.301687
-0.306535
-0.308911
-0.307457
-0.300814
-0.287911
-0.268318
-0.242542
-0.211976
-0.17856
-0.144336
-0.111131
-0.0803695
-0.0530172
-0.0295978
-0.0102588
0.00514115
0.0169363
-0.271464
-0.275959
-0.281252
-0.287131
-0.293178
-0.298832
-0.303141
-0.304943
-0.302988
-0.296039
-0.283135
-0.263917
-0.238869
-0.209293
-0.176995
-0.143898
-0.111732
-0.0818586
-0.0552093
-0.0322957
-0.0132726
0.00197891
0.0137651
-0.269834
-0.274207
-0.27926
-0.284778
-0.290377
-0.295421
-0.299065
-0.300214
-0.297708
-0.29043
-0.277533
-0.258722
-0.234464
-0.20596
-0.174883
-0.143024
-0.112008
-0.0831252
-0.0572654
-0.0349274
-0.0162743
-0.00120972
0.0105407
-0.267505
-0.271746
-0.276544
-0.281679
-0.286754
-0.291182
-0.294152
-0.294649
-0.291611
-0.284038
-0.271193
-0.252846
-0.229443
-0.20209
-0.172324
-0.141798
-0.112025
-0.0842148
-0.0592131
-0.0375038
-0.0192592
-0.00440834
0.00728845
-0.264317
-0.268412
-0.272932
-0.277651
-0.282176
-0.285965
-0.288252
-0.288108
-0.284571
-0.276755
-0.264032
-0.246226
-0.223765
-0.197656
-0.169297
-0.140199
-0.111757
-0.0850967
-0.0610173
-0.0399884
-0.0221928
-0.00758715
0.00403214
-0.260207
-0.264138
-0.268356
-0.272639
-0.276608
-0.279751
-0.281367
-0.280616
-0.276634
-0.268652
-0.256136
-0.23896
-0.217525
-0.192743
-0.165868
-0.13827
-0.111223
-0.0857694
-0.0626609
-0.0423538
-0.0250425
-0.0107119
0.000804642
-0.255216
-0.25896
-0.262857
-0.266692
-0.270114
-0.272632
-0.273612
-0.272308
-0.267959
-0.259897
-0.247676
-0.231211
-0.210873
-0.187472
-0.162128
-0.13607
-0.110454
-0.0862401
-0.0641336
-0.0445783
-0.02778
-0.0137517
-0.002363
-0.249476
-0.25301
-0.256572
-0.259962
-0.262854
-0.264782
-0.265179
-0.263393
-0.25876
-0.250706
-0.23886
-0.223169
-0.203967
-0.181972
-0.158172
-0.133662
-0.109484
-0.0865197
-0.0654301
-0.0466455
-0.0303827
-0.016681
-0.00544476
-0.243168
-0.246473
-0.249699
-0.252653
-0.255038
-0.256424
-0.256304
-0.254112
-0.249277
-0.241307
-0.229898
-0.215016
-0.196962
-0.176364
-0.154087
-0.131103
-0.108346
-0.0866221
-0.0665495
-0.0485448
-0.0328338
-0.01948
-0.00842
-0.236473
-0.239541
-0.242435
-0.244974
-0.246887
-0.247785
-0.247216
-0.244695
-0.239731
-0.231909
-0.220976
-0.206914
-0.189991
-0.170752
-0.149952
-0.128446
-0.107072
-0.0865623
-0.0674947
-0.0502706
-0.0351225
-0.0221348
-0.0112733
-0.229539
-0.232372
-0.23495
-0.237103
-0.238587
-0.239054
-0.238107
-0.235327
-0.230299
-0.222671
-0.212235
-0.198984
-0.183152
-0.165213
-0.145823
-0.125732
-0.105687
-0.0863548
-0.0682711
-0.0518217
-0.0372428
-0.0246362
-0.0139939
-0.222478
-0.225084
-0.227369
-0.229174
-0.230276
-0.230372
-0.229114
-0.226141
-0.221101
-0.213701
-0.203767
-0.191302
-0.17651
-0.1598
-0.141741
-0.122991
-0.104214
-0.0860132
-0.0688859
-0.0532001
-0.0391925
-0.0269794
-0.0165747
-0.215362
-0.217759
-0.219778
-0.221274
-0.222046
-0.221829
-0.220321
-0.217213
-0.212207
-0.205058
-0.195624
-0.183911
-0.1701
-0.154542
-0.137732
-0.120244
-0.102668
-0.08555
-0.0693473
-0.05441
-0.0409728
-0.0291624
-0.0190119
-0.208243
-0.210448
-0.212231
-0.213458
-0.21395
-0.213476
-0.211776
-0.208585
-0.20365
-0.196768
-0.187823
-0.176826
-0.163935
-0.149454
-0.13381
-0.117506
-0.101064
-0.0849763
-0.0696641
-0.0554574
-0.0425865
-0.0311857
-0.0213036
-0.201154
-0.203188
-0.204764
-0.205761
-0.20602
-0.205341
-0.2035
-0.200269
-0.195436
-0.188833
-0.180365
-0.170047
-0.158017
-0.144538
-0.129981
-0.114784
-0.0994108
-0.0843023
-0.0698451
-0.0563491
-0.0440383
-0.0330515
-0.0234499
-0.194121
-0.196002
-0.1974
-0.198204
-0.198274
-0.197436
-0.195498
-0.192265
-0.18756
-0.181243
-0.173239
-0.163563
-0.152339
-0.139793
-0.126248
-0.112086
-0.0977174
-0.0835374
-0.0698993
-0.0570927
-0.0453336
-0.0347629
-0.0254518
-0.187163
-0.188911
-0.190156
-0.190801
-0.19072
-0.189764
-0.187768
-0.184567
-0.18001
-0.173984
-0.166428
-0.157361
-0.14689
-0.135214
-0.122611
-0.109416
-0.0959909
-0.0826901
-0.0698352
-0.0576956
-0.0464782
-0.0363239
-0.0273113
-0.1803
-0.181931
-0.183048
-0.183563
-0.183366
-0.182327
-0.180306
-0.177163
-0.172772
-0.167039
-0.159917
-0.151426
-0.141661
-0.130794
-0.119069
-0.106777
-0.0942378
-0.0817686
-0.0696614
-0.0581659
-0.0474787
-0.0377391
-0.0290309
-0.173547
-0.175076
-0.176086
-0.176498
-0.176214
-0.175124
-0.173106
-0.170044
-0.165831
-0.160391
-0.153689
-0.145743
-0.136639
-0.126528
-0.11562
-0.104171
-0.092464
-0.0807807
-0.0693863
-0.0585113
-0.0483415
-0.0390133
-0.0306138
-0.166919
-0.168361
-0.169282
-0.169613
-0.169269
-0.168153
-0.166163
-0.163199
-0.159175
-0.154027
-0.147728
-0.140299
-0.131815
-0.122408
-0.112262
-0.101602
-0.0906746
-0.0797335
-0.0690177
-0.0587394
-0.0490734
-0.0401518
-0.0320636
-0.16043
-0.161796
-0.162645
-0.162914
-0.162531
-0.161412
-0.159469
-0.156619
-0.15279
-0.14793
-0.14202
-0.13508
-0.127177
-0.118428
-0.108994
-0.0990696
-0.0888746
-0.0786339
-0.0685635
-0.0588581
-0.0496812
-0.0411601
-0.033384
-0.154091
-0.155391
-0.156182
-0.156408
-0.156004
-0.1549
-0.153021
-0.150296
-0.146665
-0.142089
-0.136552
-0.130075
-0.122719
-0.114584
-0.105813
-0.096577
-0.0870686
-0.0774883
-0.068031
-0.0588746
-0.0501716
-0.0420437
-0.0345793
-0.147914
-0.149157
-0.149901
-0.150097
-0.149689
-0.148614
-0.146811
-0.144219
-0.14079
-0.136491
-0.131312
-0.125274
-0.11843
-0.11087
-0.102719
-0.0941253
-0.0852608
-0.076303
-0.0674275
-0.0587964
-0.0505516
-0.0428084
-0.0356539
-0.141906
-0.1431
-0.143808
-0.143986
-0.143585
-0.142553
-0.140835
-0.138383
-0.135155
-0.131126
-0.12629
-0.120666
-0.114304
-0.107282
-0.0997082
-0.091716
-0.083455
-0.0750837
-0.0667596
-0.0586306
-0.0508277
-0.0434602
-0.0366125
-0.136077
-0.137226
-0.137906
-0.138076
-0.137693
-0.136713
-0.135088
-0.132779
-0.12975
-0.125983
-0.121475
-0.116243
-0.110333
-0.103814
-0.0967805
-0.0893501
-0.081655
-0.0738358
-0.0660341
-0.0583841
-0.0510068
-0.0440049
-0.03746
-0.130431
-0.131542
-0.1322
-0.13237
-0.132013
-0.131091
-0.129565
-0.127399
-0.124568
-0.121054
-0.116858
-0.111997
-0.106511
-0.100462
-0.0939339
-0.0870289
-0.079864
-0.0725645
-0.065257
-0.0580636
-0.0510954
-0.0444486
-0.0382014
-0.124974
-0.126051
-0.126693
-0.126868
-0.126543
-0.125685
-0.12426
-0.122239
-0.119599
-0.11633
-0.112431
-0.10792
-0.102832
-0.0972237
-0.0911672
-0.0847533
-0.0780854
-0.0712746
-0.0644345
-0.0576756
-0.0510999
-0.0447971
-0.0388418
-0.11971
-0.120756
-0.121386
-0.121571
-0.121282
-0.120491
-0.119168
-0.11729
-0.114838
-0.111802
-0.108186
-0.104005
-0.0992917
-0.0940947
-0.088479
-0.0825243
-0.0763219
-0.0699707
-0.0635722
-0.0572264
-0.0510266
-0.0450564
-0.0393864
-0.114641
-0.115658
-0.116279
-0.116478
-0.116228
-0.115506
-0.114286
-0.112547
-0.110276
-0.107464
-0.104116
-0.100246
-0.0958839
-0.0910721
-0.0858683
-0.0803429
-0.0745766
-0.0686571
-0.0626755
-0.056722
-0.0508819
-0.0452325
-0.0398405
-0.109769
-0.110759
-0.111373
-0.111587
-0.111379
-0.110726
-0.109607
-0.108005
-0.105908
-0.10331
-0.100215
-0.0966382
-0.0926046
-0.088153
-0.0833341
-0.0782099
-0.0728519
-0.067338
-0.0617497
-0.0561682
-0.0506715
-0.045331
-0.0402093
-0.105095
-0.106059
-0.106668
-0.106899
-0.106732
-0.106147
-0.105128
-0.103658
-0.101727
-0.0993321
-0.0964772
-0.0931753
-0.0894498
-0.0853349
-0.0808754
-0.0761262
-0.0711503
-0.0660172
-0.0607996
-0.0555708
-0.0504016
-0.0453579
-0.0404983
-0.100617
-0.101557
-0.102161
-0.102409
-0.102283
-0.101766
-0.100843
-0.0994993
-0.0977277
-0.0955253
-0.0928963
-0.0898528
-0.0864157
-0.0826154
-0.0784916
-0.0740926
-0.0694744
-0.0646985
-0.0598301
-0.054935
-0.0500777
-0.0453186
-0.0407126
-0.096336
-0.0972517
-0.0978511
-0.0981164
-0.0980309
-0.0975792
-0.0967477
-0.0955253
-0.0939048
-0.0918843
-0.0894678
-0.0866665
-0.0834991
-0.0799926
-0.0761819
-0.07211
-0.0678263
-0.0633854
-0.0588456
-0.054266
-0.0497053
-0.0452188
-0.0408575
-0.0922489
-0.0931408
-0.0937358
-0.0940175
-0.0939707
-0.0935817
-0.0928382
-0.0917307
-0.0902531
-0.0884038
-0.0861869
-0.0836124
-0.0806969
-0.0774644
-0.073946
-0.0701793
-0.0662082
-0.0620813
-0.0578504
-0.0535689
-0.0492898
-0.0450639
-0.0409382
-0.0883536
-0.0892219
-0.0898122
-0.0901092
-0.0900991
-0.0897696
-0.0891095
-0.0881107
-0.0867677
-0.0850794
-0.0830494
-0.0806868
-0.0780064
-0.0750294
-0.0717832
-0.0683012
-0.0646222
-0.0607893
-0.0568488
-0.0528485
-0.0488364
-0.044859
-0.0409598
-0.0846473
-0.085492
-0.086077
-0.0863879
-0.0864123
-0.0861387
-0.0855574
-0.0846607
-0.0834441
-0.0819065
-0.0800512
-0.0778863
-0.0754251
-0.072686
-0.0696935
-0.0664768
-0.0630704
-0.0595126
-0.0558446
-0.0521093
-0.0483502
-0.0446095
-0.0409274
-0.0811265
-0.0819477
-0.0825265
-0.0828499
-0.0829061
-0.082685
-0.0821773
-0.0813763
-0.0802779
-0.078881
-0.0771887
-0.075208
-0.0729506
-0.070433
-0.0676764
-0.0647069
-0.0615548
-0.0582542
-0.0548417
-0.0513558
-0.0478359
-0.0443203
-0.040846
-0.0777875
-0.0785851
-0.0791571
-0.0794912
-0.0795767
-0.0794042
-0.0789651
-0.0782533
-0.0772649
-0.0759992
-0.0744584
-0.072649
-0.0705811
-0.0682692
-0.065732
-0.0629924
-0.0600773
-0.0570168
-0.0538437
-0.0505924
-0.0472982
-0.0439963
-0.0407204
-0.0746264
-0.0754004
-0.0759647
-0.0763078
-0.0764197
-0.0762921
-0.0759166
-0.0752874
-0.0744014
-0.0732573
-0.0718573
-0.0702068
-0.0683147
-0.0661937
-0.0638601
-0.0613343
-0.0586398
-0.0558034
-0.0528541
-0.049823
-0.0467418
-0.0436423
-0.0405555
-0.071639
-0.0723894
-0.0729452
-0.0732955
-0.073431
-0.0733446
-0.0730276
-0.0724749
-0.0716834
-0.0706521
-0.0693824
-0.0678791
-0.0661498
-0.0642056
-0.0620609
-0.0597334
-0.0572441
-0.0546164
-0.0518765
-0.0490518
-0.0461709
-0.0432628
-0.0403558
-0.0688209
-0.0695478
-0.0700944
-0.0704504
-0.0706061
-0.0705577
-0.0702943
-0.0698118
-0.0691076
-0.0681803
-0.067031
-0.0656637
-0.0640849
-0.0623043
-0.0603345
-0.0581909
-0.0558921
-0.0534587
-0.050914
-0.0482825
-0.04559
-0.0428625
-0.040126
-0.0661677
-0.0668714
-0.0674084
-0.0677692
-0.0679471
-0.0679281
-0.0677127
-0.0672946
-0.0666705
-0.0658389
-0.0648006
-0.0635587
-0.0621188
-0.0604893
-0.0586811
-0.0567078
-0.0545855
-0.0523327
-0.0499698
-0.0475189
-0.045003
-0.0424457
-0.0398706
-0.063675
-0.0643556
-0.0648819
-0.0652451
-0.0654366
-0.0654492
-0.0652786
-0.0649196
-0.064369
-0.0636253
-0.062689
-0.0615624
-0.0602504
-0.0587602
-0.0571011
-0.0552851
-0.0533262
-0.0512409
-0.0490472
-0.0467646
-0.044414
-0.0420166
-0.0395939
-0.0613383
-0.0619961
-0.0625112
-0.0628751
-0.0630798
-0.0631195
-0.062989
-0.0626838
-0.0622002
-0.061537
-0.060694
-0.0596733
-0.0584788
-0.0571166
-0.0555949
-0.0539239
-0.0521161
-0.0501858
-0.048149
-0.0460232
-0.0438269
-0.0415794
-0.0393002
-0.0591535
-0.0597888
-0.0602922
-0.0606557
-0.0608721
-0.0609354
-0.0608409
-0.0605841
-0.0601615
-0.0595716
-0.0588139
-0.0578901
-0.0568032
-0.0555585
-0.0541629
-0.0526254
-0.0509568
-0.0491697
-0.0472783
-0.0452981
-0.0432456
-0.0411382
-0.0389937
-0.0571164
-0.0577299
-0.0582214
-0.0585835
-0.0588095
-0.0588935
-0.058831
-0.0586178
-0.0582505
-0.0577271
-0.0570471
-0.0562116
-0.0552231
-0.0540859
-0.0528059
-0.0513909
-0.0498504
-0.0481952
-0.046438
-0.0445926
-0.0426737
-0.040697
-0.0386785
-0.0552233
-0.0558156
-0.0562951
-0.0566549
-0.0568886
-0.0569907
-0.0569566
-0.0567825
-0.0564649
-0.0560017
-0.0553922
-0.054637
-0.0537381
-0.0526989
-0.0515246
-0.0502217
-0.0487985
-0.0472646
-0.045631
-0.04391
-0.0421148
-0.0402594
-0.0383585
-0.0534706
-0.0540424
-0.0545099
-0.0548665
-0.0551064
-0.055224
-0.0552151
-0.0550758
-0.0548028
-0.0543939
-0.0538481
-0.0531657
-0.052348
-0.051398
-0.0503198
-0.0491192
-0.0478033
-0.0463804
-0.0448602
-0.0432536
-0.0415725
-0.0398295
-0.0380377
-0.0518549
-0.0524072
-0.0528628
-0.0532157
-0.0534602
-0.0535911
-0.0536042
-0.0534958
-0.0532627
-0.0529025
-0.052414
-0.0517972
-0.0510529
-0.0501836
-0.0491927
-0.048085
-0.0468666
-0.0455449
-0.0441284
-0.0426267
-0.0410504
-0.0394108
-0.0377199
-0.0503735
-0.0509071
-0.0513512
-0.0516998
-0.0519477
-0.0520899
-0.0521222
-0.052041
-0.0518433
-0.0515266
-0.0510894
-0.0505314
-0.0498533
-0.0490566
-0.0481444
-0.0471207
-0.0459907
-0.0447608
-0.0434386
-0.0420325
-0.0405519
-0.0390071
-0.0374088
-0.0490238
-0.04954
-0.0499728
-0.0503169
-0.050567
-0.0507187
-0.0507676
-0.0507104
-0.0505439
-0.0502657
-0.0498742
-0.0493687
-0.0487495
-0.048018
-0.0471764
-0.0462282
-0.0451778
-0.0440307
-0.0427937
-0.0414741
-0.0400805
-0.0386219
-0.0371083
-0.047804
-0.0483038
-0.048726
-0.0490653
-0.049317
-0.0494764
-0.0495396
-0.0495031
-0.049364
-0.0491197
-0.0487685
-0.0483095
-0.0477428
-0.0470691
-0.0462904
-0.0454095
-0.0444302
-0.0433573
-0.0421966
-0.0409549
-0.0396395
-0.0382589
-0.0368219
-0.0467127
-0.0471975
-0.0476097
-0.0479443
-0.0481967
-0.0483624
-0.0484377
-0.0484192
-0.0483038
-0.0480891
-0.0477732
-0.047355
-0.0468343
-0.0462116
-0.0454884
-0.044667
-0.0437506
-0.0427435
-0.0416507
-0.0404781
-0.0392326
-0.0379216
-0.0365532
-0.0457493
-0.0462205
-0.0466235
-0.0469535
-0.047206
-0.0473769
-0.0474624
-0.0474591
-0.047364
-0.0471748
-0.0468894
-0.0465066
-0.0460259
-0.0454476
-0.0447727
-0.0440032
-0.0431419
-0.0421923
-0.041159
-0.0400473
-0.0388632
-0.0376136
-0.0363058
-0.0449138
-0.0453731
-0.0457678
-0.0460935
-0.0463458
-0.0465208
-0.0466146
-0.046624
-0.0465462
-0.0463786
-0.0461191
-0.0457665
-0.0453199
-0.0447795
-0.0441461
-0.0434212
-0.0426071
-0.0417071
-0.040725
-0.0396658
-0.0385349
-0.0373384
-0.0360833
-0.0442075
-0.0446564
-0.045044
-0.0453657
-0.0456176
-0.0457957
-0.0458962
-0.0459161
-0.0458525
-0.0457028
-0.0454649
-0.0451373
-0.0447193
-0.0442106
-0.0436118
-0.0429242
-0.0421498
-0.0412913
-0.0403524
-0.0393374
-0.0382513
-0.0370998
-0.0358892
-0.0436325
-0.0440728
-0.0444543
-0.0447727
-0.045024
-0.0452044
-0.0453103
-0.0453385
-0.0452861
-0.0451507
-0.0449301
-0.0446227
-0.0442276
-0.0437445
-0.0431736
-0.0425162
-0.0417738
-0.040949
-0.0400451
-0.0390659
-0.0380162
-0.0369012
-0.0357269
-0.043192
-0.0436257
-0.0440024
-0.0443182
-0.044569
-0.044751
-0.0448608
-0.0448952
-0.0448513
-0.0447267
-0.0445192
-0.0442271
-0.0438494
-0.0433857
-0.0428361
-0.0422016
-0.0414836
-0.0406845
-0.0398072
-0.0388555
-0.0378335
-0.0367465
-0.0356001
-0.042891
-0.0433202
-0.0436937
-0.0440076
-0.0442579
-0.044441
-0.0445534
-0.0445919
-0.0445538
-0.0444364
-0.0442378
-0.043956
-0.0435901
-0.0431396
-0.0426045
-0.0419855
-0.0412842
-0.0405026
-0.0396435
-0.0387104
-0.0377074
-0.0366395
-0.0355121
-0.0427361
-0.0431629
-0.0435347
-0.0438476
-0.0440978
-0.0442814
-0.044395
-0.0444357
-0.0444005
-0.0442869
-0.0440927
-0.0438163
-0.0434565
-0.0430127
-0.042485
-0.041874
-0.0411812
-0.0404086
-0.0395588
-0.0386353
-0.0376421
-0.0365841
-0.0354664
-0.0427359
-0.0431628
-0.0435347
-0.0438477
-0.044098
-0.0442817
-0.0443955
-0.0444362
-0.0444011
-0.0442877
-0.0440936
-0.0438173
-0.0434576
-0.0430139
-0.0424863
-0.0418755
-0.0411827
-0.0404102
-0.0395605
-0.0386371
-0.037644
-0.0365859
-0.0428908
-0.0433201
-0.0436937
-0.0440077
-0.0442581
-0.0444414
-0.0445538
-0.0445924
-0.0445544
-0.0444372
-0.0442387
-0.0439571
-0.0435913
-0.0431408
-0.0426058
-0.041987
-0.0412857
-0.0405042
-0.0396452
-0.0387121
-0.0377093
-0.0366414
-0.0431917
-0.0436255
-0.0440024
-0.0443183
-0.0445692
-0.0447514
-0.0448613
-0.0448957
-0.044852
-0.0447275
-0.0445201
-0.0442281
-0.0438505
-0.0433869
-0.0428375
-0.042203
-0.0414852
-0.0406862
-0.039809
-0.0388573
-0.0378354
-0.0367485
-0.0436322
-0.0440727
-0.0444543
-0.0447728
-0.0450243
-0.0452048
-0.0453107
-0.045339
-0.0452868
-0.0451515
-0.044931
-0.0446238
-0.0442288
-0.0437458
-0.043175
-0.0425177
-0.0417754
-0.0409507
-0.0400469
-0.0390678
-0.0380181
-0.0369032
-0.0442073
-0.0446563
-0.0450439
-0.0453658
-0.0456178
-0.045796
-0.0458967
-0.0459167
-0.0458532
-0.0457036
-0.0454658
-0.0451384
-0.0447205
-0.0442119
-0.0436133
-0.0429257
-0.0421514
-0.0412931
-0.0403543
-0.0393393
-0.0382532
-0.0371018
-0.0449136
-0.0453729
-0.0457678
-0.0460936
-0.046346
-0.0465211
-0.046615
-0.0466246
-0.0465469
-0.0463794
-0.0461201
-0.0457676
-0.0453212
-0.0447809
-0.0441476
-0.0434228
-0.0426088
-0.0417089
-0.0407269
-0.0396678
-0.0385369
-0.0373405
-0.0457489
-0.0462203
-0.0466235
-0.0469536
-0.0472062
-0.0473773
-0.0474628
-0.0474597
-0.0473648
-0.0471757
-0.0468905
-0.0465078
-0.0460272
-0.045449
-0.0447743
-0.0440049
-0.0431437
-0.0421942
-0.041161
-0.0400493
-0.0388653
-0.0376157
-0.0467123
-0.0471973
-0.0476096
-0.0479443
-0.0481968
-0.0483627
-0.0484382
-0.0484198
-0.0483046
-0.04809
-0.0477743
-0.0473562
-0.0468357
-0.0462131
-0.04549
-0.0446688
-0.0437525
-0.0427455
-0.0416527
-0.0404803
-0.0392348
-0.0379238
-0.0478036
-0.0483035
-0.0487259
-0.0490653
-0.0493171
-0.0494767
-0.04954
-0.0495037
-0.0493648
-0.0491207
-0.0487696
-0.0483108
-0.0477442
-0.0470707
-0.0462922
-0.0454114
-0.0444322
-0.0433594
-0.0421988
-0.0409571
-0.0396418
-0.0382612
-0.0490233
-0.0495396
-0.0499726
-0.0503168
-0.0505672
-0.050719
-0.0507681
-0.050711
-0.0505447
-0.0502667
-0.0498754
-0.0493701
-0.0487511
-0.0480197
-0.0471783
-0.0462302
-0.0451799
-0.0440329
-0.042796
-0.0414765
-0.0400829
-0.0386244
-0.0503729
-0.0509067
-0.0513509
-0.0516997
-0.0519478
-0.0520902
-0.0521227
-0.0520417
-0.0518442
-0.0515277
-0.0510907
-0.0505329
-0.0498549
-0.0490584
-0.0481464
-0.0471228
-0.045993
-0.0447632
-0.043441
-0.042035
-0.0405545
-0.0390097
-0.0518543
-0.0524067
-0.0528625
-0.0532156
-0.0534602
-0.0535914
-0.0536047
-0.0534965
-0.0532636
-0.0529036
-0.0524154
-0.0517988
-0.0510547
-0.0501856
-0.0491948
-0.0480873
-0.046869
-0.0455474
-0.044131
-0.0426294
-0.0410531
-0.0394135
-0.0534698
-0.0540418
-0.0545095
-0.0548664
-0.0551064
-0.0552243
-0.0552156
-0.0550765
-0.0548038
-0.0543951
-0.0538496
-0.0531674
-0.0523499
-0.0514001
-0.0503221
-0.0491217
-0.0478059
-0.046383
-0.044863
-0.0432565
-0.0415754
-0.0398323
-0.0552225
-0.055815
-0.0562946
-0.0566546
-0.0568886
-0.0569909
-0.0569571
-0.0567832
-0.0564659
-0.056003
-0.0553938
-0.0546388
-0.0537401
-0.0527012
-0.0515271
-0.0502244
-0.0488013
-0.0472675
-0.045634
-0.043913
-0.0421178
-0.0402625
-0.0571155
-0.0577292
-0.0582209
-0.0585832
-0.0588095
-0.0588938
-0.0588316
-0.0586186
-0.0582516
-0.0577285
-0.0570488
-0.0562136
-0.0552253
-0.0540884
-0.0528086
-0.0513938
-0.0498534
-0.0481983
-0.0464412
-0.0445958
-0.0426769
-0.0407002
-0.0591524
-0.059788
-0.0602916
-0.0606554
-0.060872
-0.0609356
-0.0608414
-0.0605849
-0.0601627
-0.0595731
-0.0588158
-0.0578922
-0.0568057
-0.0555612
-0.0541659
-0.0526286
-0.0509601
-0.0491731
-0.0472818
-0.0453015
-0.043249
-0.0411416
-0.061337
-0.0619951
-0.0625104
-0.0628746
-0.0630797
-0.0631197
-0.0629896
-0.0626847
-0.0622015
-0.0615386
-0.060696
-0.0596757
-0.0584815
-0.0571196
-0.0555981
-0.0539273
-0.0521197
-0.0501895
-0.0481527
-0.0460269
-0.0438306
-0.0415831
-0.0636735
-0.0643544
-0.0648811
-0.0652445
-0.0654365
-0.0654495
-0.0652792
-0.0649206
-0.0643704
-0.0636271
-0.0626912
-0.061565
-0.0602534
-0.0587634
-0.0571046
-0.0552888
-0.0533302
-0.0512449
-0.0490512
-0.0467687
-0.044418
-0.0420205
-0.066166
-0.0668701
-0.0674073
-0.0677686
-0.067947
-0.0679283
-0.0677133
-0.0672957
-0.066672
-0.0658409
-0.064803
-0.0635615
-0.0621221
-0.0604929
-0.058685
-0.0567119
-0.0545898
-0.0523371
-0.0499742
-0.0475232
-0.0450072
-0.0424498
-0.068819
-0.0695462
-0.0700932
-0.0704495
-0.0706056
-0.0705578
-0.0702949
-0.0698129
-0.0691092
-0.0681824
-0.0670337
-0.0656668
-0.0640885
-0.0623083
-0.0603388
-0.0581955
-0.0558967
-0.0534635
-0.0509187
-0.0482872
-0.0455945
-0.0428669
-0.0716368
-0.0723875
-0.0729437
-0.0732945
-0.0734304
-0.0733446
-0.0730282
-0.0724761
-0.0716852
-0.0706544
-0.0693854
-0.0678826
-0.0661538
-0.06421
-0.0620656
-0.0597384
-0.0572492
-0.0546217
-0.0518817
-0.0490568
-0.0461758
-0.0432675
-0.0746239
-0.0753982
-0.075963
-0.0763066
-0.076419
-0.076292
-0.0759172
-0.0752887
-0.0744033
-0.0732599
-0.0718606
-0.0702107
-0.0683191
-0.0661985
-0.0638654
-0.0613398
-0.0586454
-0.0558091
-0.0528598
-0.0498285
-0.046747
-0.0436472
-0.0777846
-0.0785826
-0.0791551
-0.0794898
-0.0795758
-0.0794041
-0.0789657
-0.0782546