/*--------------------------------*- C++ -*----------------------------------*\
  =========                 |
  \\      /  F ield         | OpenFOAM: The Open Source CFD Toolbox
   \\    /   O peration     | Website:  https://openfoam.org
    \\  /    A nd           | Version:  7
     \\/     M anipulation  |
\*---------------------------------------------------------------------------*/
FoamFile
{
    version     2.0;
    format      ascii;
    class       volVectorField;
    location    "20";
    object      U;
}
// * * * * * * * * * * * * * * * * * * * * * * * * * * * * * * * * * * * * * //

dimensions      [0 1 -1 0 0 0 0];

internalField   nonuniform List<vector> 
4575
(
(-0.280664 0.00164218 5.05679e-22)
(-0.302462 0.00168611 -2.14249e-22)
(-0.325177 0.0016989 -2.60111e-22)
(-0.348992 0.00166897 2.68774e-22)
(-0.372944 0.00157963 -2.93178e-22)
(-0.396429 0.00141919 -3.59607e-22)
(-0.41811 0.00117554 8.34449e-23)
(-0.436702 0.00084315 4.56327e-22)
(-0.450478 0.000419301 2.86221e-22)
(-0.457698 -8.69966e-05 -9.50159e-22)
(-0.456528 -0.000664727 5.77661e-22)
(-0.445475 -0.00127867 -2.36776e-22)
(-0.423445 -0.00188718 -1.35258e-22)
(-0.390275 -0.00243773 1.98836e-22)
(-0.346723 -0.00288662 1.43176e-22)
(-0.294374 -0.00320935 -5.34842e-23)
(-0.235224 -0.00340445 -1.46877e-22)
(-0.171359 -0.00348612 -1.17365e-23)
(-0.104688 -0.0034752 -9.84975e-23)
(-0.036889 -0.00339485 4.07246e-23)
(0.0306317 -0.00326265 -1.10303e-23)
(0.0967313 -0.00309628 -1.27831e-23)
(0.160515 -0.00290899 6.06703e-23)
(-0.279233 0.00477211 2.24578e-21)
(-0.300884 0.00495253 -7.65278e-23)
(-0.323444 0.00505824 -1.4641e-21)
(-0.347094 0.00505275 1.1983e-21)
(-0.370876 0.004882 -2.29422e-21)
(-0.394187 0.00450487 2.29322e-21)
(-0.415693 0.00387682 1.88271e-23)
(-0.434113 0.00297102 -4.09487e-22)
(-0.447728 0.00176942 -1.78075e-21)
(-0.454801 0.000286363 2.36793e-21)
(-0.453505 -0.00144551 -1.7267e-21)
(-0.442352 -0.00333103 1.6725e-21)
(-0.420251 -0.00524023 -2.30344e-22)
(-0.387043 -0.00700783 -2.1271e-21)
(-0.343485 -0.00848958 1.56489e-21)
(-0.291164 -0.00959867 -7.46923e-22)
(-0.232072 -0.0103176 5.73759e-22)
(-0.168291 -0.0106798 -1.62725e-23)
(-0.101725 -0.0107417 -2.11583e-23)
(-0.034046 -0.0105656 9.87043e-23)
(0.0333441 -0.010206 -2.28509e-23)
(0.0993063 -0.00971493 -1.28675e-22)
(0.162949 -0.00913565 2.07828e-22)
(-0.276386 0.0078672 4.03127e-21)
(-0.297746 0.00818272 -3.65016e-21)
(-0.319998 0.00838048 -8.71387e-22)
(-0.343323 0.00839916 1.83584e-23)
(-0.366767 0.00814751 4.85224e-21)
(-0.38973 0.00755505 -2.2778e-23)
(-0.410889 0.00654497 -1.60509e-21)
(-0.428968 0.00506919 1.035e-21)
(-0.442259 0.00309425 -1.03231e-21)
(-0.449039 0.000637286 1.87701e-23)
(-0.44749 -0.00223981 3.55036e-23)
(-0.436135 -0.00539081 -4.57421e-22)
(-0.41389 -0.00859479 -1.5398e-22)
(-0.380601 -0.011574 -1.51898e-22)
(-0.33703 -0.0140838 1.76524e-21)
(-0.284761 -0.0159751 -1.22608e-21)
(-0.225782 -0.0172144 2.49947e-23)
(-0.162167 -0.0178546 -3.97992e-22)
(-0.0958085 -0.0179875 2.73574e-22)
(-0.0283693 -0.0177146 1.7238e-23)
(0.0387592 -0.0171273 5.73898e-23)
(0.104446 -0.0163115 5.90247e-23)
(0.167805 -0.0153407 -1.19876e-23)
(-0.272145 0.0109048 3.51309e-21)
(-0.293074 0.0113531 -3.70389e-21)
(-0.314868 0.0116414 2.77843e-21)
(-0.337709 0.0116838 -5.2839e-21)
(-0.360652 0.0113521 2.47394e-21)
(-0.383101 0.0105465 -1.23863e-21)
(-0.403744 0.00915835 1.90701e-21)
(-0.421317 0.0071183 -3.31957e-21)
(-0.434129 0.00437755 1.96198e-21)
(-0.440473 0.000957126 1.29926e-21)
(-0.438551 -0.00305665 1.18773e-21)
(-0.426898 -0.00746287 1.1418e-21)
(-0.404441 -0.0119518 -2.52016e-21)
(-0.371035 -0.0161336 -1.34619e-21)
(-0.327444 -0.0196635 3.38194e-22)
(-0.275254 -0.0223301 1.55981e-21)
(-0.216444 -0.0240842 1.33995e-21)
(-0.153075 -0.0249981 -3.16941e-22)
(-0.087026 -0.0251991 -1.48374e-23)
(-0.0199425 -0.0248279 -1.51443e-22)
(0.0467975 -0.0240119 -1.13224e-23)
(0.112074 -0.0228716 -6.5746e-23)
(0.175013 -0.0215099 4.43048e-22)
(-0.266543 0.0138628 2.90072e-21)
(-0.286903 0.0144407 -1.80992e-21)
(-0.308096 0.0148177 3.05276e-21)
(-0.330302 0.0148832 -1.1346e-21)
(-0.352585 0.0144725 1.01084e-21)
(-0.374358 0.0134571 -4.5254e-21)
(-0.394324 0.0116963 5.80955e-21)
(-0.411235 0.00909991 2.80071e-22)
(-0.42342 0.00560381 -1.91174e-21)
(-0.429195 0.00123306 -4.41192e-21)
(-0.426787 -0.00390416 9.08406e-22)
(-0.414747 -0.00955125 -1.53479e-21)
(-0.392018 -0.0153114 1.86257e-21)
(-0.358464 -0.0206835 -3.77355e-22)
(-0.314854 -0.0252224 -4.34948e-22)
(-0.262772 -0.0286549 3.68852e-22)
(-0.204187 -0.0309162 8.98891e-22)
(-0.141145 -0.0320982 2.56463e-22)
(-0.075503 -0.0323633 -1.07507e-23)
(-0.00888687 -0.0318915 1.34938e-22)
(0.0573435 -0.030846 -9.12648e-23)
(0.122083 -0.0293813 2.19162e-22)
(0.184471 -0.0276296 -1.70714e-22)
(-0.259622 0.0167204 -5.61956e-21)
(-0.279284 0.0174238 2.35216e-21)
(-0.299737 0.0178869 -4.05098e-23)
(-0.321162 0.0179748 -6.57545e-21)
(-0.342636 0.0174868 5.57674e-21)
(-0.36358 0.0162656 -9.07106e-22)
(-0.382717 0.0141393 -2.4773e-22)
(-0.398817 0.0109968 7.21051e-21)
(-0.410238 0.00675874 -5.37589e-21)
(-0.415322 0.00145387 4.79642e-21)
(-0.412325 -0.00478921 -1.67808e-21)
(-0.399819 -0.0116589 -2.96853e-21)
(-0.376767 -0.0186729 3.78531e-21)
(-0.343041 -0.0252196 -2.30579e-21)
(-0.299419 -0.0307538 -1.47732e-21)
(-0.247478 -0.0349406 -6.39776e-22)
(-0.189177 -0.0376998 -1.93283e-21)
(-0.12654 -0.0391428 6.91934e-22)
(-0.0613996 -0.0394672 -5.86333e-22)
(0.00464318 -0.0388925 2.09884e-22)
(0.07025 -0.0376163 2.44252e-22)
(0.134334 -0.0358274 -6.30481e-23)
(0.19605 -0.0336871 -1.96712e-22)
(-0.251431 0.0194578 -7.62223e-21)
(-0.270272 0.0202819 4.37699e-21)
(-0.289857 0.020828 -7.17791e-21)
(-0.310364 0.0209376 -1.65628e-21)
(-0.330888 0.0203744 2.49644e-21)
(-0.350861 0.0189525 -2.66544e-21)
(-0.369027 0.0164693 -2.11255e-21)
(-0.384181 0.0127934 -1.95942e-21)
(-0.394711 0.00782958 3.55655e-21)
(-0.398992 0.00161034 4.47889e-21)
(-0.395315 -0.00571731 5.52322e-21)
(-0.382277 -0.0137875 -5.88915e-21)
(-0.35886 -0.0220346 6.29942e-21)
(-0.324949 -0.0297371 -3.18033e-21)
(-0.281326 -0.0362505 -2.28774e-21)
(-0.229564 -0.041178 3.51902e-21)
(-0.171607 -0.0444242 1.32537e-21)
(-0.109452 -0.0461204 -2.73719e-21)
(-0.0449034 -0.0464991 6.87648e-22)
(0.0204663 -0.0458182 -5.60913e-23)
(0.0853438 -0.0443104 -2.5509e-22)
(0.148663 -0.0421979 -2.94843e-22)
(0.209595 -0.0396706 1.2866e-22)
(-0.24203 0.0220569 -4.75296e-24)
(-0.259936 0.022996 2.06118e-21)
(-0.278532 0.0236218 5.73286e-21)
(-0.297994 0.0237523 -3.98884e-21)
(-0.317439 0.0231162 5.8382e-22)
(-0.336308 0.0214999 7.05684e-23)
(-0.353374 0.0186702 -3.78252e-21)
(-0.367458 0.0144755 -3.17302e-21)
(-0.376984 0.00880519 8.52246e-21)
(-0.380363 0.00169489 -4.86817e-22)
(-0.375928 -0.00669253 -3.58314e-21)
(-0.362302 -0.0159374 -4.01493e-21)
(-0.33849 -0.0253934 6.54058e-21)
(-0.304388 -0.0342304 -4.49374e-21)
(-0.260784 -0.0417046 8.69859e-22)
(-0.209244 -0.0473576 -1.09482e-21)
(-0.15169 -0.051079 3.10809e-21)
(-0.0900935 -0.0530197 -1.9917e-21)
(-0.0262229 -0.0534498 6.18545e-22)
(0.0383807 -0.0526549 4.05203e-22)
(0.102432 -0.0509172 -1.37159e-22)
(0.164886 -0.0484818 1.78894e-22)
(0.224935 -0.0455695 -4.48367e-22)
(-0.231483 0.0245011 3.30048e-21)
(-0.24835 0.0255488 1.49683e-21)
(-0.265846 0.0262506 -2.31577e-21)
(-0.284149 0.0264012 2.93077e-21)
(-0.302395 0.0256953 6.72828e-21)
(-0.320042 0.0238917 -1.14669e-20)
(-0.335892 0.0207275 2.48545e-21)
(-0.348795 0.016031 5.77723e-21)
(-0.357217 0.00967619 -3.11096e-21)
(-0.359609 0.00170156 9.78084e-21)
(-0.354349 -0.00771748 -1.1891e-20)
(-0.340091 -0.0181078 4.67679e-21)
(-0.315864 -0.0287453 -6.41734e-21)
(-0.281575 -0.0386928 5.83464e-22)
(-0.238017 -0.0471076 -9.96669e-22)
(-0.186743 -0.0534697 2.83201e-21)
(-0.129656 -0.0576535 -1.54799e-21)
(-0.0686914 -0.0598297 -9.2072e-22)
(-0.00558007 -0.0603059 2.39135e-22)
(0.0581713 -0.0593944 9.63653e-22)
(0.121307 -0.0574262 -9.64011e-23)
(0.182808 -0.0546692 -1.54701e-22)
(0.241885 -0.0513745 2.58439e-22)
(-0.21986 0.0267759 4.5039e-21)
(-0.235594 0.0279251 7.03728e-21)
(-0.251892 0.0286986 -6.1855e-21)
(-0.268931 0.0288686 -1.5883e-20)
(-0.285873 0.0280966 -2.18947e-21)
(-0.302192 0.0261139 1.73066e-21)
(-0.316722 0.0226288 1.9103e-20)
(-0.328348 0.0174496 -1.35049e-20)
(-0.33558 0.0104349 6.25054e-21)
(-0.336914 0.00162585 -1.00065e-20)
(-0.330776 -0.00879334 6.30209e-21)
(-0.315851 -0.0202967 -2.90579e-21)
(-0.291198 -0.0320854 2.53351e-21)
(-0.256734 -0.043117 -3.89814e-21)
(-0.213253 -0.0524506 4.30532e-22)
(-0.162297 -0.0595043 -1.93716e-21)
(-0.105739 -0.0641374 3.28454e-21)
(-0.0454788 -0.0665407 -1.56453e-21)
(0.0167957 -0.0670544 8.67582e-22)
(0.0796152 -0.0660291 -6.49051e-22)
(0.141755 -0.0638282 1.62443e-23)
(0.202223 -0.0607513 4.66585e-22)
(0.260251 -0.0570772 -4.25215e-22)
(-0.207232 0.0288687 -6.57659e-22)
(-0.221753 0.0301116 9.67849e-21)
(-0.236767 0.0309525 -1.13535e-20)
(-0.25245 0.0311412 2.14636e-21)
(-0.267995 0.0303071 -9.02724e-21)
(-0.282893 0.0281547 1.36645e-20)
(-0.296015 0.0243637 9.36472e-21)
(-0.306281 0.018723 1.13146e-21)
(-0.31225 0.0110755 -1.34817e-20)
(-0.312468 0.00146459 2.66129e-21)
(-0.305409 -0.00991995 1.32207e-20)
(-0.289795 -0.0225009 -2.5876e-21)
(-0.264713 -0.0354079 -8.20571e-21)
(-0.230091 -0.0474952 -9.62743e-22)
(-0.186725 -0.0577242 1.30729e-20)
(-0.136138 -0.0654512 -7.64788e-22)
(-0.0801746 -0.0705204 -1.93448e-21)
(-0.0206888 -0.0731438 4.20259e-22)
(0.040675 -0.0736866 -6.32239e-22)
(0.102489 -0.072548 7.02938e-22)
(0.163561 -0.070115 -1.17215e-22)
(0.222927 -0.0667206 -6.23675e-22)
(0.279838 -0.0626707 5.9248e-22)
(0.333763 -0.0582297 -1.08731e-21)
(-0.193675 0.0307693 1.95729e-21)
(-0.206913 0.0320974 -9.25445e-21)
(-0.220569 0.0330007 -1.74682e-21)
(-0.234819 0.0332077 1.95615e-20)
(-0.248887 0.032316 -9.69531e-21)
(-0.262286 0.0300041 -1.90465e-20)
(-0.273925 0.0259238 1.81532e-20)
(-0.282763 0.0198444 1.95461e-21)
(-0.28741 0.0115935 -1.43351e-20)
(-0.286464 0.00121759 -6.23402e-21)
(-0.278452 -0.0110959 4.36419e-21)
(-0.262133 -0.0247165 8.25489e-21)
(-0.236626 -0.0387063 -1.46689e-20)
(-0.20187 -0.051819 3.66644e-21)
(-0.158659 -0.0629188 2.21989e-21)
(-0.108496 -0.0713004 -9.48841e-21)
(-0.0531915 -0.0767926 -1.21166e-21)
(0.00545084 -0.0796275 1.87096e-21)
(0.0658343 -0.0801955 4.80931e-21)
(0.126574 -0.0789425 -1.44892e-21)
(0.186513 -0.076279 -2.86639e-22)
(0.244715 -0.0725703 8.88612e-22)
(0.300452 -0.0681488 -2.26623e-22)
(0.35321 -0.0633025 -1.68229e-22)
(-0.179264 0.0324694 -1.0166e-20)
(-0.191162 0.0338737 2.5601e-21)
(-0.203399 0.0348343 3.27692e-21)
(-0.216153 0.0350588 -1.33742e-20)
(-0.228679 0.0341147 2.36604e-20)
(-0.240513 0.0316544 -1.77975e-20)
(-0.250608 0.0273025 1.51288e-20)
(-0.257963 0.0208092 -2.32377e-20)
(-0.26124 0.0119864 2.18657e-20)
(-0.259094 0.000894062 5.87858e-21)
(-0.250106 -0.0123189 6.11151e-21)
(-0.233074 -0.026939 -1.83436e-20)
(-0.207151 -0.0419738 6.49875e-21)
(-0.172286 -0.0560798 -3.13648e-21)
(-0.129273 -0.0680249 1.39813e-21)
(-0.079592 -0.0770418 8.47873e-21)
(-0.0250098 -0.0829448 -1.76248e-21)
(0.0327217 -0.0859804 1.20707e-21)
(0.0920586 -0.0865744 3.22173e-22)
(0.151661 -0.0852054 -1.05749e-21)
(0.210409 -0.0823138 -1.49454e-22)
(0.267392 -0.0782946 9.26582e-23)
(0.321906 -0.0735065 -7.96458e-22)
(0.37345 -0.0682606 -2.5068e-22)
(-0.16407 0.0339635 1.6295e-21)
(-0.174587 0.0354342 -1.41685e-20)
(-0.185358 0.0364466 1.66491e-20)
(-0.196564 0.036688 -1.1343e-20)
(-0.207497 0.0356968 -1.12685e-20)
(-0.217716 0.0330998 1.17021e-21)
(-0.226218 0.0284954 4.82144e-21)
(-0.232048 0.0216141 -9.05936e-21)
(-0.233918 0.0122531 1.15871e-20)
(-0.230547 0.000514877 1.10353e-20)
(-0.220569 -0.0135865 -2.22583e-20)
(-0.202819 -0.0291635 6.57785e-21)
(-0.176491 -0.0452036 1.08523e-20)
(-0.141546 -0.060269 -1.52647e-20)
(-0.0987754 -0.0730326 1.6765e-20)
(-0.0496321 -0.0826659 2.64286e-21)
(0.004164 -0.0889669 -3.99631e-21)
(0.0609192 -0.0921947 -1.97926e-21)
(0.119146 -0.0928141 1.38591e-21)
(0.177552 -0.0913297 -1.01779e-21)
(0.235055 -0.0882135 5.71837e-22)
(0.290772 -0.0838888 -3.14506e-22)
(0.344021 -0.0787397 -9.58336e-23)
(0.394314 -0.0731005 -4.64294e-22)
(-0.148164 0.0352481 -6.11541e-21)
(-0.157271 0.0367749 -2.97743e-21)
(-0.166544 0.037833 -6.54848e-22)
(-0.176165 0.0380905 5.6868e-21)
(-0.185467 0.0370578 -8.06189e-21)
(-0.194033 0.0343368 -2.64708e-21)
(-0.200908 0.0294996 1.91754e-22)
(-0.20518 0.0222575 1.57527e-20)
(-0.205614 0.0123934 -4.58624e-21)
(-0.201005 -6.78903e-06 -3.35459e-21)
(-0.190031 -0.0148972 -2.36553e-20)
(-0.171559 -0.031385 -3.18555e-21)
(-0.144839 -0.0483886 1.14687e-20)
(-0.109842 -0.0643783 1.20184e-21)
(-0.0673581 -0.0779325 5.64731e-22)
(-0.0188091 -0.0881642 2.26674e-21)
(0.0341387 -0.0948477 -3.37843e-21)
(0.0898541 -0.0982637 -2.56991e-21)
(0.14691 -0.0989068 -7.92629e-22)
(0.204066 -0.0973094 6.39413e-22)
(0.260275 -0.0939729 -7.04318e-22)
(0.314684 -0.0893485 7.27221e-23)
(0.36663 -0.083845 -3.07975e-22)
(0.415643 -0.0778193 2.07171e-21)
(-0.13161 0.0363223 5.86168e-21)
(-0.139291 0.0378943 -9.12563e-21)
(-0.147047 0.0389917 2.43679e-21)
(-0.155062 0.0392642 8.35327e-21)
(-0.162708 0.0381957 3.56424e-21)
(-0.169597 0.0353634 -2.50691e-22)
(-0.174822 0.0303141 4.23209e-21)
(-0.177518 0.0227393 -1.65832e-20)
(-0.176505 0.0124064 1.1567e-20)
(-0.17064 -0.000658269 -7.07354e-22)
(-0.158659 -0.0162457 1.43046e-20)
(-0.139473 -0.0335984 -6.02479e-21)
(-0.112375 -0.0515224 -5.15003e-21)
(-0.0773538 -0.0683995 7.45611e-22)
(-0.035199 -0.082717 -9.40983e-21)
(0.0127008 -0.0935257 5.76352e-21)
(0.0647395 -0.100578 -2.65332e-21)
(0.119354 -0.10418 2.27518e-21)
(0.175182 -0.104846 -4.54387e-22)
(0.231034 -0.103139 -7.90141e-22)
(0.285906 -0.0995875 6.39659e-22)
(0.338969 -0.0946701 5.03704e-22)
(0.389581 -0.0888196 -1.38557e-21)
(0.437288 -0.0824151 1.1255e-21)
(-0.114465 0.0371875 1.06806e-20)
(-0.12072 0.0387931 1.0255e-20)
(-0.126954 0.0399227 8.33242e-23)
(-0.133355 0.0402089 9.5848e-21)
(-0.139334 0.0391101 2.62745e-21)
(-0.144534 0.0361796 -1.04679e-20)
(-0.148098 0.0309391 -1.5375e-21)
(-0.149207 0.0230604 6.97052e-21)
(-0.146741 0.0122958 1.40279e-20)
(-0.139614 -0.00135098 -2.42002e-20)
(-0.126624 -0.0176289 8.61861e-21)
(-0.106728 -0.0357989 -6.32696e-21)
(-0.0792645 -0.0545986 1.69525e-20)
(-0.0442448 -0.0723255 -6.2549e-23)
(-0.00245991 -0.0873801 6.7281e-21)
(0.0447375 -0.0987369 -4.80491e-21)
(0.0958082 -0.106152 -2.20774e-21)
(0.149262 -0.109935 2.41202e-21)
(0.203807 -0.110624 -9.73779e-22)
(0.258309 -0.108812 2.55121e-21)
(0.311801 -0.105053 -2.96527e-22)
(0.363484 -0.0998505 -1.14882e-22)
(0.412736 -0.0936612 -6.51365e-22)
(0.459116 -0.0868863 6.36002e-22)
(-0.0967773 0.0378476 8.46172e-21)
(-0.10162 0.0394745 2.3392e-21)
(-0.106342 0.0406288 -6.30054e-21)
(-0.111134 0.0409266 3.68799e-21)
(-0.115449 0.0398028 4.89143e-21)
(-0.11896 0.0367871 5.45139e-21)
(-0.120863 0.0313766 -6.77602e-21)
(-0.120385 0.0232231 1.32119e-20)
(-0.116466 0.0120639 -2.66271e-20)
(-0.108077 -0.0021139 -4.51617e-22)
(-0.0940769 -0.0190436 2.36805e-20)
(-0.0734756 -0.037982 -2.07064e-20)
(-0.0456575 -0.057612 -5.66938e-21)
(-0.0106639 -0.0761505 -2.72157e-21)
(0.0307133 -0.0919086 2.45023e-21)
(0.0771575 -0.103793 -9.71209e-22)
(0.127202 -0.111563 -3.8057e-21)
(0.179439 -0.115522 8.15516e-22)
(0.23265 -0.116237 2.66544e-21)
(0.285756 -0.114325 -6.38026e-22)
(0.337831 -0.110366 -6.63121e-22)
(0.388103 -0.104887 4.35185e-22)
(0.43597 -0.098368 1.73831e-22)
(0.481006 -0.0912318 -1.18123e-21)
(-0.0785872 0.0383086 -6.29442e-21)
(-0.0820449 0.039944 -7.31363e-21)
(-0.0852786 0.0411145 -8.33757e-21)
(-0.0884807 0.0414215 1.60901e-20)
(-0.0911475 0.0402774 -1.01818e-20)
(-0.0929826 0.0371892 1.41658e-20)
(-0.0932333 0.0316297 -3.38371e-21)
(-0.091177 0.0232304 -9.72534e-21)
(-0.085811 0.0117132 1.54503e-22)
(-0.0761636 -0.00295129 -1.78183e-20)
(-0.0611564 -0.020486 -2.74278e-24)
(-0.0398529 -0.0401441 1.76943e-20)
(-0.0116902 -0.0605581 1.10378e-20)
(0.023256 -0.0798663 -1.38784e-20)
(0.0641887 -0.0962911 -8.52122e-22)
(0.109831 -0.108691 1.13534e-21)
(0.158795 -0.116801 8.29054e-22)
(0.209762 -0.120934 -5.17979e-21)
(0.26159 -0.121678 2.21614e-21)
(0.313258 -0.119674 -1.39636e-21)
(0.363881 -0.115523 -9.47636e-22)
(0.412713 -0.109777 -2.47522e-22)
(0.459175 -0.102939 8.36007e-22)
(0.502851 -0.0954508 2.15139e-22)
(-0.0599225 0.0385787 -3.14503e-20)
(-0.0620364 0.0402093 3.58939e-20)
(-0.0638194 0.0413869 -2.47727e-20)
(-0.0654649 0.0416996 7.70531e-22)
(-0.0665113 0.0405393 1.2537e-20)
(-0.0666939 0.0373907 -8.8184e-21)
(-0.0653129 0.0317026 -1.09426e-20)
(-0.0616941 0.0230863 1.5532e-20)
(-0.0548941 0.0112475 6.7879e-21)
(-0.0439962 -0.00385977 -1.7522e-20)
(-0.0279852 -0.0219534 1.07748e-20)
(-0.00598274 -0.0422824 -4.3737e-22)
(0.0225168 -0.063431 -2.92677e-21)
(0.0573957 -0.0834646 1.33581e-20)
(0.0978489 -0.100526 7.29073e-21)
(0.142643 -0.113421 1.70037e-21)
(0.190475 -0.121861 -9.80781e-21)
(0.240121 -0.126165 3.74051e-21)
(0.29052 -0.126943 1.46215e-21)
(0.340711 -0.124853 -5.65307e-22)
(0.389849 -0.120521 4.38115e-22)
(0.437217 -0.114519 1.58401e-23)
(0.482254 -0.107372 6.64513e-22)
(0.524558 -0.099543 -6.68875e-22)
(-0.0407997 0.0386682 -2.61859e-20)
(-0.0416241 0.0402801 1.93366e-20)
(-0.0420076 0.041455 1.55944e-20)
(-0.0421428 0.0417691 -1.22145e-20)
(-0.0416094 0.0405956 -2.83698e-20)
(-0.0401745 0.0373978 1.80466e-20)
(-0.0371911 0.0316009 -3.84524e-21)
(-0.0320335 0.0227954 -1.48342e-20)
(-0.0238174 0.0106705 6.41571e-22)
(-0.0116803 -0.00483647 6.21862e-21)
(0.0053291 -0.0234438 -8.84687e-22)
(0.0280274 -0.044391 7.23048e-21)
(0.0568566 -0.0662255 7.06547e-21)
(0.0916492 -0.0869423 -1.46433e-20)
(0.131589 -0.104609 1.54433e-21)
(0.175491 -0.117977 1.59799e-21)
(0.222142 -0.126735 -6.8718e-22)
(0.27042 -0.13121 3.57291e-21)
(0.319348 -0.132026 2.68628e-21)
(0.368026 -0.129861 -2.11589e-21)
(0.41565 -0.125358 7.19367e-22)
(0.461531 -0.119112 2.33558e-22)
(0.505125 -0.111667 -1.13808e-21)
(0.546047 -0.103508 5.60066e-22)
(-0.0212222 0.0385892 -1.69625e-20)
(-0.0208244 0.0401684 2.62122e-21)
(-0.0198726 0.0413297 -2.04761e-20)
(-0.018557 0.0416405 3.5626e-20)
(-0.0164964 0.0404545 -2.67739e-20)
(-0.0134899 0.0372175 1.18587e-20)
(-0.00894267 0.0313307 -2.75054e-20)
(-0.00227714 0.0223633 5.02216e-20)
(0.00733184 0.0099868 -3.6e-20)
(0.0206933 -0.00587789 2.24636e-20)
(0.0386941 -0.0249526 7.46817e-21)
(0.0620843 -0.0464671 -1.91706e-20)
(0.0912356 -0.0689395 -1.72018e-21)
(0.125923 -0.0902963 -8.97572e-21)
(0.165317 -0.108534 6.90255e-21)
(0.208284 -0.122351 1.39673e-21)
(0.253708 -0.131418 -6.93291e-21)
(0.300574 -0.136064 3.60748e-21)
(0.347991 -0.136925 -1.61611e-23)
(0.395124 -0.134694 -2.00313e-21)
(0.441208 -0.130032 -1.43515e-22)
(0.485581 -0.123553 6.04767e-23)
(0.527719 -0.115823 -8.38417e-23)
(0.567249 -0.107346 3.39511e-22)
(-0.00118048 0.0383557 1.619e-20)
(0.00036002 0.0398875 -2.16095e-21)
(0.00257035 0.0410237 -7.67359e-21)
(0.00526489 0.0413247 2.3882e-21)
(0.00878786 0.0401268 -3.49117e-21)
(0.0133097 0.0368593 5.53233e-21)
(0.0193734 0.0308999 -7.00885e-21)
(0.0275087 0.0217959 2.40112e-20)
(0.0384822 0.00920126 3.78712e-21)
(0.0530495 -0.00698011 1.0932e-20)
(0.072032 -0.026476 -2.90419e-20)
(0.0961084 -0.0485106 2.02119e-20)
(0.125573 -0.0715702 3.0056e-21)
(0.160135 -0.0935216 -4.44166e-21)
(0.19895 -0.112294 -6.75961e-21)
(0.24094 -0.126538 6.68389e-21)
(0.285093 -0.135905 -3.29179e-21)
(0.330507 -0.140722 4.10371e-22)
(0.37638 -0.141635 5.40405e-21)
(0.421939 -0.139349 -3.59173e-22)
(0.466459 -0.134541 4.80309e-22)
(0.509306 -0.127842 -1.24928e-22)
(0.549974 -0.119839 -2.66044e-22)
(0.588106 -0.111057 -2.07969e-22)
(0.0193483 0.0379832 -1.85095e-20)
(0.0219407 0.0394525 -5.77234e-22)
(0.0253209 0.0405513 -8.16757e-21)
(0.0293104 0.0408343 3.24346e-20)
(0.0342195 0.0396247 -9.8592e-21)
(0.0401899 0.0363337 2.78362e-21)
(0.0477137 0.0303171 1.03231e-21)
(0.0572737 0.0211004 -4.62387e-20)
(0.069578 0.00831913 7.21802e-21)
(0.0853284 -0.00813969 2.98218e-20)
(0.105279 -0.0280121 8.52306e-21)
(0.130033 -0.050518 -1.30857e-20)
(0.159799 -0.0741141 -5.37277e-22)
(0.194213 -0.0966138 -6.489e-22)
(0.232415 -0.115885 2.69026e-21)
(0.273388 -0.130534 -8.0921e-21)
(0.316229 -0.140191 -1.19644e-20)
(0.360154 -0.145182 3.74163e-21)
(0.404452 -0.146154 -1.33317e-21)
(0.448412 -0.143824 -2.09063e-21)
(0.491348 -0.138883 9.96327e-22)
(0.532653 -0.131979 -2.81226e-22)
(0.571841 -0.123717 -5.40856e-22)
(0.608568 -0.114642 2.78875e-22)
(0.0404002 0.0374885 1.9787e-20)
(0.0439431 0.0388801 1.84136e-20)
(0.0483931 0.0399286 -2.31626e-20)
(0.0535824 0.0401846 2.18865e-20)
(0.0597903 0.038961 -8.69846e-21)
(0.0671323 0.0356518 -4.06089e-21)
(0.0760512 0.0295915 3.26273e-20)
(0.0869832 0.0202841 -4.85218e-21)
(0.100579 0.007346 -2.04599e-21)
(0.117485 -0.0093527 -5.2042e-21)
(0.138387 -0.0295583 -1.27763e-20)
(0.163805 -0.0524863 2.58509e-20)
(0.193854 -0.0765681 -1.0989e-20)
(0.228095 -0.0995691 1.23348e-20)
(0.265647 -0.119302 -2.06522e-20)
(0.305561 -0.134333 -7.94044e-21)
(0.347052 -0.144273 1.51381e-20)
(0.389456 -0.149438 -3.58037e-21)
(0.432153 -0.15048 -4.89645e-22)
(0.474492 -0.148119 2.08468e-21)
(0.515828 -0.143058 -1.51804e-21)
(0.555579 -0.135962 3.02374e-22)
(0.593278 -0.127455 5.71973e-22)
(0.628596 -0.118101 -1.11872e-21)
(0.066406 0.0381885 -2.67611e-20)
(0.0718158 0.039173 -8.09324e-21)
(0.0780987 0.0393918 6.66201e-21)
(0.0855077 0.03815 2.05923e-20)
(0.0941343 0.0348258 1.39805e-20)
(0.104374 0.0287335 1.22947e-20)
(0.116619 0.0193553 -3.05432e-20)
(0.131459 0.00628814 2.46717e-21)
(0.149488 -0.0106146 6.75753e-21)
(0.171317 -0.0311109 2.20453e-21)
(0.19738 -0.0544126 -8.22595e-21)
(0.22769 -0.078929 -4.21733e-21)
(0.261723 -0.102384 -1.2673e-20)
(0.298586 -0.122541 2.43473e-21)
(0.337401 -0.137933 4.95613e-21)
(0.377507 -0.148147 6.7364e-21)
(0.418361 -0.15349 -3.00461e-21)
(0.459435 -0.15461 -3.85634e-21)
(0.500136 -0.152231 2.20223e-21)
(0.539859 -0.147064 1.0523e-21)
(0.578045 -0.139792 9.53451e-22)
(0.614249 -0.131055 -2.94847e-22)
(0.648156 -0.121435 -5.09735e-22)
(0.0893808 0.0373966 -2.38521e-21)
(0.0956309 0.038303 5.48439e-21)
(0.102892 0.0384733 -2.2451e-20)
(0.111394 0.0372073 -6.76059e-23)
(0.121209 0.0338694 2.63988e-20)
(0.132687 0.0277544 -3.97536e-20)
(0.146176 0.0183231 3.52256e-21)
(0.162209 0.00515272 6.02778e-21)
(0.18132 -0.0119201 1.69641e-20)
(0.204045 -0.0326661 -3.0326e-20)
(0.230725 -0.0562935 2.70033e-21)
(0.261263 -0.0811933 3.68817e-20)
(0.29505 -0.105054 -1.30635e-20)
(0.33118 -0.125599 3.01081e-21)
(0.368855 -0.14133 7.07943e-22)
(0.407543 -0.151811 -1.26903e-20)
(0.446823 -0.157336 9.74052e-21)
(0.486257 -0.158544 -6.20549e-21)
(0.525308 -0.15616 3.01451e-21)
(0.563407 -0.150903 -2.50872e-21)
(0.600022 -0.143469 -1.57719e-22)
(0.634728 -0.134516 3.69421e-22)
(0.667223 -0.124645 -5.5254e-22)
(0.11293 0.0365244 1.30672e-20)
(0.119893 0.0373379 -1.12042e-20)
(0.128007 0.0374473 1.05426e-20)
(0.137486 0.0361496 5.66407e-21)
(0.148383 0.032797 7.43796e-21)
(0.161009 0.0266664 -2.03586e-20)
(0.175666 0.0171974 1.72927e-21)
(0.19283 0.00394729 2.37552e-20)
(0.212975 -0.0132635 4.61895e-21)
(0.236556 -0.0342191 6.46517e-21)
(0.263815 -0.058125 -2.55988e-20)
(0.294539 -0.0833568 1.70141e-20)
(0.32803 -0.107575 -5.29522e-21)
(0.363379 -0.128471 2.49149e-21)
(0.399875 -0.14452 -1.59889e-20)
(0.437115 -0.155262 2.13353e-20)
(0.474803 -0.160973 -8.68642e-22)
(0.512583 -0.162281 -8.78982e-21)
(0.549976 -0.159906 4.66527e-21)
(0.586445 -0.154574 -7.36084e-22)
(0.621485 -0.146994 -1.39625e-21)
(0.65469 -0.13784 3.90967e-22)
(0.685775 -0.127732 1.26668e-22)
(0.137126 0.0355922 3.2837e-20)
(0.144668 0.036298 -1.31046e-20)
(0.153503 0.0363333 -1.61678e-20)
(0.163832 0.0349945 3.79721e-22)
(0.175698 0.0316242 2.29749e-20)
(0.189371 0.0254827 -1.49391e-20)
(0.205111 0.015989 2.48771e-20)
(0.223336 0.00267777 -7.85278e-21)
(0.244457 -0.0146384 6.73154e-21)
(0.268844 -0.0357646 -1.78122e-20)
(0.29663 -0.0599021 -1.88499e-21)
(0.327486 -0.0854151 -2.67652e-20)
(0.360625 -0.109943 1.21773e-20)
(0.39514 -0.131155 -2.54644e-21)
(0.430416 -0.147501 -7.31421e-21)
(0.466183 -0.158499 1.25249e-20)
(0.502262 -0.164403 -8.72833e-21)
(0.538382 -0.165821 7.81492e-21)
(0.574111 -0.16347 -2.87858e-21)
(0.608949 -0.158078 -1.10786e-21)
(0.642413 -0.150367 -1.2617e-21)
(0.674118 -0.141029 -9.98326e-24)
(0.703796 -0.130698 7.28135e-22)
(0.162049 0.0346211 8.76369e-21)
(0.170029 0.035204 -2.02352e-20)
(0.179447 0.0351509 2.55227e-20)
(0.190495 0.0337604 -3.24721e-20)
(0.203206 0.0303674 5.83072e-20)
(0.217817 0.0242172 -5.61801e-20)
(0.234546 0.0147097 8.32771e-21)
(0.253753 0.00134824 -1.26123e-20)
(0.275781 -0.0160371 2.31263e-20)
(0.300909 -0.0372958 -9.90605e-21)
(0.329159 -0.061619 4.00563e-20)
(0.360077 -0.0873626 -2.99265e-20)
(0.392797 -0.112154 3.22347e-20)
(0.426421 -0.133646 -1.78079e-20)
(0.460437 -0.150272 5.15686e-21)
(0.494709 -0.161522 5.58435e-21)
(0.529171 -0.167624 -1.11085e-20)
(0.563627 -0.169165 -9.64532e-23)
(0.597693 -0.166852 7.62765e-21)
(0.630899 -0.161416 -1.318e-21)
(0.66279 -0.15359 -2.32215e-22)
(0.692999 -0.144082 -4.59458e-22)
(0.721275 -0.133545 3.28391e-22)
(0.187784 0.033632 5.76101e-21)
(0.196057 0.0340768 -6.1453e-20)
(0.205914 0.0339206 4.82755e-21)
(0.217542 0.0324663 -7.40858e-21)
(0.230969 0.0290435 2.992e-20)
(0.246401 0.0228849 -3.00021e-20)
(0.264014 0.0133715 4.40489e-20)
(0.284113 -2.3923e-05 -2.61041e-20)
(0.306967 -0.0174503 -1.05229e-20)
(0.332757 -0.0388052 3.31835e-20)
(0.361389 -0.0632687 -2.0573e-20)
(0.392288 -0.0891933 1.33086e-20)
(0.42451 -0.114202 1.21375e-20)
(0.457183 -0.135942 9.21344e-21)
(0.489901 -0.15283 -1.95934e-20)
(0.52266 -0.164331 -8.74196e-21)
(0.555501 -0.170637 7.37644e-21)
(0.588295 -0.172314 2.51902e-21)
(0.620702 -0.170053 -3.84523e-21)
(0.652281 -0.16459 6.40017e-22)
(0.682603 -0.156665 1.0746e-22)
(0.711322 -0.147003 9.32873e-23)
(0.738205 -0.136273 -1.61694e-21)
(0.214419 0.0326458 -1.04278e-20)
(0.222838 0.0329374 7.20626e-21)
(0.232986 0.0326629 1.85451e-20)
(0.24505 0.0311317 -1.26484e-20)
(0.259057 0.0276705 -1.41806e-20)
(0.275184 0.0215013 -1.69972e-21)
(0.293568 0.011988 2.56389e-20)
(0.314455 -0.00140434 1.47492e-21)
(0.33804 -0.0188673 -3.51301e-20)
(0.364396 -0.0402836 2.51155e-20)
(0.393313 -0.0648431 -3.83581e-21)
(0.424093 -0.0909003 -1.85937e-20)
(0.45573 -0.116083 -7.24821e-21)
(0.487389 -0.13804 7.49651e-21)
(0.518773 -0.155176 5.93056e-22)
(0.550007 -0.166925 -9.30043e-21)
(0.581227 -0.173444 1.38525e-20)
(0.612366 -0.175268 -9.39707e-21)
(0.643122 -0.173076 8.95935e-21)
(0.673083 -0.1676 -2.41456e-21)
(0.701843 -0.159593 -1.08519e-21)
(0.729082 -0.149793 1.1746e-22)
(0.754581 -0.138885 1.41263e-21)
(0.242042 0.0316834 2.63139e-20)
(0.250458 0.0318067 -2.45009e-20)
(0.260747 0.0313982 9.47054e-21)
(0.273099 0.0297761 1.77699e-20)
(0.287544 0.0262663 2.71855e-21)
(0.304234 0.0200831 -4.8785e-21)
(0.323264 0.0105743 2.28307e-21)
(0.344823 -0.00279322 -4.27037e-21)
(0.369023 -0.0202777 1.16086e-20)
(0.395833 -0.0417205 1.71284e-20)
(0.424918 -0.0663328 -2.50172e-20)
(0.455468 -0.0924759 -4.03148e-21)
(0.486425 -0.117791 -1.22223e-20)
(0.517003 -0.139936 3.97281e-20)
(0.547022 -0.157308 -1.85236e-20)
(0.576723 -0.169305 5.98219e-21)
(0.60633 -0.176046 3.86735e-21)
(0.635825 -0.178031 -8.27804e-21)
(0.664941 -0.175922 -3.56219e-21)
(0.693295 -0.17045 1.57717e-21)
(0.720505 -0.162376 -2.28657e-23)
(0.746273 -0.152454 -1.71989e-22)
(0.770401 -0.141384 1.61369e-21)
(0.270737 0.0307654 1.52513e-20)
(0.278999 0.0307054 -1.59752e-20)
(0.289279 0.0301474 1.94143e-20)
(0.30177 0.0284198 2.93613e-20)
(0.316507 0.0248502 -4.20115e-20)
(0.333619 0.0186478 1.43463e-21)
(0.353162 0.00914544 8.66691e-21)
(0.37526 -0.00419622 3.08951e-20)
(0.399945 -0.0216674 -1.86965e-20)
(0.427077 -0.0431037 -1.22383e-20)
(0.456194 -0.0677274 -1.31195e-20)
(0.486384 -0.0939125 2.36729e-20)
(0.516559 -0.119323 -1.89142e-20)
(0.545992 -0.141632 2.02411e-20)
(0.574619 -0.159229 -1.31635e-20)
(0.602787 -0.171478 -6.03809e-21)
(0.630791 -0.17845 2.19266e-21)
(0.658658 -0.180608 6.61351e-21)
(0.686151 -0.178597 -7.60543e-21)
(0.712911 -0.173144 3.41291e-21)
(0.738584 -0.165019 1.18043e-21)
(0.762896 -0.15499 1.30468e-23)
(0.785665 -0.143772 -3.5682e-22)
(0.300583 0.0299118 -3.17251e-20)
(0.308544 0.029654 1.7141e-20)
(0.318664 0.028931 6.2159e-21)
(0.331143 0.0270829 7.55723e-21)
(0.346022 0.0234418 2.34791e-21)
(0.363408 0.0172138 -3.8788e-20)
(0.383316 0.00771858 1.85056e-20)
(0.405807 -0.00558892 1.43909e-20)
(0.430829 -0.023022 1.42083e-20)
(0.458127 -0.0444206 2.44806e-21)
(0.487122 -0.0690165 -3.25074e-20)
(0.516813 -0.095203 2.38004e-20)
(0.546097 -0.120675 1.89215e-21)
(0.574324 -0.143128 -3.50077e-21)
(0.601538 -0.160944 -6.54115e-21)
(0.628177 -0.173447 1.17183e-20)
(0.654597 -0.180659 -4.86373e-21)
(0.680857 -0.183004 4.78832e-21)
(0.706744 -0.181104 -3.02296e-21)
(0.731928 -0.175686 1.24526e-21)
(0.75608 -0.167526 -1.60222e-21)
(0.77895 -0.157404 -4.59096e-22)
(0.800378 -0.146054 3.97085e-22)
(0.33165 0.0291396 -2.77656e-21)
(0.339162 0.0286688 3.28828e-20)
(0.348975 0.0277647 1.22327e-21)
(0.361291 0.0257808 1.50688e-20)
(0.376159 0.0220552 -2.55689e-20)
(0.393664 0.0157945 -8.15662e-21)
(0.41378 0.00630884 -1.03888e-20)
(0.436501 -0.00695669 4.70356e-20)
(0.461689 -0.024331 -3.30729e-20)
(0.48898 -0.0456594 -9.5015e-21)
(0.51768 -0.0701875 2.17421e-20)
(0.546719 -0.0963344 -4.21032e-20)
(0.575004 -0.121833 1.2134e-20)
(0.601968 -0.144409 2.56429e-20)
(0.627755 -0.162436 -2.28093e-20)
(0.652879 -0.175195 8.55281e-21)
(0.677738 -0.182656 -7.3217e-23)
(0.702413 -0.185201 3.50906e-21)
(0.726718 -0.183429 -1.47188e-21)
(0.750344 -0.178063 -7.43685e-22)
(0.772994 -0.169885 4.56875e-22)
(0.794441 -0.15969 6.54449e-24)
(0.814544 -0.148223 -6.46015e-22)
(0.363995 0.0284602 -3.09985e-20)
(0.370915 0.0277605 -9.23625e-23)
(0.380275 0.0266588 -3.85693e-24)
(0.39228 0.0245228 -1.00147e-21)
(0.406983 0.0206994 7.58435e-21)
(0.424446 0.0143984 4.53672e-21)
(0.444598 0.00492547 8.86034e-21)
(0.467368 -0.0082896 -9.00593e-21)
(0.492534 -0.0255805 -2.16163e-22)
(0.51962 -0.0468028 -7.34788e-21)