/*--------------------------------*- C++ -*----------------------------------*\
  =========                 |
  \\      /  F ield         | OpenFOAM: The Open Source CFD Toolbox
   \\    /   O peration     | Website:  https://openfoam.org
    \\  /    A nd           | Version:  7
     \\/     M anipulation  |
\*---------------------------------------------------------------------------*/
FoamFile
{
    version     2.0;
    format      ascii;
    class       surfaceScalarField;
    location    "60";
    object      phi;
}
// * * * * * * * * * * * * * * * * * * * * * * * * * * * * * * * * * * * * * //

dimensions      [0 3 -1 0 0 0 0];

internalField   nonuniform List<scalar> 
8878
(
-0.00398914
-0.000144117
-0.000150063
-0.00384482
-0.00395991
-0.000179294
-0.000124083
-0.00360175
-0.000153145
-0.00370509
-0.000183188
-0.00381478
-0.00392898
-0.000214116
-0.000123992
-0.00347668
-0.00015354
-0.0035722
-0.000184238
-0.00367439
-0.000215954
-0.00378307
-0.00389637
-0.00024857
-0.000121654
-0.00335868
-0.000151509
-0.00344683
-0.000182631
-0.00354108
-0.000214958
-0.00364207
-0.000248345
-0.00374968
-0.00386207
-0.000282642
-0.000117228
-0.00324694
-0.000147297
-0.00332861
-0.000178662
-0.00341546
-0.000211345
-0.0035084
-0.000245291
-0.00360812
-0.000280346
-0.00371462
-0.0038261
-0.000316318
-0.00011081
-0.00314041
-0.000141053
-0.0032167
-0.000172587
-0.00329708
-0.000205445
-0.0033826
-0.000239669
-0.00347417
-0.000275223
-0.00357257
-0.000311941
-0.00367791
-0.00378846
-0.000349583
-0.000102493
-0.00303776
-0.000132853
-0.00311005
-0.000164537
-0.00318501
-0.000197518
-0.00326409
-0.000231849
-0.00334827
-0.000267595
-0.00343843
-0.000304739
-0.00353542
-0.000343114
-0.00363953
-0.00374915
-0.000382424
-9.24269e-05
-0.002937
-0.000122773
-0.00300742
-0.000154568
-0.00307826
-0.000187675
-0.00315191
-0.000222085
-0.00322969
-0.000257868
-0.00331249
-0.000295111
-0.00340118
-0.000333826
-0.00349671
-0.000373849
-0.00359951
-0.00370817
-0.000414823
-8.08608e-05
-0.00283487
-0.000110945
-0.00290691
-0.000142739
-0.00297562
-0.000175951
-0.00304504
-0.000210464
-0.00311739
-0.000246284
-0.00319387
-0.000283495
-0.00327528
-0.000322209
-0.00336247
-0.000362471
-0.00345645
-0.00040413
-0.00355785
-0.00366554
-0.000446765
-6.81797e-05
-0.00272619
-9.76006e-05
-0.00280544
-0.000129167
-0.00287534
-0.000162387
-0.0029424
-0.000196998
-0.00301043
-0.0002329
-0.00308149
-0.000270111
-0.00315665
-0.000308726
-0.00323666
-0.000348882
-0.00332231
-0.00039066
-0.00341467
-0.00043394
-0.00351457
-0.00362125
-0.000478231
-5.4923e-05
-0.00260326
-8.31039e-05
-0.00269801
-0.000114067
-0.00277448
-0.000147088
-0.00284232
-0.000181713
-0.00290778
-0.000217705
-0.00297444
-0.00025498
-0.00304421
-0.000293564
-0.00311807
-0.00033356
-0.00319667
-0.000375125
-0.00328075
-0.000418384
-0.00337141
-0.000463263
-0.00346969
-0.00357531
-0.000509204
-4.1776e-05
-0.0024555
-6.79743e-05
-0.00257706
-9.77826e-05
-0.0026682
-0.000130253
-0.00274201
-0.000164703
-0.00280787
-0.000200712
-0.00287177
-0.000238068
-0.00293709
-0.000276702
-0.00300558
-0.000316642
-0.00307813
-0.000357996
-0.00315531
-0.000400936
-0.00323781
-0.000445635
-0.00332671
-0.000492086
-0.00342324
-0.00352772
-0.000539671
-2.95184e-05
-0.00226984
-5.28851e-05
-0.00243214
-8.08148e-05
-0.00254913
-0.00011221
-0.00263681
-0.000146156
-0.00270806
-0.000182009
-0.00277202
-0.000219382
-0.00283439
-0.000258086
-0.00289838
-0.000298063
-0.0029656
-0.000339343
-0.00303685
-0.000382035
-0.00311262
-0.000426318
-0.00319352
-0.000472411
-0.00328062
-0.000520399
-0.00337525
-0.0034785
-0.00056962
-3.86194e-05
-0.00225013
-6.38231e-05
-0.00240693
-9.34376e-05
-0.00251952
-0.00012638
-0.00260387
-0.00016177
-0.00267267
-0.000199001
-0.00273479
-0.000237718
-0.00279568
-0.000277754
-0.00285835
-0.00031906
-0.0029243
-0.000361669
-0.00299424
-0.000405681
-0.00306861
-0.000451277
-0.00314793
-0.000498716
-0.00323318
-0.000548201
-0.00332577
-0.00342766
-0.000599038
-2.59733e-05
-0.00201635
-4.75914e-05
-0.00222851
-7.45821e-05
-0.00237994
-0.000105836
-0.00248826
-0.000140288
-0.00256941
-0.000177091
-0.00263587
-0.000215676
-0.0026962
-0.000255718
-0.00275564
-0.000297068
-0.002817
-0.000339691
-0.00288167
-0.000383618
-0.00295032
-0.000428939
-0.00302329
-0.000475825
-0.00310104
-0.000524565
-0.00318444
-0.000575501
-0.00327483
-0.00337523
-0.000627931
-1.56211e-05
-0.00171645
-3.2943e-05
-0.00199902
-5.64262e-05
-0.00220503
-8.51552e-05
-0.00235121
-0.000118005
-0.00245541
-0.000153929
-0.00253349
-0.000192115
-0.00259768
-0.000232029
-0.00265629
-0.000273375
-0.00271429
-0.000316025
-0.00277435
-0.000359952
-0.00283775
-0.000405188
-0.00290508
-0.000451813
-0.00297666
-0.000499974
-0.00305288
-0.000549982
-0.00313443
-0.000602329
-0.00322248
-0.0033212
-0.000656358
-2.06127e-05
-0.0017038
-3.98167e-05
-0.00197982
-6.51167e-05
-0.00217973
-9.55363e-05
-0.0023208
-0.000129939
-0.00242101
-0.000167299
-0.00249613
-0.000206838
-0.00255815
-0.000248057
-0.00261507
-0.000290687
-0.00267166
-0.00033462
-0.00273041
-0.000379838
-0.00279253
-0.000426377
-0.00285854
-0.000474304
-0.00292873
-0.000523741
-0.00300344
-0.000575001
-0.00308317
-0.000628739
-0.00316875
-0.00326555
-0.000684396
-1.11039e-05
-0.00133072
-2.55458e-05
-0.00168936
-4.65876e-05
-0.00195878
-7.36564e-05
-0.00215266
-0.00010572
-0.00228873
-0.000141634
-0.0023851
-0.000180394
-0.00245737
-0.000221256
-0.00251728
-0.000263756
-0.00257257
-0.000307649
-0.00262777
-0.000352846
-0.00268522
-0.000399342
-0.00274603
-0.000447177
-0.00281071
-0.000496413
-0.0028795
-0.000547145
-0.00295271
-0.000599678
-0.00303064
-0.000654748
-0.00311368
-0.00320824
-0.000712054
-4.60555e-06
-0.00087255
-1.42189e-05
-0.00132111
-3.04144e-05
-0.00167316
-5.32497e-05
-0.00193594
-8.20395e-05
-0.00212387
-0.0001157
-0.00225507
-0.000153084
-0.00234771
-0.000193209
-0.00241725
-0.000235367
-0.00247513
-0.000279121
-0.00252882
-0.000324256
-0.00258263
-0.000370697
-0.00263878
-0.000418454
-0.00269828
-0.000467575
-0.00276158
-0.000518126
-0.00282895
-0.000570206
-0.00290063
-0.000624104
-0.00297674
-0.000680378
-0.0030574
-0.00314898
-0.00073964
-6.16521e-06
-0.000867366
-1.72999e-05
-0.00130998
-3.52132e-05
-0.00165525
-5.97972e-05
-0.00191136
-9.02605e-05
-0.00209341
-0.000125474
-0.00221986
-0.000164287
-0.0023089
-0.000205743
-0.00237579
-0.000249165
-0.0024317
-0.00029415
-0.00248383
-0.000340502
-0.00253628
-0.000388166
-0.00259111
-0.000437162
-0.00264928
-0.00048755
-0.0027112
-0.000539414
-0.00277708
-0.000592892
-0.00284715
-0.000648324
-0.00292131
-0.000706433
-0.00299929
-0.00308899
-0.000766423
-1.43267e-06
-0.000326456
-7.70961e-06
-0.000861089
-2.03382e-05
-0.00129735
-3.99315e-05
-0.00163566
-6.62189e-05
-0.00188507
-9.83086e-05
-0.00206132
-0.000135029
-0.00218314
-0.000175233
-0.00226869
-0.000217986
-0.00233304
-0.000262644
-0.00238705
-0.000308832
-0.00243764
-0.000356378
-0.00248873
-0.00040524
-0.00254225
-0.000455449
-0.00259907
-0.000507076
-0.00265957
-0.000560222
-0.00272394
-0.000615082
-0.00279229
-0.000671858
-0.00286453
-0.000729946
-0.0029412
-0.00302419
-0.000794746
-1.88502e-06
-0.000324571
-9.24268e-06
-0.000853732
-2.33397e-05
-0.00128325
-4.45759e-05
-0.00161442
-7.25221e-05
-0.00185713
-0.000106192
-0.00202765
-0.000144376
-0.00214495
-0.00018593
-0.00222714
-0.000229946
-0.00228902
-0.000275811
-0.00234118
-0.000323176
-0.00239028
-0.000371891
-0.00244002
-0.000421925
-0.00249222
-0.000473318
-0.00254768
-0.000526147
-0.00260674
-0.000580522
-0.00266956
-0.000636615
-0.0027362
-0.000694529
-0.00280662
-0.000754381
-0.00288135
-0.00296021
-0.000818357
-2.33465e-06
-0.000322236
-1.07582e-05
-0.000845308
-2.62958e-05
-0.00126771
-4.91361e-05
-0.00159158
-7.86962e-05
-0.00182757
-0.0001139
-0.00199244
-0.000153505
-0.00210535
-0.000196371
-0.00218427
-0.000241616
-0.00224378
-0.000288658
-0.00229414
-0.000337174
-0.00234176
-0.00038703
-0.00239016
-0.000438209
-0.00244104
-0.000490757
-0.00249513
-0.000544754
-0.00255274
-0.000600308
-0.00261401
-0.000657562
-0.00267895
-0.000716615
-0.00274757
-0.000777738
-0.00282023
-0.00289615
-0.0008418
-2.78033e-06
-0.000319456
-1.22539e-05
-0.000835835
-2.92033e-05
-0.00125076
-5.36084e-05
-0.00156717
-8.47372e-05
-0.00179644
-0.000121429
-0.00195575
-0.000162411
-0.00206436
-0.000206552
-0.00214013
-0.000252994
-0.00219733
-0.000301183
-0.00224595
-0.000350822
-0.00229212
-0.000401794
-0.00233919
-0.000454091
-0.00238874
-0.000507764
-0.00244146
-0.000562895
-0.00249761
-0.000619588
-0.00255731
-0.000677962
-0.00262057
-0.000738122
-0.00268741
-0.000800309
-0.00275804
-0.0028316
-0.000864865
-3.22121e-06
-0.000316235
-1.37279e-05
-0.000825328
-3.2059e-05
-0.00123243
-5.79889e-05
-0.00154124
-9.06415e-05
-0.00176378
-0.000128776
-0.00191762
-0.000171094
-0.00202205
-0.000216472
-0.00209476
-0.000264077
-0.00214973
-0.000313384
-0.00219664
-0.000364118
-0.00224139
-0.000416179
-0.00228713
-0.000469567
-0.00233535
-0.000524336
-0.00238669
-0.00058057
-0.00244138
-0.000638365
-0.00249952
-0.000697828
-0.00256111
-0.00075906
-0.00262617
-0.00082224
-0.00269486
-0.00276633
-0.000887502
-3.65663e-06
-0.000312578
-1.51782e-05
-0.000813806
-3.486e-05
-0.00121275
-6.22742e-05
-0.00151383
-9.64057e-05
-0.00172965
-0.000135938
-0.00187808
-0.00017955
-0.00197843
-0.000226128
-0.00204818
-0.000274864
-0.00210099
-0.000325259
-0.00214625
-0.000377062
-0.00218959
-0.000430184
-0.00223401
-0.000484634
-0.0022809
-0.000540472
-0.00233085
-0.000597777
-0.00238407
-0.000656644
-0.00244065
-0.000717167
-0.00250059
-0.000779441
-0.0025639
-0.000843595
-0.00263071
-0.00270025
-0.000909684
-4.08597e-06
-0.000308492
-1.66032e-05
-0.000801289
-3.76035e-05
-0.00119175
-6.64613e-05
-0.00148497
-0.000102027
-0.00169409
-0.000142913
-0.0018372
-0.000187778
-0.00193357
-0.000235519
-0.00200044
-0.000285353
-0.00205116
-0.000336808
-0.00209479
-0.00038965
-0.00213675
-0.000443807
-0.00217985
-0.000499293
-0.00222541
-0.00055617
-0.00227397
-0.000614518
-0.00232573
-0.000674427
-0.00238074
-0.000735985
-0.00243903
-0.000799277
-0.00250061
-0.000864403
-0.00256558
-0.00263326
-4.50863e-06
-0.000303983
-1.8001e-05
-0.000787797
-4.0287e-05
-0.00116946
-7.05471e-05
-0.00145471
-0.000107502
-0.00165713
-0.000149698
-0.001795
-0.000195776
-0.00188749
-0.000244643
-0.00195157
-0.000295543
-0.00200026
-0.000348028
-0.00204231
-0.000401883
-0.00208289
-0.000457047
-0.00212469
-0.000513541
-0.00216892
-0.00057143
-0.00221608
-0.000630793
-0.00226636
-0.000691717
-0.00231982
-0.000754285
-0.00237646
-0.000818576
-0.00243632
-0.000884673
-0.00249948
-0.00256533
-4.92405e-06
-0.000299059
-1.93701e-05
-0.000773351
-4.29083e-05
-0.00114593
-7.45291e-05
-0.00142309
-0.000112829
-0.00161883
-0.000156291
-0.00175154
-0.000203541
-0.00184024
-0.0002535
-0.00190161
-0.000305434
-0.00194832
-0.000358919
-0.00198882
-0.000413758
-0.00202805
-0.000469902
-0.00206854
-0.000527378
-0.00211144
-0.000586252
-0.00215721
-0.000646603
-0.00220601
-0.000708515
-0.00225791
-0.000772071
-0.00231291
-0.000837343
-0.00237104
-0.000904408
-0.00243242
-0.00249644
-5.33164e-06
-0.000293728
-2.0709e-05
-0.000757973
-4.54649e-05
-0.00112117
-7.84048e-05
-0.00139015
-0.000118005
-0.00157923
-0.000162691
-0.00170685
-0.000211073
-0.00179186
-0.000262088
-0.0018506
-0.000315024
-0.00189539
-0.000369479
-0.00193437
-0.000425276
-0.00197225
-0.000482372
-0.00201145
-0.000540802
-0.00205301
-0.000600634
-0.00209738
-0.000661946
-0.0021447
-0.000724823
-0.00219503
-0.000789343
-0.00224838
-0.00085558
-0.00230481
-0.000923605
-0.0023644
-5.7309e-06
-0.000287997
-2.20163e-05
-0.000741688
-4.7955e-05
-0.00109523
-8.21719e-05
-0.00135593
-0.000123028
-0.00153838
-0.000168895
-0.00166099
-0.000218371
-0.00174238
-0.000270406
-0.00179856
-0.000324312
-0.00184148
-0.000379709
-0.00187897
-0.000436434
-0.00191553
-0.000494456
-0.00195342
-0.000553813
-0.00199366
-0.000614576
-0.00203662
-0.000676823
-0.00208245
-0.000740639
-0.00213121
-0.000806102
-0.00218292
-0.000873284
-0.00223763
-0.00229542
-6.12128e-06
-0.000281876
-2.32907e-05
-0.000724519
-5.03766e-05
-0.00106815
-8.58283e-05
-0.00132048
-0.000127897
-0.00149631
-0.000174902
-0.00161398
-0.000225433
-0.00169185
-0.000278453
-0.00174554
-0.000333298
-0.00178664
-0.000389607
-0.00182266
-0.000447233
-0.0018579
-0.000506153
-0.0018945
-0.00056641
-0.0019334
-0.000628076
-0.00197495
-0.000691233
-0.0020193
-0.000755963
-0.00206648
-0.000822346
-0.00211654
-0.000890455
-0.00216952
-0.00222551
-6.50232e-06
-0.000275373
-2.4531e-05
-0.00070649
-5.2728e-05
-0.00103995
-8.93723e-05
-0.00128384
-0.00013261
-0.00145307
-0.000180711
-0.00156588
-0.000232258
-0.0016403
-0.000286229
-0.00169157
-0.000341981
-0.00173089
-0.000399173
-0.00176547
-0.000457671
-0.00179941
-0.000517461
-0.00183471
-0.000578591
-0.00187227
-0.000641135
-0.00191241
-0.000705174
-0.00195526
-0.000770794
-0.00200087
-0.000838073
-0.00204926
-0.000907088
-0.0021005
-6.87354e-06
-0.0002685
-2.57359e-05
-0.000687628
-5.50074e-05
-0.00101068
-9.28019e-05
-0.00124604
-0.000137164
-0.00140871
-0.00018632
-0.00151673
-0.000238846
-0.00158778
-0.000293733
-0.00163668
-0.00035036
-0.00167426
-0.000408405
-0.00170743
-0.000467747
-0.00174006
-0.00052838
-0.00177408
-0.000590356
-0.00181029
-0.00065375
-0.00184901
-0.000718646
-0.00189036
-0.000785129
-0.00193438
-0.000853281
-0.00198111
-0.0020306
-7.2345e-06
-0.000261265
-2.69044e-05
-0.000667958
-5.72134e-05
-0.000980368
-9.61156e-05
-0.00120714
-0.00014156
-0.00136326
-0.000191729
-0.00146656
-0.000245195
-0.00153431
-0.000300965
-0.00158091
-0.000358436
-0.00161679
-0.000417304
-0.00164856
-0.000477461
-0.00167991
-0.000538909
-0.00171263
-0.000601702
-0.0017475
-0.000665919
-0.0017848
-0.000731645
-0.00182463
-0.000798966
-0.00186706
-0.000867965
-0.00191211
-0.00195984
-7.58477e-06
-0.00025368
-2.80354e-05
-0.000647507
-5.93445e-05
-0.000949059
-9.9312e-05
-0.00116717
-0.000145795
-0.00131678
-0.000196937
-0.00141541
-0.000251306
-0.00147994
-0.000307923
-0.0015243
-0.000366206
-0.0015585
-0.000425869
-0.00158889
-0.000486813
-0.00161896
-0.000549046
-0.0016504
-0.00061263
-0.00168392
-0.000677642
-0.00171978
-0.000744171
-0.00175811
-0.000812302
-0.00179893
-0.000882124
-0.00184229
-0.00188825
-7.92396e-06
-0.000245756
-2.91281e-05
-0.000626303
-6.13994e-05
-0.000916788
-0.00010239
-0.00112618
-0.000149868
-0.0012693
-0.000201942
-0.00136334
-0.000257176
-0.00142471
-0.000314608
-0.00146687
-0.000373672
-0.00149944
-0.000434098
-0.00152847
-0.0004958
-0.00155726
-0.000558791
-0.00158741
-0.000623136
-0.00161957
-0.000688917
-0.001654
-0.00075622
-0.0016908
-0.000825136
-0.00173001
-0.000895752
-0.00177167
-8.2517e-06
-0.000237505
-3.01813e-05
-0.000604373
-6.33769e-05
-0.000883592
-0.000105347
-0.00108421
-0.000153778
-0.00122087
-0.000206743
-0.00131038
-0.000262807
-0.00136865
-0.000321018
-0.00140865
-0.000380832
-0.00143963
-0.000441991
-0.00146731
-0.000504422
-0.00149483
-0.000568143
-0.00152369
-0.000633221
-0.00155449
-0.00069974
-0.00158748
-0.00076779
-0.00162275
-0.000837462
-0.00166034
-0.00170029
-8.56762e-06
-0.000228937
-3.11944e-05
-0.000581746
-6.52758e-05
-0.000849511
-0.000108183
-0.00104131
-0.000157525
-0.00117153
-0.000211341
-0.00125656
-0.000268196
-0.00131179
-0.000327154
-0.0013497
-0.000387685
-0.0013791
-0.000449549
-0.00140545
-0.000512678
-0.0014317
-0.000577099
-0.00145926
-0.000642882
-0.00148871
-0.000710111
-0.00152026
-0.00077888
-0.00155398
-0.000849279
-0.00158994
-0.00162816
-8.87138e-06
-0.000220066
-3.21666e-05
-0.000558451
-6.70951e-05
-0.000814582
-0.000110897
-0.000997505
-0.000161106
-0.00112132
-0.000215734
-0.00120193
-0.000273345
-0.00125418
-0.000333014
-0.00129003
-0.000394232
-0.00131788
-0.000456768
-0.00134291
-0.000520567
-0.0013679
-0.000585659
-0.00139417
-0.000652117
-0.00142225
-0.000720028
-0.00145234
-0.000789485
-0.00148453
-0.000860584
-0.00151884
-0.00155533
-9.16268e-06
-0.000210903
-3.3097e-05
-0.000534517
-6.88336e-05
-0.000778846
-0.000113488
-0.000952851
-0.000164522
-0.00107029
-0.000219922
-0.00114653
-0.000278251
-0.00119585
-0.000338599
-0.00122968
-0.000400471
-0.00125601
-0.00046365
-0.00127973
-0.000528089
-0.00130347
-0.000593822
-0.00132844
-0.000660925
-0.00135515
-0.000729488
-0.00138378
-0.000799605
-0.00141441
-0.000871372
-0.00144708
-9.4412e-06
-0.000201462
-3.39849e-05
-0.000509973
-7.04906e-05
-0.00074234
-0.000115954
-0.000907387
-0.000167772
-0.00101847
-0.000223904
-0.0010904
-0.000282915
-0.00113684
-0.000343908
-0.00116869
-0.000406402
-0.00119351
-0.000470194
-0.00121594
-0.000535241
-0.00123842
-0.000601586
-0.00126209
-0.000669305
-0.00128743
-0.00073849
-0.0013146
-0.000809236
-0.00134366
-0.00137467
-9.70667e-06
-0.000191755
-3.48298e-05
-0.00048485
-7.20651e-05
-0.000705105
-0.000118296
-0.000861156
-0.000170855
-0.000965909
-0.00022768
-0.00103357
-0.000287336
-0.00107718
-0.000348941
-0.00110708
-0.000412025
-0.00113043
-0.000476398
-0.00115156
-0.000542025
-0.00117279
-0.00060895
-0.00119517
-0.000677255
-0.00121913
-0.000747031
-0.00124482
-0.000818376
-0.00127232
-0.00130166
-9.95882e-06
-0.000181796
-3.5631e-05
-0.000459178
-7.35563e-05
-0.000667179
-0.000120511
-0.000814202
-0.00017377
-0.00091265
-0.000231248
-0.000976094
-0.000291515
-0.00101692
-0.000353696
-0.0010449
-0.000417339
-0.00106678
-0.000482262
-0.00108664
-0.000548437
-0.00110662
-0.000615913
-0.00112769
-0.000684772
-0.00115027
-0.000755109
-0.00117448
-0.000827022
-0.00120041
-0.00122807
-1.01974e-05
-0.000171599
-3.63879e-05
-0.000432987
-7.49635e-05
-0.000628604
-0.0001226
-0.000766566
-0.000176516
-0.000858734
-0.000234609
-0.000918001
-0.000295449
-0.000956079
-0.000358175
-0.000982175
-0.000422344
-0.00100261
-0.000487786
-0.0010212
-0.000554478
-0.00103992
-0.000622473
-0.0010597
-0.000691857
-0.00108088
-0.000762723
-0.00110362
-0.000835173
-0.00112796
-0.00115393
-1.04222e-05
-0.000161177
-3.71e-05
-0.00040631
-7.6286e-05
-0.000589418
-0.000124561
-0.000718291
-0.000179093
-0.000804201
-0.000237763
-0.000859332
-0.00029914
-0.000894701
-0.000362375
-0.000918939
-0.000427039
-0.000937951
-0.000492968
-0.000955272
-0.000560146
-0.000972746
-0.00062863
-0.000991213
-0.000698506
-0.00101101
-0.000769871
-0.00103225
-0.000842825
-0.001055
-1.06329e-05
-0.000150544
-3.77668e-05
-0.000379176
-7.75232e-05
-0.000549661
-0.000126394
-0.00066942
-0.000181502
-0.000749094
-0.000240708
-0.000800126
-0.000302586
-0.000832823
-0.000366298
-0.000855228
-0.000431423
-0.000872826
-0.000497808
-0.000888887
-0.000565441
-0.000905113
-0.000634382
-0.000922272
-0.000704719
-0.000940671
-0.00077655
-0.000960422
-0.000981573
-1.08295e-05
-0.000139714
-3.83878e-05
-0.000351617
-7.86743e-05
-0.000509375
-0.000128099
-0.000619996
-0.00018374
-0.000693453
-0.000243444
-0.000740422
-0.000305788
-0.000770479
-0.000369942
-0.000791074
-0.000435497
-0.000807271
-0.000502305
-0.000822079
-0.000570362
-0.000837056
-0.000639729
-0.000852905
-0.000710495
-0.000869904
-0.00078276
-0.000888156
-0.000907705
-1.10116e-05
-0.000128703
-3.89627e-05
-0.000323666
-7.9739e-05
-0.000468598
-0.000129675
-0.00057006
-0.000185807
-0.000637321
-0.000245971
-0.000680258
-0.000308745
-0.000707705
-0.000373307
-0.000726511
-0.000439259
-0.000741319
-0.000506459
-0.000754878
-0.000574907
-0.000768607
-0.000644668
-0.000783144
-0.000715832
-0.000798741
-0.000788499
-0.000815489
-0.00083343
-1.11792e-05
-0.000117524
-3.9491e-05
-0.000295354
-8.07167e-05
-0.000427373
-0.000131121
-0.000519656
-0.000187704
-0.000580737
-0.000248289
-0.000619673
-0.000311456
-0.000644537
-0.000376393
-0.000661574
-0.000442709
-0.000675004
-0.000510269
-0.000687318
-0.000579077
-0.000699799
-0.000649199
-0.000713022
-0.000720728
-0.000727212
-0.000793765
-0.000742452
-0.000758779
-1.1332e-05
-0.000106192
-3.99724e-05
-0.000266714
-8.1607e-05
-0.000385738
-0.000132437
-0.000468827
-0.000189429
-0.000523745
-0.000250397
-0.000558705
-0.000313922
-0.000581012
-0.0003792
-0.000596297
-0.000445847
-0.000608357
-0.000513735
-0.00061943
-0.00058287
-0.000630664
-0.000653322
-0.00064257
-0.000725183
-0.000655351
-0.000798557
-0.000669079
-0.000683788
-1.14699e-05
-9.47217e-05
-4.04065e-05
-0.000237777
-8.24093e-05
-0.000343735
-0.000133622
-0.000417614
-0.000190983
-0.000466383
-0.000252295
-0.000497394
-0.000316143
-0.000517164
-0.000381727
-0.000530712
-0.000448673
-0.000541412
-0.000516856
-0.000551247
-0.000586286
-0.000561233
-0.000657035
-0.000571822
-0.000729196
-0.00058319
-0.000802873
-0.000595402
-0.000608488
-1.15929e-05
-8.31289e-05
-4.07932e-05
-0.000208577
-8.31235e-05
-0.000301405
-0.000134677
-0.00036606
-0.000192366
-0.000408695
-0.000253983
-0.000435776
-0.000318117
-0.00045303
-0.000383974
-0.000464855
-0.000451185
-0.000474201
-0.000519631
-0.000482801
-0.000589325
-0.000491539
-0.000660338
-0.000500808
-0.000732766
-0.000510762
-0.000806713
-0.000521455
-0.000532914
-1.17007e-05
-7.14282e-05
-4.1132e-05
-0.000179146
-8.37491e-05
-0.000258788
-0.000135601
-0.000314209
-0.000193576
-0.00035072
-0.000255461
-0.000373891
-0.000319845
-0.000388646
-0.000385941
-0.000398758
-0.000453385
-0.000406758
-0.000522061
-0.000414125
-0.000591985
-0.000421615
-0.000663229
-0.000429563
-0.000735892
-0.000438099
-0.000810076
-0.000447271
-0.0004571
-1.17933e-05
-5.96349e-05
-4.14229e-05
-0.000149516
-8.42859e-05
-0.000215925
-0.000136393
-0.000262102
-0.000194613
-0.000292499
-0.000256728
-0.000311777
-0.000321327
-0.000324047
-0.000387628
-0.000332457
-0.00045527
-0.000339115
-0.000524144
-0.000345251
-0.000594266
-0.000351494
-0.000665709
-0.00035812
-0.000738572
-0.000365236
-0.00081296
-0.000372884
-0.00038108
-1.18706e-05
-4.77644e-05
-4.16656e-05
-0.000119721
-8.47336e-05
-0.000172857
-0.000137053
-0.000209782
-0.000195478
-0.000234074
-0.000257784
-0.000249472
-0.000322562
-0.000259269
-0.000389034
-0.000265985
-0.000456843
-0.000271306
-0.000525881
-0.000276213
-0.000596167
-0.000281208
-0.000667777
-0.00028651
-0.000740808
-0.000292206
-0.000815365
-0.000298327
-0.000304888
-1.19325e-05
-3.58319e-05
-4.186e-05
-8.97936e-05
-8.50921e-05
-0.000129625
-0.000137582
-0.000157292
-0.000196171
-0.000175486
-0.000258629
-0.000187014
-0.00032355
-0.000194348
-0.000390159
-0.000199377
-0.000458101
-0.000203363
-0.000527271
-0.000207043
-0.000597689
-0.000210789
-0.000669432
-0.000214767
-0.000742597
-0.000219041
-0.00081729
-0.000223634
-1.1979e-05
-2.38529e-05
-4.20058e-05
-5.97667e-05
-8.53611e-05
-8.62695e-05
-0.000137979
-0.000104674
-0.00019669
-0.000116774
-0.000259263
-0.000124441
-0.000324292
-0.000129319
-0.000391003
-0.000132666
-0.000459045
-0.000135321
-0.000528314
-0.000137774
-0.000598832
-0.000140272
-0.000670674
-0.000142925
-0.00074394
-0.000145776
-0.000148839
-1.201e-05
-1.18429e-05
-4.21032e-05
-2.96735e-05
-8.55405e-05
-4.28322e-05
-0.000138244
-5.19712e-05
-0.000197037
-5.79813e-05
-0.000259686
-6.17914e-05
-0.000324786
-6.42185e-05
-0.000391566
-6.58867e-05
-0.000459675
-6.72123e-05
-0.00052901
-6.84384e-05
-0.000599594
-6.96881e-05
-0.000671503
-7.10158e-05
-0.000744836
-7.24427e-05
-7.39764e-05
-1.20255e-05
1.82647e-07
-4.21519e-05
4.52825e-07
-8.56304e-05
6.46344e-07
-0.000138376
7.74642e-07
-0.00019721
8.52837e-07
-0.000259898
8.9622e-07
-0.000325034
9.17787e-07
-0.000391848
9.27051e-07
-0.00045999
9.30046e-07
-0.000529359
9.3008e-07
-0.000599976
9.28709e-07
-0.000671918
9.26562e-07
-0.000745285
9.23855e-07
9.20656e-07
-1.20255e-05
1.22082e-05
-4.2152e-05
3.05793e-05
-8.56306e-05
4.4125e-05
-0.000138377
5.35206e-05
-0.000197211
5.96871e-05
-0.000259899
6.3584e-05
-0.000325035
6.60543e-05
-0.000391849
6.77409e-05
-0.000459992
6.90726e-05
-0.00052936
7.02987e-05
-0.000599977
7.15457e-05
-0.00067192
7.28691e-05
-0.000745286
7.42906e-05
7.58179e-05
-1.20101e-05
2.42183e-05
-4.21035e-05
6.06727e-05
-8.55413e-05
8.75627e-05
-0.000138245
0.000106224
-0.000197038
0.000118481
-0.000259688
0.000126234
-0.000324789
0.000131155
-0.000391569
0.000134521
-0.000459679
0.000137182
-0.000529014
0.000139635
-0.000599599
0.00014213
-0.000671508
0.000144779
-0.000744841
0.000147624
0.000150681
-1.19791e-05
3.61974e-05
-4.20064e-05
9.06999e-05
-8.53623e-05
0.000130919
-0.000137981
0.000158843
-0.000196693
0.000177193
-0.000259267
0.000188808
-0.000324296
0.000196185
-0.000391008
0.000201233
-0.000459051
0.000205225
-0.000528321
0.000208905
-0.00059884
0.000212648
-0.000670683
0.000216622
-0.000743949
0.00022089
0.000225477
-1.19327e-05
4.81301e-05
-4.18607e-05
0.000120628
-8.50937e-05
0.000174152
-0.000137585
0.000211334
-0.000196175
0.000235783
-0.000258634
0.000251267
-0.000323557
0.000261107
-0.000390166
0.000267842
-0.00045811
0.000273169
-0.000527281
0.000278076
-0.000597701
0.000283068
-0.000669445
0.000288366
-0.00074261
0.000294056
-0.000817304
0.000300171
0.000306724
-1.18708e-05
6.00009e-05
-4.16666e-05
0.000150424
-8.47357e-05
0.000217221
-0.000137057
0.000263655
-0.000195483
0.000294209
-0.00025779
0.000313574
-0.00032257
0.000325887
-0.000389043
0.000334316
-0.000456854
0.000340979
-0.000525894
0.000347116
-0.000596182
0.000353356
-0.000667793
0.000359977
-0.000740825
0.000367088
-0.000815384
0.000374729
0.000382918
-1.17936e-05
7.17945e-05
-4.14241e-05
0.000180054
-8.42885e-05
0.000260085
-0.000136397
0.000315764
-0.000194619
0.000352432
-0.000256736
0.00037569
-0.000321337
0.000390488
-0.00038764
0.000400619
-0.000455285
0.000408624
-0.00052416
0.000415991
-0.000594283
0.000423479
-0.000665729
0.000431423
-0.000738594
0.000439953
-0.000812983
0.000449118
0.00045894
-1.1701e-05
8.34955e-05
-4.11335e-05
0.000209487
-8.37522e-05
0.000302704
-0.000135606
0.000367617
-0.000193583
0.000410409
-0.00025547
0.000437578
-0.000319857
0.000454875
-0.000385956
0.000466717
-0.000453401
0.00047607
-0.00052208
0.00048467
-0.000592006
0.000493405
-0.000663253
0.00050267
-0.000735917
0.000512617
-0.000810103
0.000523304
0.000534756
-1.15933e-05
9.50888e-05
-4.07948e-05
0.000238688
-8.3127e-05
0.000345036
-0.000134683
0.000419173
-0.000192374
0.0004681
-0.000253994
0.000499198
-0.000318131
0.000519012
-0.000383991
0.000532578
-0.000451205
0.000543283
-0.000519653
0.000553118
-0.000589349
0.000563101
-0.000660365
0.000573685
-0.000732795
0.000585048
-0.000806745
0.000597254
0.000610332
-1.14704e-05
0.000106559
-4.04084e-05
0.000267626
-8.24133e-05
0.000387041
-0.000133629
0.000470389
-0.000190993
0.000525464
-0.000252308
0.000560513
-0.000316159
0.000582862
-0.000381746
0.000598165
-0.000448695
0.000610231
-0.000516881
0.000621304
-0.000586314
0.000632535
-0.000657066
0.000644437
-0.00072923
0.000657212
-0.000802909
0.000670933
0.000685634
-1.13325e-05
0.000117892
-3.99744e-05
0.000296268
-8.16114e-05
0.000428678
-0.000132444
0.000521221
-0.00018944
0.000582461
-0.000250411
0.000621484
-0.00031394
0.000646391
-0.000379221
0.000663446
-0.000445872
0.000676882
-0.000513763
0.000689195
-0.000582902
0.000701674
-0.000653357
0.000714892
-0.000725221
0.000729076
-0.000798597
0.000744309
0.000760629
-1.11797e-05
0.000129071
-3.94933e-05
0.000324582
-8.07216e-05
0.000469906
-0.000131129
0.000571629
-0.000187716
0.000639048
-0.000248305
0.000682072
-0.000311476
0.000709563
-0.000376417
0.000728387
-0.000442736
0.000743201
-0.0005103
0.000756759
-0.000579112
0.000770485
-0.000649238
0.000785018
-0.00072077
0.000800608
-0.00079381
0.00081735
0.000835282
-1.10122e-05
0.000140084
-3.89652e-05
0.000352535
-7.97444e-05
0.000510686
-0.000129684
0.000621568
-0.00018582
0.000695184
-0.000245988
0.00074224
-0.000308766
0.000772341
-0.000373333
0.000792954
-0.000439289
0.000809156
-0.000506493
0.000823964
-0.000574945
0.000838938
-0.00064471
0.000854782
-0.000715877
0.000871775
-0.000788548
0.000890021
0.000909561
-1.08301e-05
0.000150914
-3.83905e-05
0.000380095
-7.86802e-05
0.000550975
-0.000128109
0.000670996
-0.000183754
0.000750829
-0.000243463
0.000801949
-0.000305812
0.000834689
-0.00036997
0.000857112
-0.000435529
0.000874716
-0.000502342
0.000890777
-0.000570403