/*--------------------------------*- C++ -*----------------------------------*\
  =========                 |
  \\      /  F ield         | OpenFOAM: The Open Source CFD Toolbox
   \\    /   O peration     | Website:  https://openfoam.org
    \\  /    A nd           | Version:  7
     \\/     M anipulation  |
\*---------------------------------------------------------------------------*/
FoamFile
{
    version     2.0;
    format      ascii;
    class       volVectorField;
    location    "60";
    object      U;
}
// * * * * * * * * * * * * * * * * * * * * * * * * * * * * * * * * * * * * * //

dimensions      [0 1 -1 0 0 0 0];

internalField   nonuniform List<vector> 
4575
(
(1.0985 0.370835 -4.98973e-21)
(1.09352 0.38605 1.51e-20)
(1.0904 0.372794 -1.2095e-20)
(1.09011 0.419956 -1.93139e-20)
(1.08712 0.403508 8.7139e-21)
(1.08484 0.388053 1.18451e-21)
(1.08214 0.374549 1.00105e-20)
(1.08397 0.440035 -1.3297e-20)
(1.08033 0.422386 3.41302e-20)
(1.07779 0.405572 -1.12898e-21)
(1.07597 0.389831 -4.13203e-21)
(1.0737 0.376093 2.61309e-22)
(1.07772 0.461613 2.32979e-20)
(1.07351 0.442607 -1.09571e-20)
(1.07033 0.42456 -1.60912e-20)
(1.06825 0.407391 3.18651e-21)
(1.0669 0.391375 -6.39912e-21)
(1.06509 0.377415 -1.28987e-21)
(1.07114 0.48469 -1.38685e-20)
(1.06655 0.464331 -3.3313e-21)
(1.06282 0.444898 1.72012e-21)
(1.06011 0.426466 -1.9804e-21)
(1.05851 0.408954 5.53505e-22)
(1.05765 0.392675 -7.70626e-22)
(1.05632 0.378508 1.32496e-21)
(1.06387 0.509211 3.61221e-20)
(1.05919 0.487557 -8.51771e-21)
(1.05513 0.466736 -1.24808e-21)
(1.05191 0.446894 1.33374e-20)
(1.04968 0.428095 6.36444e-22)
(1.04857 0.410253 2.83709e-21)
(1.04822 0.393721 -1.85559e-21)
(1.04739 0.379363 -3.22842e-21)
(1.05544 0.535004 2.44972e-21)
(1.0511 0.512236 7.78541e-21)
(1.04699 0.490074 1.39442e-20)
(1.04349 0.468816 3.16032e-22)
(1.04079 0.448585 2.69125e-21)
(1.03906 0.429434 -5.34862e-21)
(1.03845 0.411276 -2.16374e-21)
(1.03861 0.394505 3.33636e-21)
(1.03832 0.379969 2.19355e-21)
(1.04508 0.561637 -4.60453e-20)
(1.0418 0.538212 -4.71012e-20)
(1.03805 0.514867 -1.98271e-20)
(1.03455 0.492227 -1.47636e-20)
(1.03163 0.470556 -1.68962e-21)
(1.02948 0.449959 -1.13766e-23)
(1.02825 0.430474 -1.54526e-21)
(1.02815 0.412016 -6.95901e-22)
(1.02883 0.395018 2.05369e-20)
(1.02909 0.380318 -1.07711e-20)
(1.03161 0.588195 -8.75422e-21)
(1.03059 0.565079 3.48088e-20)
(1.02785 0.540975 3.96558e-20)
(1.02473 0.517089 4.57927e-21)
(1.02188 0.494002 1.39787e-20)
(1.01958 0.471945 -6.28117e-22)
(1.01799 0.451005 -8.72187e-22)
(1.01728 0.431206 2.43308e-21)
(1.01768 0.412465 6.6239e-21)
(1.01888 0.395252 -7.57114e-21)
(1.01972 0.380401 -1.11674e-20)
(1.01309 0.612986 1.56829e-20)
(1.01633 0.591959 1.81483e-20)
(1.01574 0.568016 1.10566e-20)
(1.01362 0.543277 -2.14857e-20)
(1.01117 0.518889 -1.13779e-20)
(1.00899 0.495385 -5.27526e-21)
(1.00734 0.472971 3.56688e-21)
(1.00633 0.451712 4.92475e-21)
(1.00615 0.431621 7.7931e-21)
(1.00705 0.412614 4.19692e-21)
(1.00877 0.395197 -1.34798e-20)
(1.01021 0.380209 -1.24183e-21)
(0.986578 0.633191 -2.21844e-20)
(0.997173 0.617199 -6.9774e-20)
(1.00064 0.595148 -4.30147e-20)
(1.00058 0.570432 -9.31226e-21)
(0.999118 0.545104 1.13955e-20)
(0.997389 0.520251 6.84594e-21)
(0.995917 0.496364 2.38019e-21)
(0.994925 0.47362 -3.92385e-21)
(0.99453 0.452069 5.15874e-21)
(0.994888 0.431708 -7.35662e-21)
(0.996293 0.412456 -3.17008e-21)
(0.998519 0.394848 -1.94761e-20)
(1.00057 0.37973 1.80295e-20)
(0.947943 0.644542 -2.83254e-20)
(0.970305 0.638008 4.39275e-20)
(0.980803 0.620758 4.32419e-20)
(0.984602 0.597746 1.30451e-20)
(0.985122 0.572313 1.07883e-20)
(0.984372 0.546442 -1.38488e-21)
(0.983394 0.521163 1.85679e-21)
(0.98266 0.496926 5.46783e-21)
(0.982361 0.473882 -2.29419e-20)
(0.982594 0.452065 -1.19847e-20)
(0.983506 0.43146 -1.7354e-20)
(0.98541 0.411985 -2.55532e-20)
(0.988124 0.394197 4.37648e-20)
(0.990801 0.378955 2.46054e-20)
(0.891853 0.641154 -1.63501e-20)
(0.931708 0.650112 5.12221e-21)
(0.953503 0.642087 -5.3257e-21)
(0.964015 0.623647 2.73208e-20)
(0.968228 0.59974 -1.71196e-20)
(0.969395 0.573646 -1.0988e-21)
(0.969402 0.547279 3.01112e-21)
(0.969209 0.521612 -6.39583e-21)
(0.969241 0.497058 -1.4987e-20)
(0.969661 0.473745 3.01771e-20)
(0.970544 0.451691 1.5112e-20)
(0.972027 0.430867 2.1927e-20)
(0.974425 0.411194 3.33245e-20)
(0.977606 0.393236 3.14274e-20)
(0.980923 0.377869 -3.94286e-20)
(0.876171 0.647553 -5.14596e-21)
(0.914863 0.654864 -1.96235e-20)
(0.936217 0.645413 -5.09339e-21)
(0.946847 0.625854 -2.44591e-20)
(0.951552 0.601117 1.56027e-20)
(0.953424 0.574418 -3.44322e-22)
(0.954229 0.547602 -4.12633e-21)
(0.954853 0.521586 -1.34148e-20)
(0.955677 0.496749 -6.55107e-21)
(0.95684 0.473197 -4.51956e-20)
(0.958398 0.450934 -3.21221e-20)
(0.960471 0.429919 -7.75661e-21)
(0.963363 0.410076 5.29056e-20)
(0.966984 0.391957 -3.25331e-20)
(0.970952 0.376455 1.03456e-20)
(0.797575 0.622774 -2.46552e-20)
(0.859801 0.653072 -1.48924e-20)
(0.897457 0.658782 -1.20436e-20)
(0.918489 0.647973 1.20925e-20)
(0.929333 0.627366 3.74345e-21)
(0.934604 0.601865 -3.9491e-21)
(0.937234 0.574616 -1.3475e-20)
(0.938875 0.547398 -6.03914e-21)
(0.940344 0.521074 9.99381e-21)
(0.941985 0.495988 1.36367e-21)
(0.943914 0.472227 1.33471e-20)
(0.946172 0.449784 8.46856e-21)
(0.948859 0.428605 1.47515e-20)
(0.952249 0.408622 2.51701e-20)
(0.956282 0.390348 -9.17409e-20)
(0.960907 0.374686 2.09992e-20)
(0.689517 0.567145 1.70508e-22)
(0.782311 0.629013 2.72971e-20)
(0.842794 0.657692 2.96159e-20)
(0.879538 0.66185 1.28589e-20)
(0.900361 0.649753 -9.62981e-21)
(0.911512 0.628172 1.59176e-21)
(0.917415 0.601972 6.39113e-21)
(0.92085 0.574232 1.92061e-20)
(0.923362 0.546659 2.626e-20)
(0.925702 0.520066 9.31187e-21)
(0.92818 0.494764 5.86449e-21)
(0.930898 0.470825 -4.78692e-21)
(0.933881 0.448229 5.21832e-20)
(0.937212 0.426914 -4.17302e-20)
(0.941109 0.406821 1.5208e-20)
(0.945524 0.388391 9.75559e-20)
(0.95081 0.372521 5.66275e-20)
(0.676078 0.573792 -3.59463e-20)
(0.766351 0.634318 -8.19077e-21)
(0.825202 0.661394 1.97085e-20)
(0.861155 0.664056 -1.77336e-20)
(0.881875 0.650742 -1.36793e-21)
(0.893417 0.62826 4.44288e-21)
(0.900016 0.601429 -2.32167e-20)
(0.9043 0.573254 -1.81998e-20)
(0.907712 0.545373 -2.41177e-20)
(0.910946 0.518552 -5.53914e-20)
(0.914281 0.493069 3.37106e-20)
(0.917806 0.468982 -4.36316e-21)
(0.921539 0.446258 -5.40779e-20)
(0.925548 0.424833 -1.7281e-20)
(0.929967 0.404664 -6.09684e-20)
(0.93474 0.386069 2.89296e-20)
(0.94072 0.369904 -6.70895e-20)
(0.535367 0.478148 3.59954e-20)
(0.661929 0.579529 4.68772e-20)
(0.749752 0.638669 1.42203e-20)
(0.80708 0.664163 -3.43123e-21)
(0.842356 0.665386 3.93067e-21)
(0.863075 0.65093 5.48811e-21)
(0.875086 0.627621 -2.40165e-20)
(0.882436 0.600226 -4.06991e-21)
(0.887608 0.571673 1.31621e-20)
(0.891948 0.543534 1.60474e-20)
(0.896095 0.516523 5.03318e-20)
(0.900303 0.490895 -3.96507e-21)
(0.904651 0.466689 -1.40853e-20)
(0.909158 0.443861 -6.10358e-21)
(0.913877 0.422351 3.47043e-20)
(0.918838 0.402135 6.5674e-20)
(0.923985 0.38336 -1.0871e-19)
(0.930805 0.366793 7.24528e-20)
(0.355879 0.333631 6.42859e-20)
(0.523884 0.483747 -2.65071e-20)
(0.647122 0.584334 -2.73082e-20)
(0.732567 0.642048 -1.07389e-20)
(0.78848 0.665985 4.45543e-21)
(0.82319 0.665832 -6.4618e-21)
(0.844002 0.650309 -1.94893e-20)
(0.856555 0.626249 9.23004e-21)
(0.864708 0.598356 6.33542e-20)
(0.870802 0.569483 2.51439e-22)
(0.876093 0.541132 -2.14625e-20)
(0.881169 0.513974 -2.41635e-20)
(0.886263 0.488235 -1.77982e-20)
(0.891446 0.463939 -2.52701e-21)
(0.896744 0.44103 6.51473e-20)
(0.902195 0.41945 -2.45676e-20)
(0.907721 0.399198 -4.69531e-20)
(0.913354 0.380205 -1.55959e-21)
(0.921281 0.363179 -1.01647e-19)
(0.348013 0.33814 -2.3579e-20)
(0.511787 0.488517 1.99678e-20)
(0.631708 0.588185 2.2164e-20)
(0.714853 0.64444 -3.24103e-21)
(0.769456 0.66685 -4.40474e-21)
(0.803705 0.665384 2.66599e-20)
(0.824698 0.648872 5.11882e-21)
(0.83786 0.624135 6.04048e-21)
(0.846861 0.595813 -4.44216e-20)
(0.853908 0.566676 -4.87163e-20)
(0.860171 0.538163 -5.05951e-21)
(0.86619 0.510899 1.84152e-21)
(0.872179 0.485085 -2.08953e-20)
(0.878204 0.460729 1.90005e-20)
(0.8843 0.437762 5.20358e-20)
(0.890483 0.416123 1.51967e-20)
(0.896595 0.395811 -8.74753e-20)
(0.902936 0.376453 -2.8267e-21)
(0.912067 0.358825 3.21354e-20)
(0.132796 0.134861 1.02947e-20)
(0.339672 0.342033 1.93685e-21)
(0.499124 0.492435 -1.21195e-20)
(0.615743 0.591065 -9.06146e-21)
(0.696665 0.645832 7.38714e-21)
(0.750061 0.666748 1.65867e-20)
(0.783948 0.664036 -3.08789e-20)
(0.805205 0.646612 -3.08275e-20)
(0.819035 0.621275 3.62976e-20)
(0.828927 0.59259 8.38142e-20)
(0.836954 0.563247 4.99578e-20)
(0.844205 0.534621 -1.69951e-20)
(0.851178 0.507295 -1.09493e-20)
(0.858069 0.481443 -3.89541e-21)
(0.86494 0.45706 -5.64366e-20)
(0.871829 0.434064 -2.91483e-20)
(0.878725 0.412391 -3.24005e-20)
(0.885456 0.392016 1.02822e-19)
(0.892765 0.372114 -2.35783e-20)
(0.902264 0.352116 8.70348e-20)
(0.12957 0.136645 5.70897e-21)
(0.330892 0.345293 -8.92654e-21)
(0.485942 0.495483 1.62563e-21)
(0.599281 0.592957 -2.00358e-22)
(0.678059 0.646212 -9.93072e-21)
(0.730347 0.665671 -2.12002e-20)
(0.763967 0.661782 1.03441e-20)
(0.785564 0.643525 4.61773e-20)
(0.800118 0.617664 -1.04005e-19)
(0.810937 0.588684 1.46321e-20)
(0.819966 0.559193 -2.95823e-20)
(0.828219 0.530503 3.27651e-20)
(0.836156 0.503157 2.85332e-20)
(0.843953 0.477307 4.50427e-20)
(0.851672 0.452934 1.86811e-20)
(0.859346 0.429948 4.80976e-20)
(0.866943 0.408281 2.24909e-20)
(0.874332 0.387904 -6.21233e-21)
(0.882467 0.368008 4.91397e-20)
(0.891892 0.348243 7.26911e-21)
(0.126148 0.138162 8.36283e-21)
(0.321708 0.347904 -4.9098e-21)
(0.472289 0.497644 9.17873e-21)
(0.582377 0.59385 -6.77259e-21)
(0.659091 0.645573 1.09638e-20)
(0.710368 0.663615 6.19069e-21)
(0.743809 0.658619 4.6289e-20)
(0.765817 0.639608 1.25122e-20)
(0.781145 0.613299 6.40539e-20)
(0.792921 0.584091 3.66795e-20)
(0.802973 0.55451 -9.52517e-20)
(0.81224 0.525806 3.56782e-21)
(0.821146 0.498484 -8.55868e-20)
(0.829854 0.472676 -5.76912e-21)
(0.838421 0.448352 -3.58298e-20)
(0.846877 0.425415 5.45661e-20)
(0.855173 0.403796 -8.30825e-20)
(0.863216 0.383451 -2.10083e-20)
(0.871949 0.363579 -3.09951e-20)
(0.881327 0.343924 -1.10651e-19)
(0.122545 0.139405 2.83288e-21)
(0.312155 0.34985 2.13597e-20)
(0.458216 0.498903 1.95808e-21)
(0.565085 0.593731 -7.44995e-21)
(0.639817 0.643906 2.47043e-20)
(0.690175 0.660574 -2.38131e-20)
(0.723522 0.654544 2.49374e-20)
(0.746005 0.634861 -9.04922e-20)
(0.76215 0.608179 -6.02768e-20)
(0.774913 0.578809 -1.07226e-19)
(0.786002 0.549195 6.5648e-20)
(0.796291 0.520528 -3.11019e-21)
(0.806172 0.493275 -1.26627e-20)
(0.815793 0.46755 -2.86383e-20)
(0.825209 0.443314 -4.02671e-20)
(0.834445 0.420465 2.07621e-20)
(0.843448 0.398936 6.6654e-20)
(0.852151 0.37867 -3.51656e-20)
(0.86144 0.358897 4.51052e-20)
(0.870978 0.339488 1.26841e-19)
(0.118775 0.140364 9.97562e-21)
(0.30227 0.351118 -1.31147e-20)
(0.44377 0.499249 1.27281e-20)
(0.547463 0.592594 3.13641e-20)
(0.620292 0.641209 1.60094e-20)
(0.669821 0.656549 4.8817e-20)
(0.703152 0.649558 -3.90284e-20)
(0.726168 0.629282 -1.96971e-20)
(0.74317 0.602304 -1.64784e-20)
(0.756942 0.572839 7.01254e-20)
(0.769081 0.543249 -1.64153e-19)
(0.7804 0.514668 -6.50942e-20)
(0.791257 0.487529 1.82818e-20)
(0.801792 0.461929 2.4112e-20)
(0.812056 0.437819 8.20973e-20)
(0.822073 0.415097 -1.12565e-19)
(0.831789 0.393696 3.25911e-20)
(0.841153 0.37355 1.95002e-20)
(0.850998 0.353932 -2.73871e-20)
(0.860831 0.334832 -9.51535e-20)
(0.114855 0.141034 3.6582e-21)
(0.29209 0.351696 -4.27408e-20)
(0.429002 0.498672 1.05109e-21)
(0.529565 0.590432 3.17184e-20)
(0.600573 0.637478 -3.89951e-20)
(0.649357 0.651539 -7.39473e-20)
(0.682744 0.643662 9.35622e-21)
(0.706347 0.622873 4.95442e-20)
(0.724239 0.595673 1.179e-19)
(0.739039 0.566179 -1.16358e-19)
(0.752239 0.536672 9.90274e-20)
(0.76459 0.508227 1.1682e-19)
(0.776425 0.481247 9.28219e-20)
(0.787874 0.455812 6.59603e-20)
(0.798986 0.431868 -1.40148e-19)
(0.809784 0.409312 -1.10792e-21)
(0.820214 0.388076 -3.64392e-20)
(0.830242 0.368089 1.37756e-19)
(0.840655 0.348669 -6.13743e-21)
(0.850863 0.3299 -6.53115e-20)
(0.1108 0.141408 9.70859e-21)
(0.281653 0.351576 1.76662e-20)
(0.413963 0.497165 1.93674e-21)
(0.511446 0.587242 -1.96217e-20)
(0.580713 0.632716 -2.12969e-20)
(0.628835 0.645548 1.26479e-21)
(0.662345 0.636859 -2.82551e-20)
(0.686582 0.615638 -4.69854e-20)
(0.705394 0.588291 3.72453e-20)
(0.721237 0.558833 9.29216e-20)
(0.735503 0.529464 2.41446e-21)
(0.748888 0.501205 3.78617e-20)
(0.7617 0.474428 -5.85748e-20)
(0.774061 0.4492 -7.25473e-20)
(0.786018 0.425461 1.79275e-19)
(0.797596 0.403109 7.08472e-20)
(0.808744 0.382074 -7.17771e-20)
(0.819439 0.362281 -8.19561e-20)
(0.830431 0.343097 -9.05556e-20)
(0.841066 0.324672 -7.60388e-21)
(0.106626 0.141481 -6.90553e-20)
(0.270997 0.35075 -1.41184e-20)
(0.398702 0.494725 -3.16039e-20)
(0.493162 0.583024 -5.87569e-20)
(0.560767 0.626923 9.85947e-20)
(0.608304 0.638578 -8.14528e-20)
(0.641999 0.629153 1.14727e-19)
(0.666912 0.60758 -2.53652e-22)
(0.686668 0.580159 -3.57559e-20)
(0.703566 0.550803 2.90767e-20)
(0.718902 0.521628 2.10033e-20)
(0.733319 0.493605 -1.0541e-19)
(0.747105 0.467076 1.08996e-19)
(0.760375 0.442096 6.50268e-20)
(0.773175 0.4186 -2.53661e-20)
(0.785531 0.396487 -4.78381e-20)
(0.797396 0.375688 4.12214e-20)
(0.808761 0.356124 -6.92237e-20)
(0.820343 0.337207 -9.48571e-20)
(0.831437 0.319134 8.99502e-20)
(0.10235 0.14125 9.24589e-20)
(0.26016 0.349214 -5.36459e-20)
(0.383271 0.491348 -2.75399e-20)
(0.474767 0.57778 3.55848e-20)
(0.540789 0.620105 1.00528e-20)
(0.587814 0.630637 2.96264e-20)
(0.621751 0.620553 2.79738e-20)
(0.647377 0.598706 7.86853e-20)
(0.668096 0.571284 9.1662e-20)
(0.686057 0.542093 -8.65312e-20)
(0.702462 0.513168 1.04187e-19)
(0.717909 0.485429 -1.1829e-19)
(0.732665 0.459193 1.51972e-20)
(0.746838 0.434501 -4.56748e-20)
(0.760476 0.411286 3.18706e-20)
(0.773607 0.389448 2.95332e-20)
(0.78619 0.368919 -1.80405e-20)
(0.798225 0.349615 1.72788e-19)
(0.810402 0.330992 -2.20417e-20)
(0.821978 0.31328 -7.66456e-20)
(0.097989 0.140711 -7.29891e-20)
(0.24918 0.346964 9.32724e-20)
(0.367718 0.487035 -1.74481e-20)
(0.456317 0.571513 -1.0242e-19)
(0.520832 0.612269 7.06212e-20)
(0.567414 0.621732 -2.47425e-20)
(0.601644 0.611064 -8.68758e-20)
(0.628014 0.589022 -1.31943e-20)
(0.649713 0.561672 -1.9339e-19)
(0.66874 0.532709 1.80604e-19)
(0.686213 0.504089 -1.9808e-20)
(0.702684 0.476682 4.93352e-20)
(0.718402 0.450782 5.81212e-20)
(0.733472 0.426418 2.28572e-20)
(0.747943 0.403523 -1.5443e-19)
(0.761844 0.381994 3.38993e-20)
(0.775141 0.361766 3.16075e-20)
(0.787845 0.342752 -1.03466e-19)
(0.800621 0.32445 3.85643e-20)
(0.812691 0.307107 1.44192e-20)
(0.0935588 0.139862 -6.14831e-20)
(0.238097 0.343999 -6.2968e-20)
(0.352096 0.48179 1.24293e-19)
(0.437864 0.56423 8.7932e-20)
(0.500948 0.603423 -7.10644e-20)
(0.547153 0.611873 8.15624e-21)
(0.581721 0.600697 5.45293e-20)
(0.608863 0.578538 1.63574e-20)
(0.631551 0.55133 -2.11694e-21)
(0.651646 0.522657 2.84386e-20)
(0.67018 0.494395 -4.9162e-20)
(0.687667 0.467369 -6.30745e-21)
(0.70434 0.441848 -1.80673e-19)
(0.720298 0.417853 -1.36195e-19)
(0.735594 0.395312 -2.22348e-20)
(0.75026 0.374127 -1.88767e-20)
(0.764266 0.354231 -2.04778e-20)
(0.777637 0.335536 -4.08802e-20)
(0.791009 0.317579 -4.6719e-20)
(0.0890767 0.138703 1.52841e-20)
(0.226948 0.340322 1.39124e-19)
(0.336452 0.475617 -5.57873e-20)
(0.419462 0.555941 -8.33562e-20)
(0.481189 0.593579 -7.75715e-21)
(0.527077 0.601073 1.14635e-19)
(0.562025 0.589464 -1.16264e-19)
(0.589959 0.567263 2.28514e-20)
(0.613644 0.540267 -1.67277e-20)
(0.634803 0.511945 -1.7108e-19)
(0.654392 0.484095 -1.59057e-19)
(0.672885 0.457496 2.9043e-20)
(0.690501 0.432396 2.47278e-19)
(0.707338 0.408808 3.66745e-20)
(0.72345 0.386659 9.62414e-20)
(0.738873 0.365851 -1.46893e-19)
(0.753582 0.346317 -3.43649e-20)
(0.767615 0.327969 1.68531e-19)
(0.781579 0.31038 7.40427e-20)
(0.0845595 0.137233 5.21175e-20)
(0.215772 0.335935 5.03173e-20)
(0.320836 0.468524 -1.22781e-19)
(0.401164 0.546655 -4.71004e-21)
(0.461606 0.58275 -5.13302e-20)
(0.507233 0.589345 -6.77399e-20)
(0.542596 0.577377 2.11319e-20)
(0.57134 0.55521 -6.32385e-20)
(0.596025 0.528494 1.19175e-19)
(0.618242 0.500581 -7.22369e-20)
(0.638874 0.473195 5.26617e-20)
(0.658361 0.44707 1.17998e-19)
(0.676908 0.422433 -8.00572e-20)
(0.694612 0.399291 2.01688e-20)
(0.71153 0.377568 9.47168e-20)
(0.727699 0.357169 1.1791e-19)
(0.743105 0.338026 -6.04455e-20)
(0.757792 0.320053 -3.43958e-20)
(0.772341 0.302854 5.1494e-20)
(0.0800241 0.135453 -1.23031e-19)
(0.204607 0.330843 4.39673e-20)
(0.305297 0.460521 1.39842e-19)
(0.383019 0.536387 1.6079e-20)
(0.442248 0.570951 -1.93336e-20)
(0.487666 0.576703 -3.30382e-20)
(0.523476 0.56445 -1.80765e-20)
(0.553042 0.542391 7.75491e-20)
(0.578725 0.516021 -1.13218e-19)
(0.601991 0.488577 2.63276e-19)
(0.623653 0.461706 1.07999e-19)
(0.644119 0.4361 -3.58281e-20)
(0.663584 0.411967 -1.12957e-20)
(0.682141 0.389308 4.60604e-20)
(0.699851 0.368046 -1.25584e-19)
(0.716758 0.348087 1.01354e-20)
(0.732849 0.329365 -7.81733e-20)
(0.748182 0.311792 -3.43205e-20)
(0.0754874 0.133365 -2.35282e-20)
(0.19349 0.325054 -1.43288e-19)
(0.289882 0.451619 9.74742e-20)
(0.365079 0.525152 -1.46209e-20)
(0.423162 0.558199 7.37988e-20)
(0.468421 0.563166 2.54292e-20)
(0.504703 0.5507 -4.02801e-21)
(0.535099 0.52882 5.20076e-20)
(0.561776 0.502862 -3.13265e-20)
(0.586078 0.475944 -9.49444e-20)
(0.608755 0.449637 1.01137e-19)
(0.630184 0.424595 1.06651e-19)
(0.650549 0.401006 -3.78471e-22)
(0.669945 0.378867 -2.36157e-20)
(0.688434 0.358099 -1.30626e-20)
(0.706064 0.338612 9.65478e-20)
(0.722831 0.320338 8.56325e-20)
(0.738798 0.303191 2.36249e-20)
(0.0709661 0.130972 1.11987e-19)
(0.182459 0.318576 1.60336e-19)
(0.274637 0.441834 -9.17301e-20)
(0.347393 0.512967 -6.92081e-21)
(0.404398 0.544512 -1.28372e-19)
(0.44954 0.548751 7.88067e-20)
(0.486316 0.536144 -3.08597e-20)
(0.517546 0.514513 -6.01739e-20)
(0.545208 0.489031 -2.23744e-20)
(0.570532 0.462694 -3.076e-21)
(0.594204 0.437001 -2.21698e-19)
(0.616577 0.412564 -2.76248e-19)
(0.637825 0.38956 -4.20803e-20)
(0.658042 0.367976 9.31681e-20)
(0.677295 0.347735 -3.6072e-20)
(0.695634 0.32875 -1.81438e-19)
(0.713063 0.310952 1.67869e-19)
(0.729653 0.294256 2.38336e-20)
(0.0664767 0.128277 -1.83441e-19)
(0.17155 0.31142 6.03775e-20)
(0.25961 0.431181 -5.05823e-20)
(0.330009 0.499853 6.73974e-20)
(0.386 0.529913 1.28269e-19)
(0.431065 0.533479 -7.97203e-20)
(0.468353 0.5208 1.44717e-19)
(0.500416 0.499488 -4.93329e-20)
(0.52905 0.474543 7.34633e-20)
(0.555378 0.448842 1.38092e-19)
(0.580026 0.423808 7.41349e-20)
(0.603322 0.400021 3.07462e-19)
(0.625433 0.377639 1.38704e-19)
(0.646453 0.356644 -1.14039e-20)
(0.666452 0.336964 -6.90768e-21)
(0.685485 0.318509 2.30797e-20)
(0.703562 0.301213 -1.85155e-19)
(0.72076 0.284994 -9.77576e-20)
(0.0620355 0.125285 1.0132e-19)
(0.160798 0.303599 -2.90445e-20)
(0.244844 0.419679 -1.29953e-19)
(0.312974 0.48583 -1.17926e-19)
(0.368013 0.514422 -2.09181e-20)
(0.413038 0.517372 1.53011e-20)
(0.450849 0.504689 -1.83903e-19)
(0.483741 0.483763 1.36544e-19)
(0.513334 0.459415 -6.23528e-20)
(0.540643 0.434401 -1.40976e-19)
(0.566245 0.410074 -3.36047e-20)
(0.590441 0.386977 -1.26757e-19)
(0.613392 0.365253 -2.59992e-19)
(0.635195 0.344884 2.18296e-20)
(0.655922 0.325794 1.99974e-19)
(0.675631 0.307898 -8.60963e-20)
(0.69434 0.291131 1.03743e-19)
(0.0576584 0.122001 -1.78911e-20)
(0.150239 0.295127 -2.40305e-19)
(0.230383 0.407348 2.38954e-19)
(0.296333 0.470923 -5.84181e-20)
(0.350481 0.498066 8.2535e-20)
(0.395497 0.500453 4.7966e-20)
(0.433841 0.487833 1.94797e-19)
(0.467553 0.467357 -2.31748e-19)
(0.498085 0.443664 1.79421e-19)
(0.526354 0.419389 1.40988e-19)
(0.552883 0.395813 -3.99341e-20)
(0.577955 0.373445 -2.09716e-20)
(0.601724 0.352417 7.56053e-20)
(0.624288 0.332705 -1.2824e-19)
(0.645722 0.314236 -1.69256e-19)
(0.666088 0.296928 6.33988e-20)
(0.685412 0.280714 -6.31958e-20)
(0.0533612 0.118432 -1.77345e-20)
(0.139907 0.286021 7.87618e-20)
(0.216269 0.39421 8.75437e-20)
(0.280131 0.455157 -1.50995e-19)
(0.333446 0.480869 7.64761e-20)
(0.378481 0.482747 -1.94398e-19)
(0.417362 0.470255 -1.55453e-20)
(0.451882 0.450292 1.13073e-20)
(0.483332 0.42731 -1.89667e-20)
(0.512533 0.403821 -1.76685e-19)
(0.539963 0.38104 -7.50444e-21)
(0.565884 0.359441 -2.79328e-20)
(0.590446 0.339143 1.65819e-19)
(0.613747 0.32012 -5.07794e-20)
(0.635867 0.302302 -1.42595e-20)
(0.656871 0.285607 8.32819e-20)
(0.67679 0.269972 2.3962e-19)
(0.0491593 0.114585 -3.32087e-20)
(0.129834 0.276297 -1.9432e-20)
(0.202544 0.380291 -9.63395e-20)
(0.264409 0.43856 5.78567e-20)
(0.316947 0.462859 1.5561e-19)
(0.362026 0.464282 -8.34504e-20)
(0.401445 0.451978 -1.32796e-19)
(0.436758 0.432589 1.28655e-19)
(0.469101 0.410372 -4.23056e-20)
(0.499207 0.387718 1.15743e-19)
(0.527508 0.365772 5.20475e-20)
(0.55425 0.344978 -2.99895e-20)
(0.579578 0.325444 -1.12817e-19)
(0.603592 0.307142 1.37559e-19)
(0.626374 0.290003 -3.3918e-20)
(0.647994 0.273948 -1.46061e-19)
(0.668489 0.258914 -4.95553e-20)
(0.0450674 0.110468 6.42069e-20)
(0.120053 0.265976 2.30239e-20)
(0.189247 0.365615 -1.81333e-20)
(0.249209 0.421159 -5.03565e-20)
(0.301024 0.444067 -3.70523e-20)
(0.346168 0.445084 2.07312e-19)
(0.386121 0.43303 3.67966e-20)
(0.422208 0.414271 9.72887e-20)
(0.455417 0.392872 7.10617e-20)
(0.486396 0.371097 -1.91224e-19)
(0.515538 0.350026 -9.8628e-20)
(0.543071 0.330074 1.7994e-19)
(0.569136 0.311337 -5.95237e-21)
(0.593837 0.293785 -1.42084e-19)
(0.617257 0.277352 3.59099e-20)
(0.63947 0.261962 1.70297e-19)
(0.0411 0.10609 7.34171e-20)
(0.110596 0.255078 -9.41414e-20)
(0.176417 0.350212 -4.14902e-20)
(0.23457 0.402987 -9.0585e-21)
(0.285714 0.424522 -1.18465e-19)
(0.330941 0.425182 -6.16103e-20)
(0.371421 0.413436 -2.53382e-20)
(0.40826 0.395364 -1.94486e-19)
(0.442305 0.374831 -1.45251e-19)
(0.474125 0.353979 1.89435e-19)
(0.504074 0.333823 1.03392e-19)
(0.532366 0.314746 -7.95955e-20)
(0.559139 0.296836 -9.05189e-20)
(0.584498 0.280064 9.65748e-20)
(0.60853 0.264363 -5.37643e-20)
(0.631313 0.249662 7.63111e-20)
(0.037271 0.10146 8.87359e-20)
(0.10149 0.243626 -1.39959e-19)
(0.164089 0.33411 3.98148e-20)
(0.22053 0.384075 6.8439e-20)
(0.271053 0.404256 -5.51498e-22)
(0.316376 0.404608 -8.24282e-20)
(0.357374 0.393224 7.09272e-20)
(0.39494 0.375893 2.58425e-20)
(0.429788 0.356273 -7.548e-20)
(0.462414 0.336385 4.95672e-20)
(0.493135 0.317179 -1.29491e-19)
(0.522153 0.299011 -2.83891e-20)
(0.549603 0.281959 1.14435e-19)
(0.575591 0.265993 4.00153e-20)
(0.600209 0.25105 6.19899e-20)
(0.623535 0.23706 -1.15449e-19)
(0.0335938 0.096588 -8.90897e-20)
(0.0927663 0.231644 -3.54564e-20)
(0.152298 0.31734 6.89508e-20)
(0.207125 0.364458 -1.39975e-19)
(0.257074 0.383304 -6.68259e-20)
(0.302506 0.383393 1.42737e-19)
(0.344007 0.372424 2.22351e-19)
(0.382272 0.355883 6.22046e-20)
(0.417888 0.337222 8.31603e-20)
(0.451283 0.318338 -1.25065e-21)
(0.48274 0.300117 3.82345e-20)
(0.512449 0.282889 1.31579e-19)
(0.540543 0.266723 -1.90372e-20)
(0.567131 0.25159 -2.27817e-19)
(0.592305 0.237428 1.92575e-21)
(0.61615 0.224172 1.24482e-20)
(0.0300813 0.0914859 2.78574e-20)
(0.0844505 0.219156 -7.02818e-20)
(0.141079 0.299935 2.43432e-19)
(0.194388 0.34417 1.26842e-21)
(0.24381 0.361701 8.83837e-20)
(0.289358 0.361569 8.50702e-20)
(0.331346 0.351066 -8.28558e-20)
(0.370279 0.335363 9.61335e-21)
(0.406627 0.317704 -5.19985e-20)
(0.440751 0.29986 1.26557e-20)
(0.472906 0.282657 -1.49493e-21)
(0.50327 0.266399 -5.89073e-20)
(0.531975 0.251146 -2.60384e-20)
(0.55913 0.23687 1.51326e-19)
(0.584832 0.223512 -1.11549e-19)
(0.609167 0.211011 7.35991e-20)
(0.0267455 0.0861647 -5.9815e-20)
(0.0765687 0.206189 -6.52971e-20)
(0.130462 0.28193 -3.54681e-20)
(0.182351 0.323249 8.18838e-20)
(0.23129 0.339481 -6.84073e-20)
(0.27696 0.339171 -1.17877e-19)
(0.319416 0.329181 -7.00719e-20)
(0.358985 0.314361 -1.33231e-19)
(0.396025 0.297743 1.06922e-19)
(0.430838 0.280975 -8.60016e-20)
(0.463651 0.264822 1.80709e-20)
(0.494632 0.24956 1.24626e-20)
(0.523912 0.235247 -5.32759e-20)
(0.551602 0.221851 6.09412e-20)
(0.577802 0.209319 9.05737e-20)
(0.0235979 0.080637 1.29604e-19)
(0.0691453 0.192771 1.29148e-19)
(0.120477 0.26336 -9.57354e-20)
(0.171046 0.301732 -8.0044e-20)
(0.219544 0.316684 2.1957e-20)
(0.265338 0.316233 4.67989e-20)
(0.30824 0.3068 -1.59992e-19)
(0.348409 0.292907 2.55905e-20)
(0.3861 0.277367 -1.04275e-19)
(0.421559 0.261708 8.70002e-20)
(0.454989 0.246633 2.04011e-20)
(0.486549 0.232395 -9.10589e-20)
(0.516369 0.219044 -2.03098e-20)
(0.54456 0.206551 4.73768e-20)
(0.571225 0.194865 2.19893e-20)
(0.0206496 0.0749154 -5.97339e-20)
(0.062203 0.178931 1.51044e-20)
(0.111151 0.24426 1.78683e-19)
(0.1605 0.279658 9.7861e-20)
(0.208598 0.293346 6.43146e-20)
(0.254517 0.292793 1.19338e-19)
(0.29784 0.283958 1.62913e-20)
(0.338571 0.27103 1.10846e-20)
(0.37687 0.256604 -7.83968e-22)
(0.412932 0.242084 -1.11277e-19)
(0.446937 0.228114 5.73264e-20)
(0.479035 0.214925 -9.07376e-20)
(0.509357 0.202559 5.88248e-20)
(0.538015 0.190989 -9.30085e-20)
(0.565113 0.180168 -5.38483e-20)
(0.0179104 0.0690135 -1.28092e-20)
(0.0557632 0.164698 8.69477e-20)
(0.102511 0.22467 -1.0139e-19)
(0.15074 0.257068 -4.51348e-20)
(0.198477 0.269508 3.98248e-20)
(0.244518 0.268885 -8.79064e-20)
(0.288236 0.260688 6.5573e-20)
(0.329489 0.248761 9.16639e-21)
(0.368351 0.235481 5.31927e-20)
(0.404971 0.222129 -1.87459e-21)
(0.439507 0.20929 -5.03772e-20)
(0.472103 0.197171 4.89324e-20)
(0.502888 0.185811 -1.23775e-19)
(0.531977 0.175183 1.70006e-19)
(0.559476 0.165244 6.40413e-20)
(0.0153899 0.0629451 -3.7048e-20)
(0.0498454 0.150103 -3.80576e-20)
(0.0945795 0.204628 -5.56122e-20)
(0.14179 0.234004 6.33962e-20)
(0.189204 0.24521 -3.40399e-20)
(0.235363 0.244549 -1.65558e-20)
(0.279446 0.237025 -3.28623e-20)
(0.32118 0.226132 -4.10272e-20)
(0.360559 0.214028 -1.12019e-19)
(0.39769 0.20187 4.80614e-20)
(0.432712 0.190184 -6.57872e-20)
(0.465764 0.179157 1.18935e-19)
(0.496973 0.168822 7.90203e-20)
(0.526456 0.159154 -1.37017e-19)
(0.554322 0.150113 -1.35646e-19)
(0.0130965 0.0567246 3.7388e-20)
(0.0444678 0.135178 -9.73315e-20)
(0.0873793 0.184175 -6.60991e-21)
(0.133671 0.210507 -8.6646e-20)
(0.180798 0.220492 -9.55373e-20)
(0.22707 0.219822 1.37244e-19)
(0.271487 0.213003 1.86748e-20)
(0.313659 0.203176 6.6077e-20)
(0.353507 0.192274 6.8366e-20)
(0.391101 0.181333 -1.5875e-20)
(0.426564 0.170822 9.23031e-20)
(0.460028 0.160906 -5.3475e-20)
(0.491622 0.151613 -6.82609e-20)
(0.521462 0.142921 1.07055e-19)
(0.54966 0.134793 1.19894e-19)
(0.0110383 0.0503668 -3.80974e-20)
(0.0396465 0.119955 8.51948e-20)
(0.0809296 0.16335 -9.05231e-20)
(0.126405 0.186621 5.73626e-20)
(0.17328 0.195398 5.29088e-20)
(0.219656 0.194745 -7.41379e-20)
(0.264375 0.18866 3.40967e-20)
(0.30694 0.179925 3.77514e-20)
(0.347208 0.17025 -1.16571e-19)
(0.385216 0.160547 5.60812e-20)
(0.421073 0.15123 6.20695e-21)
(0.454907 0.142441 5.19631e-20)
(0.486844 0.134206 -6.6145e-20)
(0.517003 0.126504 8.13702e-21)
(0.545497 0.119303 -5.03925e-21)
(0.009222 0.0438871 -4.07141e-20)
(0.0353963 0.104468 5.23718e-20)
(0.0752482 0.142196 9.58226e-20)
(0.120008 0.162389 -1.17715e-20)
(0.166666 0.16997 6.48878e-20)
(0.213136 0.169356 -8.03142e-20)
(0.258123 0.16403 1.96205e-20)
(0.301034 0.156412 -6.82088e-20)
(0.341673 0.147986 1.90611e-22)
(0.380045 0.13954 -1.05388e-19)
(0.416249 0.131433 -7.5342e-20)
(0.450407 0.123787 3.97311e-20)
(0.482646 0.116624 1.03102e-20)
(0.513086 0.109924 -2.68752e-20)
(0.541841 0.103661 3.54138e-20)
(0.00765393 0.0373009 3.6367e-20)
(0.0317299 0.0887502 1.18477e-20)
(0.0703504 0.120755 2.90246e-20)
(0.114497 0.137857 -4.26758e-20)
(0.16097 0.144251 -1.91734e-20)
(0.207525 0.143696 -3.57199e-20)
(0.252743 0.139152 3.36358e-21)
(0.295954 0.132672 2.426e-20)
(0.336911 0.125513 7.37546e-20)
(0.375598 0.118341 8.87425e-20)
(0.4121 0.111458 3.38556e-20)
(0.446537 0.104968 -7.99153e-21)
(0.479036 0.0988885 -1.69883e-20)
(0.509718 0.0932032 -4.20761e-20)
(0.538697 0.0878884 5.00736e-21)
(0.00633937 0.0306241 7.48831e-21)
(0.0286584 0.0728367 -4.99117e-20)
(0.0662497 0.0990709 -6.79303e-20)
(0.109886 0.113069 -2.35626e-21)
(0.156206 0.118284 -4.94133e-21)
(0.202832 0.117806 2.38822e-20)
(0.248245 0.114063 -7.32882e-20)
(0.291707 0.108739 -2.81743e-20)
(0.332931 0.102862 -4.71941e-20)
(0.371881 0.096978 1.85741e-21)
(0.408632 0.0913323 1.51859e-20)
(0.443303 0.0860097 3.33631e-20)
(0.47602 0.0810238 -6.47808e-21)
(0.506904 0.0763617 2.82671e-20)
(0.536071 0.0720037 -1.36114e-20)
(0.00528278 0.0238729 -3.22966e-20)
(0.026191 0.0567623 1.87697e-20)
(0.0629571 0.0771862 -1.8636e-20)
(0.106184 0.0880713 2.29499e-20)
(0.152384 0.092115 1.75283e-20)
(0.199068 0.0917271 4.90698e-21)
(0.244639 0.0888013 5.65572e-20)
(0.288302 0.0846476 -1.49787e-20)
(0.329741 0.0800659 1.30934e-20)
(0.368902 0.0754808 1.52948e-20)
(0.405853 0.0710823 1.04199e-20)
(0.440711 0.0669362 -2.78561e-20)
(0.473602 0.0630526 3.6039e-20)
(0.504648 0.0594215 2.67051e-20)
(0.533966 0.0560275 -1.03283e-20)
(0.00448771 0.0170635 9.90829e-21)
(0.0243352 0.0405623 2.34964e-20)