/*--------------------------------*- C++ -*----------------------------------*\
  =========                 |
  \\      /  F ield         | OpenFOAM: The Open Source CFD Toolbox
   \\    /   O peration     | Website:  https://openfoam.org
    \\  /    A nd           | Version:  7
     \\/     M anipulation  |
\*---------------------------------------------------------------------------*/
FoamFile
{
    version     2.0;
    format      ascii;
    class       volScalarField;
    location    "120";
    object      p;
}
// * * * * * * * * * * * * * * * * * * * * * * * * * * * * * * * * * * * * * //

dimensions      [0 2 -2 0 0 0 0];

internalField   nonuniform List<scalar> 
20050
(
-0.352508
-0.355165
-0.356369
-0.35728
-0.358054
-0.358774
-0.359516
-0.360303
-0.361132
-0.361974
-0.362791
-0.363537
-0.364172
-0.364635
-0.36497
-0.347226
-0.349812
-0.350932
-0.351713
-0.352297
-0.352759
-0.353171
-0.353556
-0.353909
-0.354206
-0.354409
-0.354484
-0.354406
-0.354105
-0.353666
-0.342178
-0.344667
-0.345695
-0.346343
-0.346739
-0.346951
-0.347043
-0.347039
-0.346933
-0.346704
-0.346318
-0.345748
-0.344992
-0.34397
-0.342785
-0.337367
-0.339736
-0.340665
-0.341181
-0.341394
-0.341363
-0.341148
-0.34077
-0.340225
-0.339492
-0.338544
-0.337363
-0.335967
-0.334275
-0.332378
-0.332791
-0.335023
-0.335849
-0.336232
-0.336268
-0.336006
-0.335498
-0.334763
-0.333798
-0.332587
-0.331107
-0.329348
-0.327355
-0.325047
-0.322475
-0.328446
-0.330527
-0.331248
-0.331503
-0.331369
-0.330885
-0.330099
-0.329025
-0.327662
-0.325997
-0.324015
-0.321714
-0.319164
-0.316299
-0.313086
-0.324323
-0.326248
-0.326864
-0.326994
-0.326698
-0.326005
-0.324954
-0.323558
-0.321817
-0.319724
-0.31727
-0.314463
-0.311395
-0.308031
-0.304205
-0.320414
-0.322182
-0.322695
-0.322705
-0.322256
-0.321365
-0.320063
-0.318362
-0.316264
-0.313766
-0.310868
-0.307588
-0.30404
-0.300232
-0.295803
-0.316711
-0.318325
-0.31874
-0.318636
-0.318042
-0.316964
-0.315424
-0.313434
-0.310996
-0.308116
-0.304801
-0.301079
-0.297084
-0.292884
-0.28781
-0.313202
-0.314672
-0.314994
-0.314784
-0.314054
-0.312798
-0.311034
-0.308768
-0.306008
-0.302764
-0.299056
-0.294922
-0.290513
-0.28597
-0.280155
-0.309879
-0.311219
-0.311455
-0.311146
-0.310288
-0.308865
-0.306886
-0.304358
-0.30129
-0.2977
-0.29362
-0.289102
-0.284309
-0.279478
-0.273463
-0.306735
-0.307963
-0.308121
-0.30772
-0.306742
-0.30516
-0.302978
-0.300198
-0.296835
-0.292914
-0.28848
-0.2836
-0.278449
-0.273297
-0.267117
-0.303763
-0.304899
-0.30499
-0.304505
-0.303413
-0.301681
-0.299303
-0.296281
-0.292635
-0.288397
-0.283623
-0.278396
-0.272916
-0.267477
-0.261073
-0.300961
-0.302028
-0.302061
-0.301499
-0.300301
-0.298424
-0.295858
-0.292604
-0.288685
-0.284141
-0.279042
-0.273485
-0.267689
-0.261996
-0.255368
-0.298328
-0.299351
-0.299335
-0.298702
-0.297404
-0.295389
-0.292641
-0.289163
-0.284981
-0.280143
-0.274733
-0.268861
-0.262762
-0.256835
-0.25
-0.295868
-0.296869
-0.296814
-0.296117
-0.294724
-0.292575
-0.289653
-0.285959
-0.281524
-0.276406
-0.270697
-0.264526
-0.258136
-0.251992
-0.244951
-0.293586
-0.294589
-0.294503
-0.293747
-0.292262
-0.289985
-0.286895
-0.282995
-0.278319
-0.272934
-0.266944
-0.260488
-0.253819
-0.247475
-0.240207
-0.291492
-0.292518
-0.292407
-0.291596
-0.290023
-0.287622
-0.284372
-0.280276
-0.275374
-0.269739
-0.263486
-0.256765
-0.24983
-0.243308
-0.235751
-0.289601
-0.290664
-0.290534
-0.289671
-0.288013
-0.285494
-0.282091
-0.277813
-0.2727
-0.266836
-0.260344
-0.253381
-0.246196
-0.239523
-0.231568
-0.287927
-0.28904
-0.288894
-0.28798
-0.286241
-0.283608
-0.280063
-0.275616
-0.270314
-0.264246
-0.257543
-0.250368
-0.242951
-0.236166
-0.227646
-0.286492
-0.287659
-0.287496
-0.286533
-0.284714
-0.281974
-0.278298
-0.2737
-0.268232
-0.261989
-0.25511
-0.247759
-0.240135
-0.23329
-0.223985
-0.285313
-0.286534
-0.286353
-0.285339
-0.283443
-0.280604
-0.27681
-0.27208
-0.266473
-0.260089
-0.253072
-0.245588
-0.237786
-0.230948
-0.220602
-0.284414
-0.285679
-0.285476
-0.28441
-0.282439
-0.279508
-0.275611
-0.270772
-0.265055
-0.258565
-0.251454
-0.243883
-0.235938
-0.229181
-0.217541
-0.283815
-0.28511
-0.284877
-0.283755
-0.281711
-0.278697
-0.274713
-0.269787
-0.263991
-0.257434
-0.250272
-0.24266
-0.234611
-0.228002
-0.21487
-0.283537
-0.284837
-0.284566
-0.283383
-0.281269
-0.27818
-0.274124
-0.269137
-0.263291
-0.256702
-0.24953
-0.241921
-0.233814
-0.227383
-0.212686
-0.283595
-0.284873
-0.28455
-0.283302
-0.281117
-0.277963
-0.273851
-0.268823
-0.262958
-0.25637
-0.249223
-0.241648
-0.233537
-0.22725
-0.21111
-0.284004
-0.285226
-0.284837
-0.283515
-0.281259
-0.278046
-0.273892
-0.268844
-0.262983
-0.256424
-0.249332
-0.241808
-0.233756
-0.227485
-0.21026
-0.284774
-0.285901
-0.285428
-0.284023
-0.281694
-0.278427
-0.27424
-0.269189
-0.263352
-0.256843
-0.249826
-0.242355
-0.234436
-0.227918
-0.210137
-0.28591
-0.286899
-0.286325
-0.284824
-0.282416
-0.279095
-0.274886
-0.269841
-0.264042
-0.257597
-0.250669
-0.243247
-0.235557
-0.228358
-0.210538
-0.287411
-0.288221
-0.287523
-0.285912
-0.283417
-0.280039
-0.275809
-0.270777
-0.265022
-0.258648
-0.251817
-0.244455
-0.237132
-0.228849
-0.211947
-0.289274
-0.289861
-0.289018
-0.28728
-0.284684
-0.281243
-0.276988
-0.271968
-0.266258
-0.259953
-0.25322
-0.245935
-0.239097
-0.229964
-0.217939
-0.291491
-0.291814
-0.290801
-0.288915
-0.286205
-0.282688
-0.2784
-0.273387
-0.267715
-0.261471
-0.254823
-0.247609
-0.241157
-0.231906
-0.232488
-0.294053
-0.294072
-0.292865
-0.290809
-0.287964
-0.284357
-0.280024
-0.275005
-0.269359
-0.263158
-0.256567
-0.249403
-0.243137
-0.233944
-0.235627
-0.296948
-0.296628
-0.295199
-0.292951
-0.28995
-0.286234
-0.281839
-0.276798
-0.271161
-0.26498
-0.258405
-0.251244
-0.244919
-0.235733
-0.236231
-0.300164
-0.299471
-0.297799
-0.295332
-0.292152
-0.288308
-0.283831
-0.27875
-0.273098
-0.266905
-0.260295
-0.253072
-0.246505
-0.23726
-0.236148
-0.303695
-0.302597
-0.300658
-0.297947
-0.294565
-0.29057
-0.285992
-0.280849
-0.275152
-0.268908
-0.262202
-0.254839
-0.24789
-0.238483
-0.235547
-0.30753
-0.306004
-0.303773
-0.300796
-0.297188
-0.293021
-0.28832
-0.283088
-0.277314
-0.270969
-0.264099
-0.256504
-0.249063
-0.239376
-0.234649
-0.311666
-0.309689
-0.307145
-0.303879
-0.300025
-0.295665
-0.290817
-0.285467
-0.279574
-0.273071
-0.265958
-0.258038
-0.250015
-0.23994
-0.233573
-0.316103
-0.313653
-0.310778
-0.307204
-0.303084
-0.29851
-0.293492
-0.28799
-0.281927
-0.275198
-0.267758
-0.259414
-0.250739
-0.240186
-0.232374
-0.320843
-0.3179
-0.314677
-0.310778
-0.306376
-0.301569
-0.296353
-0.290659
-0.284368
-0.277334
-0.269475
-0.260613
-0.251233
-0.240133
-0.23107
-0.325889
-0.322436
-0.318851
-0.314614
-0.309914
-0.304855
-0.29941
-0.293475
-0.286887
-0.279461
-0.271089
-0.261621
-0.251493
-0.239801
-0.22966
-0.331248
-0.327266
-0.323309
-0.318723
-0.313713
-0.30838
-0.302671
-0.296437
-0.289473
-0.28156
-0.272579
-0.262425
-0.25152
-0.239209
-0.228137
-0.336925
-0.332397
-0.32806
-0.323117
-0.317784
-0.312154
-0.306136
-0.299538
-0.292108
-0.283607
-0.273924
-0.263016
-0.251315
-0.238374
-0.22649
-0.342926
-0.337835
-0.333111
-0.327806
-0.322137
-0.316181
-0.309804
-0.302764
-0.294771
-0.285579
-0.275106
-0.263386
-0.250881
-0.23731
-0.224708
-0.349252
-0.343584
-0.33847
-0.332797
-0.326776
-0.320461
-0.313665
-0.306094
-0.297433
-0.287447
-0.276107
-0.263532
-0.250221
-0.236028
-0.222781
-0.355905
-0.349643
-0.344137
-0.338092
-0.331702
-0.324986
-0.317699
-0.309501
-0.300063
-0.289185
-0.276909
-0.263449
-0.249338
-0.234536
-0.220701
-0.362877
-0.356009
-0.350111
-0.343688
-0.336907
-0.329739
-0.32188
-0.31295
-0.302625
-0.290765
-0.277497
-0.263131
-0.248232
-0.23284
-0.218459
-0.370158
-0.362674
-0.356385
-0.349577
-0.342376
-0.334697
-0.326174
-0.316402
-0.305082
-0.292157
-0.277855
-0.262576
-0.246905
-0.230941
-0.216048
-0.377731
-0.369624
-0.362946
-0.355743
-0.348085
-0.339826
-0.330539
-0.319809
-0.307392
-0.293334
-0.277968
-0.261778
-0.245355
-0.228839
-0.21346
-0.385572
-0.376839
-0.369773
-0.362162
-0.354004
-0.345085
-0.334926
-0.323124
-0.309516
-0.294269
-0.277823
-0.260731
-0.243577
-0.226531
-0.210687
-0.39365
-0.384292
-0.376841
-0.368803
-0.360093
-0.350423
-0.339279
-0.326294
-0.311413
-0.294935
-0.277405
-0.259426
-0.241566
-0.224011
-0.207721
-0.401927
-0.39195
-0.384116
-0.375627
-0.366303
-0.355785
-0.343539
-0.329265
-0.313041
-0.295306
-0.276697
-0.257854
-0.239315
-0.221272
-0.204551
-0.410357
-0.399772
-0.391555
-0.382585
-0.372577
-0.361106
-0.347642
-0.331984
-0.314363
-0.295358
-0.275685
-0.256004
-0.236813
-0.218305
-0.201168
-0.418886
-0.407709
-0.399108
-0.389622
-0.37885
-0.366316
-0.351521
-0.334395
-0.315338
-0.295064
-0.274351
-0.253862
-0.234049
-0.215098
-0.197562
-0.427455
-0.415707
-0.406719
-0.396674
-0.385052
-0.371341
-0.35511
-0.336447
-0.315932
-0.2944
-0.272679
-0.251416
-0.231011
-0.211641
-0.193722
-0.435994
-0.423701
-0.414321
-0.403667
-0.391103
-0.376104
-0.35834
-0.338087
-0.316106
-0.293342
-0.270649
-0.248649
-0.227685
-0.207921
-0.189636
-0.444429
-0.431622
-0.42184
-0.410523
-0.39692
-0.380525
-0.361145
-0.339267
-0.315827
-0.291866
-0.268243
-0.245545
-0.224056
-0.203923
-0.185294
-0.45268
-0.439394
-0.429199
-0.417156
-0.402416
-0.384522
-0.36346
-0.339937
-0.315062
-0.289946
-0.265442
-0.242087
-0.220108
-0.199635
-0.180682
-0.46066
-0.446932
-0.436308
-0.423476
-0.407501
-0.388018
-0.365221
-0.340053
-0.313779
-0.287559
-0.262225
-0.238258
-0.215828
-0.195043
-0.175791
-0.468276
-0.454149
-0.443079
-0.429387
-0.412084
-0.390932
-0.366368
-0.339572
-0.311946
-0.284681
-0.258572
-0.23404
-0.211198
-0.190133
-0.170608
-0.475435
-0.460951
-0.449413
-0.434793
-0.416074
-0.393189
-0.366845
-0.338453
-0.309534
-0.281289
-0.254464
-0.229415
-0.206204
-0.184891
-0.165123
-0.482037
-0.467243
-0.455212
-0.439595
-0.41938
-0.394716
-0.366598
-0.33666
-0.306517
-0.27736
-0.249881
-0.224367
-0.200831
-0.179306
-0.159327
-0.487983
-0.472925
-0.460376
-0.443695
-0.421917
-0.395446
-0.365578
-0.334156
-0.302866
-0.272874
-0.244805
-0.218879
-0.195064
-0.173364
-0.153209
-0.49317
-0.477895
-0.464802
-0.446994
-0.4236
-0.395314
-0.36374
-0.33091
-0.298558
-0.267809
-0.239217
-0.212936
-0.188891
-0.167055
-0.146762
-0.497497
-0.482055
-0.468389
-0.4494
-0.424351
-0.394262
-0.361042
-0.326892
-0.29357
-0.262147
-0.233102
-0.206523
-0.182298
-0.160368
-0.139978
-0.500867
-0.485303
-0.47104
-0.450822
-0.424099
-0.392237
-0.357449
-0.322076
-0.287881
-0.255869
-0.226443
-0.199628
-0.175276
-0.153295
-0.13285
-0.503182
-0.487545
-0.472659
-0.451176
-0.422775
-0.389192
-0.352927
-0.316439
-0.281474
-0.248961
-0.219228
-0.192238
-0.167814
-0.145827
-0.125371
-0.504351
-0.488686
-0.473157
-0.450384
-0.420321
-0.385086
-0.34745
-0.309962
-0.274332
-0.241409
-0.211444
-0.184343
-0.159903
-0.13796
-0.117542
-0.504285
-0.488637
-0.472449
-0.448374
-0.416684
-0.379884
-0.340994
-0.302627
-0.266442
-0.233201
-0.203082
-0.175935
-0.151537
-0.12969
-0.109367
-0.502905
-0.487318
-0.470459
-0.445085
-0.411821
-0.373558
-0.333541
-0.294421
-0.257793
-0.224329
-0.194133
-0.167007
-0.142708
-0.121013
-0.100838
-0.500135
-0.484652
-0.467117
-0.440461
-0.405694
-0.366085
-0.325078
-0.285337
-0.248378
-0.214786
-0.184593
-0.157553
-0.133413
-0.111918
-0.0919035
-0.49591
-0.480572
-0.462364
-0.434458
-0.398274
-0.35745
-0.315595
-0.275367
-0.238194
-0.204569
-0.17446
-0.147576
-0.123656
-0.102391
-0.0824694
-0.490173
-0.47502
-0.456147
-0.427038
-0.389543
-0.347644
-0.30509
-0.26451
-0.227238
-0.193678
-0.163733
-0.137077
-0.113441
-0.0924427
-0.0725545
-0.482874
-0.467945
-0.448427
-0.418176
-0.379485
-0.336662
-0.293563
-0.252769
-0.215514
-0.182115
-0.152415
-0.126055
-0.102772
-0.0820948
-0.06253
-0.473976
-0.45931
-0.439172
-0.407855
-0.368098
-0.324508
-0.28102
-0.24015
-0.203027
-0.169885
-0.14051
-0.114517
-0.0916624
-0.0713261
-0.0522304
-0.463451
-0.449083
-0.428362
-0.396065
-0.355384
-0.31119
-0.267471
-0.226662
-0.189785
-0.156996
-0.128031
-0.10249
-0.0800982
-0.0601769
-0.0415912
-0.45128
-0.437247
-0.415986
-0.38281
-0.341354
-0.296724
-0.252931
-0.212319
-0.175802
-0.143461
-0.114992
-0.0899668
-0.068102
-0.0486568
-0.0306094
-0.437455
-0.423793
-0.402044
-0.3681
-0.326026
-0.28113
-0.23742
-0.197137
-0.161093
-0.1293
-0.1014
-0.0769617
-0.0556875
-0.0367734
-0.019299
-0.42198
-0.408724
-0.386546
-0.351953
-0.309424
-0.264433
-0.220962
-0.181136
-0.145686
-0.114524
-0.0872741
-0.063491
-0.0428688
-0.0245369
-0.00767679
-0.404868
-0.392051
-0.369512
-0.334397
-0.291581
-0.246667
-0.203585
-0.164354
-0.12959
-0.0991546
-0.0726333
-0.0495732
-0.0296623
-0.0119613
0.00423948
-0.386143
-0.373799
-0.350971
-0.315469
-0.272535
-0.227867
-0.185323
-0.14681
-0.112838
-0.0832167
-0.0574997
-0.0352292
-0.0160863
0.000936222
0.0164311
-0.365838
-0.353998
-0.330961
-0.295211
-0.252339
-0.208071
-0.166211
-0.128537
-0.095459
-0.066737
-0.0418981
-0.0204819
-0.00216194
0.014136
0.0288774
-0.343996
-0.332692
-0.30953
-0.273682
-0.231039
-0.187317
-0.146292
-0.109572
-0.0774858
-0.0497452
-0.0258556
-0.0053567
0.0120878
0.027616
0.0415557
-0.320666
-0.309931
-0.286739
-0.250957
-0.208636
-0.165676
-0.125609
-0.0899549
-0.0589537
-0.0322733
-0.00940195
0.0101188
0.0266377
0.0413519
0.0544403
-0.295907
-0.285781
-0.262664
-0.227102
-0.185197
-0.143182
-0.104212
-0.0697292
-0.039901
-0.0143561
0.00743112
0.0259151
0.0414607
0.0553168
0.0675015
-0.269783
-0.260313
-0.237369
-0.202021
-0.160929
-0.119909
-0.0821521
-0.0489408
-0.0203685
0.00396981
0.0246099
0.042001
0.0565279
0.0694802
0.0807005
-0.242369
-0.233606
-0.210892
-0.175948
-0.135787
-0.0959171
-0.0594847
-0.027638
-0.000399578
0.0226656
0.0420993
0.0583437
0.0718092
0.0838085
0.0939873
-0.213742
-0.20575
-0.183263
-0.149007
-0.109853
-0.0712704
-0.0362678
-0.00587195
0.0199606
0.0416908
0.0598624
0.0749093
0.0872744
0.0982705
0.107316
-0.183966
-0.17683
-0.154678
-0.121221
-0.0832094
-0.0460363
-0.0125616
0.0163041
0.0406647
0.0610035
0.0778606
0.0916619
0.102896
0.112847
0.120659
-0.153134
-0.146968
-0.125247
-0.092674
-0.055936
-0.0202855
0.0115713
0.0388347
0.0616637
0.08056
0.0960542
0.108568
0.118658
0.127521
0.133909
-0.121519
-0.116146
-0.0950363
-0.0634599
-0.0281157
0.00590886
0.0360662
0.0616623
0.0829069
0.100315
0.114403
0.125603
0.134561
0.142218
0.146685
-0.0891366
-0.0845121
-0.0641361
-0.0336729
0.000165976
0.0324713
0.0608562
0.0847276
0.104341
0.120221
0.132871
0.142757
0.150605
0.156785
0.158541
-0.0560481
-0.0522156
-0.0326498
-0.00340964
0.0288217
0.0593245
0.0858726
0.107969
0.125912
0.140229
0.151419
0.160011
0.16673
0.171091
0.17013
-0.0223738
-0.0193734
-0.000685447
0.0272308
0.0577624
0.0863894
0.111045
0.131325
0.147562
0.160289
0.170008
0.177307
0.182773
0.185054
0.184371
0.0117652
0.0139028
0.0316472
0.0581478
0.0868975
0.113585
0.136302
0.154729
0.169233
0.180349
0.188587
0.194558
0.198684
0.199489
0.199234
0.0462461
0.0474972
0.0642357
0.0892389
0.116136
0.140832
0.161571
0.178118
0.190866
0.200355
0.207103
0.211714
0.214487
0.214094
0.213628
0.0809463
0.0812921
0.0969674
0.120401
0.145385
0.168046
0.186779
0.201425
0.212403
0.220255
0.225503
0.228735
0.230179
0.228707
0.227709
0.115742
0.115169
0.129729
0.151532
0.174553
0.195146
0.211853
0.224585
0.233783
0.239994
0.243735
0.245578
0.245713
0.243188
0.241464
0.15051
0.149007
0.162407
0.182527
0.203547
0.22205
0.236718
0.24753
0.254948
0.259516
0.26175
0.262203
0.261044
0.257462
0.254892
0.185125
0.182687
0.194888
0.213284
0.232277
0.248676
0.261303
0.270197
0.275838
0.278768
0.2795
0.278566
0.276125
0.271478
0.267987
0.219465
0.21609
0.22706
0.243702
0.26065
0.274943
0.285533
0.29252
0.296394
0.297697
0.296935
0.294624
0.290912
0.285197
0.280739
0.253406
0.249097
0.258813
0.27368
0.288578
0.30077
0.309339
0.314433
0.316558
0.316251
0.314011
0.310335
0.305367
0.298587
0.293134
0.286829
0.281591
0.290036
0.303119
0.315971
0.32608
0.332648
0.335874
0.336273
0.334378
0.330679
0.325659
0.319452
0.311617
0.305153
0.319614
0.313456
0.320623
0.331922
0.342742
0.350794
0.355392
0.356781
0.355483
0.352028
0.346897
0.340554
0.333132
0.324258
0.316778
0.351644
0.344579
0.350468
0.359993
0.368808
0.374836
0.377502
0.377092
0.374134
0.369152
0.362619
0.354983
0.346373
0.33648
0.327988
0.382805
0.374851
0.379468
0.38724
0.394085
0.398133
0.398913
0.396748
0.392172
0.385703
0.377803
0.368907
0.359141
0.348255
0.338761
0.412986
0.404163
0.407524
0.413574
0.418494
0.420613
0.41956
0.415691
0.409545
0.401633
0.392409
0.382289
0.371404
0.359556
0.349076
0.44208
0.432413
0.434541
0.438908
0.441955
0.442206
0.439381
0.433866
0.426204
0.416899
0.406395
0.395095
0.38313
0.370354
0.35891
0.469982
0.459499
0.460424
0.463157
0.464396
0.462847
0.458316
0.451219
0.4421
0.431456
0.419724
0.40729
0.39429
0.380623
0.368243
0.496595
0.485326
0.485086
0.486243
0.485744
0.48247
0.476307
0.467698
0.457186
0.445264
0.432357
0.41884
0.404853
0.390336
0.377052
0.521821
0.509803
0.508442
0.508089
0.505931
0.501014
0.4933
0.483254
0.471419
0.458282
0.444261
0.429715
0.414791
0.399469
0.385317
0.545572
0.532842
0.530412
0.528623
0.524892
0.518422
0.509243
0.49784
0.484756
0.470473
0.4554
0.439884
0.424078
0.407995
0.393019
0.567761
0.554361
0.550919
0.547776
0.542567
0.53464
0.524086
0.511412
0.497158
0.481802
0.465743
0.449318
0.432688
0.415894
0.400139
0.58831
0.574284
0.569894
0.565485
0.558898
0.549615
0.537784
0.523928
0.508588
0.492234
0.47526
0.457991
0.440597
0.423142
0.406659
0.607144
0.59254
0.587269
0.581691
0.573833
0.5633
0.550293
0.53535
0.51901
0.501739
0.483923
0.465878
0.447781
0.42972
0.412563
0.624195
0.609061
0.602986
0.596339
0.587321
0.575651
0.561575
0.545642
0.528393
0.510288
0.491706
0.472956
0.454221
0.435609
0.417835
0.639399
0.623789
0.616987
0.609378
0.599319
0.586628
0.571592
0.554772
0.536708
0.517855
0.498586
0.479204
0.459898
0.440791
0.422461
0.652702
0.636669
0.629224
0.620765
0.609787
0.596195
0.580313
0.562711
0.543928
0.524415
0.504541
0.484602
0.464793
0.445251
0.42643
0.664052
0.647653
0.639653
0.630459
0.618688
0.604319
0.587708
0.569432
0.550029
0.529948
0.509553
0.489134
0.468893
0.448976
0.42973
0.673407
0.6567
0.648234
0.638426
0.625992
0.610974
0.593753
0.574914
0.554993
0.534436
0.513605
0.492785
0.472183
0.451952
0.432352
0.680729
0.663773
0.654935
0.644636
0.631673
0.616135
0.598426
0.579136
0.5588
0.537863
0.516684
0.495543
0.474652
0.45417
0.434287
0.685989
0.668845
0.65973
0.649066
0.635708
0.619783
0.60171
0.582083
0.561437
0.540217
0.518777
0.497397
0.47629
0.455622
0.435528
0.689162
0.671892
0.662598
0.651697
0.638081
0.621903
0.603591
0.583743
0.562894
0.541487
0.519876
0.498339
0.477092
0.456301
0.436071
0.690234
0.672899
0.663524
0.652515
0.63878
0.622485
0.60406
0.584107
0.563162
0.541666
0.519975
0.498365
0.477052
0.456202
0.435912
0.689193
0.671857
0.6625
0.651513
0.637799
0.621521
0.603112
0.583171
0.562237
0.540752
0.51907
0.49747
0.476167
0.455324
0.43505
0.686038
0.668762
0.659523
0.648689
0.635136
0.619011
0.600743
0.580933
0.560117
0.538741
0.51716
0.495654
0.474436
0.453665
0.433482
0.680772
0.663619
0.654597
0.644047
0.630793
0.614957
0.596958
0.577395
0.556806
0.535638
0.514248
0.492919
0.471861
0.451227
0.431211
0.673407
0.656439
0.647732
0.637594
0.624778
0.609366
0.591762
0.572563
0.552307
0.531445
0.510337
0.489268
0.468445
0.448013
0.428238
0.663961
0.64724
0.638944
0.629346
0.617104
0.60225
0.585167
0.566446
0.546631
0.526172
0.505434
0.484708
0.464195
0.444029
0.424569
0.652459
0.636044
0.628255
0.619321
0.60779
0.593625
0.577186
0.559058
0.539787
0.519828
0.499549
0.479248
0.459118
0.439282
0.420209
0.638933
0.622882
0.615693
0.607546
0.596857
0.583511
0.567837
0.550415
0.531792
0.512427
0.492695
0.472898
0.453224
0.43378
0.415165
0.62342
0.607792
0.601291
0.59405
0.584333
0.571933
0.557144
0.540538
0.522664
0.503986
0.484885
0.465671
0.446525
0.427535
0.409446
0.605967
0.590815
0.585088
0.578869
0.570249
0.558918
0.545131
0.529448
0.512423
0.494523
0.476137
0.457584
0.439035
0.42056
0.403061
0.586623
0.572003
0.567132
0.562044
0.554643
0.544502
0.531829
0.517174
0.501093
0.48406
0.466471
0.448653
0.430771
0.412869
0.396023
0.565448
0.551409
0.547471
0.543621
0.537555
0.528719
0.51727
0.503746
0.488703
0.472622
0.455908
0.438898
0.421749
0.404478
0.388344
0.542504
0.529095
0.526163
0.523651
0.51903
0.511611
0.501492
0.489195
0.47528
0.460236
0.444472
0.428342
0.41199
0.395405
0.380038
0.517862
0.505128
0.50327
0.502188
0.499119
0.493223
0.484534
0.473559
0.460859
0.446929
0.432191
0.417007
0.401515
0.385669
0.371122
0.491596
0.479581
0.478857
0.479292
0.477875
0.473602
0.46644
0.456876
0.445474
0.432736
0.419091
0.404918
0.390347
0.375292
0.361612
0.463788
0.452531
0.452996
0.45503
0.455356
0.452801
0.447257
0.439189
0.429163
0.417688
0.405204
0.392104
0.37851
0.364295
0.351525
0.434524
0.424062
0.425765
0.429468
0.431624
0.430875
0.427034
0.420543
0.411967
0.401823
0.390563
0.378593
0.366031
0.352701
0.34088
0.403894
0.39426
0.397244
0.40268
0.406743
0.407883
0.405824
0.400983
0.393927
0.385179
0.3752
0.364415
0.352936
0.340535
0.329698
0.371995
0.363218
0.367517
0.374743
0.380783
0.383884
0.383682
0.380561
0.375088
0.367795
0.359153
0.349602
0.339254
0.327823
0.317998
0.338927
0.331033
0.336675
0.345737
0.353814
0.358946
0.360665
0.359328
0.355498
0.349713
0.342458
0.334188
0.325014
0.314589
0.305802
0.304795
0.297806
0.304811
0.315745
0.325913
0.333133
0.336835
0.337338
0.335204
0.330978
0.325154
0.318207
0.310247
0.300862
0.293129
0.269705
0.26364
0.272021
0.284856
0.297157
0.306516
0.312253
0.314648
0.314257
0.311633
0.307281
0.301694
0.294985
0.286668
0.280001
0.233771
0.228644
0.238404
0.253158
0.267626
0.279167
0.286985
0.291315
0.292709
0.291727
0.288882
0.284687
0.279259
0.272034
0.266438
0.197106
0.192928
0.204064
0.220745
0.237403
0.25116
0.261095
0.267399
0.270614
0.271306
0.27
0.267224
0.263103
0.256989
0.252459
0.159827
0.156606
0.169107
0.187712
0.206573
0.222571
0.234654
0.242961
0.248026
0.250421
0.250678
0.249345
0.246554
0.241561
0.238081
0.122055
0.119793
0.133639
0.154156
0.175224
0.193477
0.207729
0.218064
0.225003
0.229123
0.230961
0.23109
0.229646
0.22578
0.223319
0.08391
0.0826063
0.0977698
0.120176
0.143443
0.163958
0.180393
0.192771
0.201601
0.207462
0.210898
0.2125
0.212421
0.20968
0.208187
0.0455151
0.045165
0.0616116
0.0858723
0.11132
0.134093
0.152716
0.167148
0.17788
0.185492
0.190534
0.19362
0.194923
0.1933
0.192692
0.00699402
0.00758883
0.0252761
0.0513472
0.0789465
0.103964
0.124772
0.141259
0.153897
0.163267
0.16992
0.174492
0.177198
0.176695
0.176839
-0.0315291
-0.0300024
-0.0111236
0.0167032
0.0464141
0.0736531
0.0966338
0.11517
0.129713
0.140842
0.149105
0.155158
0.159297
0.159947
0.16063
-0.06993
-0.0674887
-0.047474
-0.0179567
0.0138147
0.0432413
0.0683748
0.0889488
0.105388
0.118272
0.128141
0.135658
0.141264
0.143215
0.144073
-0.108084
-0.104751
-0.0836616
-0.0525293
-0.0187597
0.0128113
0.0400685
0.06266
0.0809816
0.0956123
0.107083
0.116032
0.1231
0.126687
0.126983
-0.145868
-0.141671
-0.119573
-0.0869114
-0.0512169
-0.0175555
0.0117879
0.0363696
0.0565524
0.0729154
0.0859856
0.0963319
0.10476
0.110678
0.110502
-0.183162
-0.178135
-0.155096
-0.121001
-0.0834659
-0.0477777
-0.0163947
0.0101429
0.0321598
0.0502339
0.0649002
0.0766545
0.0863026
0.0942543
0.0971814
-0.21984
-0.214029
-0.19012
-0.154698
-0.115416
-0.0777753
-0.0444079
-0.0159562
0.00786191
0.0276194
0.0438692
0.0570638
0.0679196
0.0775144
0.0835463
-0.255782
-0.249234
-0.224537
-0.187902
-0.146979
-0.10747
-0.0721817
-0.0418652
-0.016285
0.00512248
0.0229293
0.0375768
0.0496809
0.0606154
0.06881
-0.290929
-0.283599
-0.258241
-0.220516
-0.178068
-0.136783
-0.0996478
-0.0675234
-0.0402268
-0.0172084
0.00211809
0.0181999
0.0315764
0.0437274
0.0535135
-0.325271
-0.316971
-0.291142
-0.252447
-0.208597
-0.165641
-0.12674
-0.0928719
-0.0639113
-0.039327
-0.0185243
-0.00104544
0.0135981
0.026925
0.0380989
-0.358531
-0.349377
-0.323175
-0.283601
-0.238484
-0.193971
-0.153392
-0.117853
-0.0872882
-0.0611883
-0.0389569
-0.0201249
-0.00423967
0.0102228
0.0226782
-0.390607
-0.380664
-0.354259
-0.313889
-0.267651
-0.2217
-0.179544
-0.142413
-0.110309
-0.0827492
-0.0591399
-0.0390017
-0.0219097
-0.00636147
0.00727735
-0.421432
-0.41078
-0.384178
-0.343263
-0.296019
-0.248761
-0.205133
-0.166497
-0.132925
-0.103968
-0.0790353
-0.0576406
-0.0393808
-0.0227952
-0.00805311
-0.45093
-0.439627
-0.412835
-0.371657
-0.323514
-0.275087
-0.230104
-0.190054
-0.155092
-0.124803
-0.0986065
-0.0760078
-0.0566219
-0.0390428
-0.0232579
-0.479023
-0.467123
-0.440252
-0.398865
-0.3501
-0.300613
-0.254401
-0.213037
-0.176768
-0.145217
-0.117818
-0.0940705
-0.0736027
-0.0550718
-0.0382953
-0.505644
-0.493194
-0.466356
-0.424861
-0.375686
-0.325273
-0.277973
-0.2354
-0.19791
-0.165172
-0.136636
-0.111797
-0.0902946
-0.0708537
-0.0531333
-0.530731
-0.517769
-0.491067
-0.449622
-0.400119
-0.349073
-0.300774
-0.257098
-0.218481
-0.184635
-0.15503
-0.129159
-0.106671
-0.0863624
-0.0677448
-0.554231
-0.540793
-0.51432
-0.473094
-0.423439
-0.371887
-0.322748
-0.278093
-0.238445
-0.203572
-0.172969
-0.146129
-0.122706
-0.101574
-0.0821055
-0.5761
-0.562219
-0.536065
-0.495213
-0.445594
-0.393674
-0.343859
-0.298346
-0.25777
-0.221955
-0.190426
-0.162681
-0.138379
-0.116468
-0.0961938
-0.596301
-0.58201
-0.556257
-0.515925
-0.466527
-0.41441
-0.364069
-0.317827
-0.276425
-0.239757
-0.207378
-0.178794
-0.153668
-0.131024
-0.10999
-0.614805
-0.600139
-0.574864
-0.535192
-0.486191
-0.43406
-0.383347
-0.336505
-0.294384
-0.256954
-0.223803
-0.194447
-0.168555
-0.145227
-0.123477
-0.631594
-0.616588
-0.591861
-0.552981
-0.504553
-0.452589
-0.401663
-0.354355
-0.311627
-0.273524
-0.23968
-0.209621
-0.183026
-0.159064
-0.136636
-0.64666
-0.631349
-0.607231
-0.569269
-0.521585
-0.469967
-0.418993
-0.371354
-0.328133
-0.289451
-0.254995
-0.224303
-0.197065
-0.172527
-0.149451
-0.660004
-0.644424
-0.620969
-0.584041
-0.537267
-0.486173
-0.435313
-0.387483
-0.343884
-0.304723
-0.269732
-0.238478
-0.210659
-0.185617
-0.161904
-0.671639
-0.655826
-0.633079
-0.597288
-0.551582
-0.501189
-0.450609
-0.402729
-0.358869
-0.319325
-0.283885
-0.252138
-0.223791
-0.198332
-0.17399
-0.681586
-0.665577
-0.643574
-0.609014
-0.564522
-0.515003
-0.464868
-0.417081
-0.373077
-0.333248
-0.297443
-0.265278
-0.23646
-0.210647
-0.185747
-0.689879
-0.67371
-0.652478
-0.619227
-0.576089
-0.527608
-0.478083
-0.430531
-0.386503
-0.346488
-0.3104
-0.277891
-0.248647
-0.222357
-0.197437
-0.69656
-0.680268
-0.659826
-0.627948
-0.586287
-0.539005
-0.490249
-0.443078
-0.399146
-0.359043
-0.322754
-0.289975
-0.260389
-0.233731
-0.20877
-0.701678
-0.685304
-0.66566
-0.635206
-0.595132
-0.549198
-0.50137
-0.45472
-0.411005
-0.370914
-0.334507
-0.30153
-0.271681
-0.244719
-0.219523
-0.705295
-0.688877
-0.670034
-0.641038
-0.602646
-0.558198
-0.51145
-0.465464
-0.422085
-0.382105
-0.345663
-0.312555
-0.282503
-0.255278
-0.229798
-0.707478
-0.691057
-0.673008
-0.645489
-0.608857
-0.566023
-0.5205
-0.475316
-0.432392
-0.392623
-0.356226
-0.323055
-0.292853
-0.265416
-0.239708
-0.708304
-0.69192
-0.674653
-0.648616
-0.613803
-0.572695
-0.528536
-0.484288
-0.441938
-0.402476
-0.366206
-0.333037
-0.302743
-0.275148
-0.249282
-0.707854
-0.69155
-0.675046
-0.650481
-0.617528
-0.578243
-0.535575
-0.492395
-0.450734
-0.411678
-0.375613
-0.342515