/*--------------------------------*- C++ -*----------------------------------*\
  =========                 |
  \\      /  F ield         | OpenFOAM: The Open Source CFD Toolbox
   \\    /   O peration     | Website:  https://openfoam.org
    \\  /    A nd           | Version:  7
     \\/     M anipulation  |
\*---------------------------------------------------------------------------*/
FoamFile
{
    version     2.0;
    format      ascii;
    class       surfaceScalarField;
    location    "120";
    object      phi;
}
// * * * * * * * * * * * * * * * * * * * * * * * * * * * * * * * * * * * * * //

dimensions      [0 3 -1 0 0 0 0];

internalField   nonuniform List<scalar> 
39691
(
-4.31269e-06
-5.02601e-05
5.45728e-05
-1.537e-05
-0.000105747
0.000116804
-3.21151e-05
-0.000126488
0.000143233
-5.37337e-05
-0.000118647
0.000140265
-7.96403e-05
-8.87149e-05
0.000114622
-0.000109435
-4.2624e-05
7.24183e-05
-0.000142837
1.50738e-05
1.83282e-05
-0.00017963
8.17765e-05
-4.49831e-05
-0.000219631
0.000156989
-0.000116988
-0.00026269
0.000242061
-0.000199003
-0.000308715
0.000339664
-0.000293639
-0.000357698
0.000453264
-0.000404281
-0.000409714
0.000586752
-0.000534736
-0.000464826
0.000744225
-0.000689113
0.000930814
-0.000872603
-0.000523037
-4.23861e-06
-4.60215e-05
-1.5031e-05
-9.49541e-05
-3.12785e-05
-0.00011024
-5.21483e-05
-9.77769e-05
-7.70539e-05
-6.38093e-05
-0.000105603
-1.40753e-05
-0.000137519
4.69901e-05
-0.000172575
0.000116833
-0.000210549
0.000194963
-0.000251216
0.000282728
-0.000294368
0.000382817
-0.000339836
0.000498732
-0.000387491
0.000634407
-0.000437147
0.000793881
0.00098211
-0.000488442
-4.11376e-06
-4.19078e-05
-1.45235e-05
-8.45444e-05
-3.01036e-05
-9.46601e-05
-5.00076e-05
-7.78729e-05
-7.36457e-05
-4.01712e-05
-0.000100625
1.29043e-05
-0.000130665
7.70302e-05
-0.000163515
0.000149682
-0.000198896
0.000230345
-0.000236493
0.000320325
-0.000275957
0.00042228
-0.000316929
0.000539704
-0.000359046
0.000676523
-0.000401856
0.000836691
0.00102487
-0.000444618
-3.94602e-06
-3.79618e-05
-1.38742e-05
-7.46162e-05
-2.86436e-05
-7.98906e-05
-4.73972e-05
-5.91193e-05
-6.95378e-05
-1.80305e-05
-9.4665e-05
3.80315e-05
-0.000122482
0.000104847
-0.000152702
0.000179903
-0.000184985
0.000262627
-0.000218903
0.000354243
-0.000253952
0.000457329
-0.000289563
0.000575316
-0.000325121
0.000712081
-0.000359898
0.000871468
0.00105775
-0.000392774
-3.74436e-06
-3.42174e-05
-1.31128e-05
-6.52477e-05
-2.69581e-05
-6.60454e-05
-4.44129e-05
-4.16646e-05
-6.48675e-05
2.42408e-06
-8.79047e-05
6.10687e-05
-0.000113202
0.000130145
-0.00014043
0.000207131
-0.000169172
0.000291369
-0.000198885
0.000383955
-0.000228895
0.00048734
-0.000258416
0.000604836
-0.000286564
0.000740228
-0.000312342
0.000897247
0.00107967
-0.000334267
-3.51839e-06
-3.0699e-05
-1.22716e-05
-5.64945e-05
-2.51113e-05
-5.32056e-05
-4.11584e-05
-2.56175e-05
-5.9784e-05
2.10497e-05
-8.05452e-05
8.18299e-05
-0.000103085
0.000152684
-0.000127021
0.000231067
-0.000151857
0.000316205
-0.000176928
0.000409026
-0.00020139
0.000511802
-0.000224232
0.000627678
-0.000244303
0.0007603
-0.000260352
0.000913296
0.00108988
-0.000270555
-3.27815e-06
-2.74209e-05
-1.1384e-05
-4.83887e-05
-2.31704e-05
-4.14192e-05
-3.77425e-05
-1.10453e-05
-5.4445e-05
3.77521e-05
-7.27997e-05
0.000100185
-9.24053e-05
0.00017229
-0.000112822
0.000251483
-0.000133469
0.000336852
-0.00015356
0.000429117
-0.000172083
0.000530326
-0.000187808
0.000643402
-0.000199325
0.000771817
-0.000205151
0.000919122
0.00108789
-0.000203162
-3.03374e-06
-2.43871e-05
-1.04838e-05
-4.09387e-05
-2.12031e-05
-3.06999e-05
-3.42761e-05
2.0277e-06
-4.90122e-05
5.24882e-05
-6.48886e-05
0.000116061
-8.14517e-05
0.000188853
-9.81974e-05
0.000268229
-0.00011446
0.000353115
-0.000129337
0.000443994
-0.000141655
0.000542644
-0.000149977
0.000651724
-0.000152648
0.000774488
-0.000147993
0.000914468
0.00107356
-0.000133667
-2.79505e-06
-2.15921e-05
-9.6041e-06
-3.41296e-05
-1.92764e-05
-2.10276e-05
-3.08687e-05
1.362e-05
-4.36467e-05
6.52662e-05
-5.70336e-05
0.000129448
-7.05154e-05
0.000202335
-8.35193e-05
0.000281233
-9.5296e-05
0.000364891
-0.000104831
0.000453528
-0.000110802
0.000548615
-0.000111583
0.000652506
-0.000105287
0.000768191
-9.01048e-05
0.000899286
0.00104728
-6.38198e-05
-2.57145e-06
-1.90206e-05
-8.77639e-06
-2.79247e-05
-1.7454e-05
-1.235e-05
-2.76257e-05
2.37918e-05
-3.85045e-05
7.61451e-05
-4.94511e-05
0.000140394
-5.98836e-05
0.000212767
-6.91571e-05
0.000290507
-7.64397e-05
0.000372174
-8.06137e-05
0.000457703
-8.0223e-05
0.000548224
-7.34732e-05
0.000645756
-5.82384e-05
0.000752956
-3.2339e-05
0.000873387
0.00101072
4.22e-06
-2.3715e-06
-1.66491e-05
-8.02939e-06
-2.22668e-05
-1.57944e-05
-4.58508e-06
-2.46442e-05
3.26416e-05
-3.3731e-05
8.52319e-05
-4.23448e-05
0.000149008
-4.98299e-05
0.000220252
-5.5466e-05
0.000296143
-5.83413e-05
0.000375049
-5.72447e-05
0.000456606
-5.06008e-05
0.00054158
-3.64688e-05
0.000631624
-1.26338e-05
0.000729121
2.3499e-05
0.000837254
0.000960925
7.32913e-05
-2.20267e-06
-1.44465e-05
-7.38818e-06
-1.70813e-05
-1.43488e-05
2.37552e-06
-2.20101e-05
4.03029e-05
-2.94558e-05
9.26775e-05
-3.58986e-05
0.000155451
-4.06039e-05
0.000224957
-4.27742e-05
0.000298313
-4.14206e-05
0.000373695
-3.52485e-05
0.000450434
-2.25801e-05
0.000528912
-1.3339e-06
0.000610378
3.09045e-05
0.000696883
7.65147e-05
0.000791644
0.000899951
0.000137489
-2.07113e-06
-1.23753e-05
-6.8733e-06
-1.22791e-05
-1.31593e-05
8.66149e-06
-1.97943e-05
4.69379e-05
-2.57872e-05
9.86704e-05
-3.02684e-05
0.000159932
-3.24207e-05
0.00022711
-3.13683e-05
0.000297261
-2.60492e-05
0.000368376
-1.5094e-05
0.000439479
3.25838e-06
0.00051056
3.11966e-05
0.000582439
7.12752e-05
0.000656804
0.000126004
0.000736915
0.000828687
0.000197268
-1.98143e-06
-1.03939e-05
-6.49977e-06
-7.76077e-06
-1.22567e-05
1.44184e-05
-1.80494e-05
5.27306e-05
-2.2807e-05
0.000103428
-2.55741e-05
0.000162699
-2.54489e-05
0.000226985
-2.14778e-05
0.00029329
-1.25294e-05
0.000359428
2.82994e-06
0.000424119
2.64325e-05
0.000486957
6.05593e-05
0.000548313
0.000107886
0.000609478
0.000171058
0.000673742
0.000747862
0.000251884
-1.93634e-06
-8.45755e-06
-6.27635e-06
-3.42076e-06
-1.16589e-05
1.9801e-05
-1.68066e-05
5.78783e-05
-2.05651e-05
0.000107186
-2.18917e-05
0.000164026
-1.97995e-05
0.000224892
-1.32581e-05
0.000286748
-1.07032e-06
0.00034724
1.82509e-05
0.000404798
4.65993e-05
0.000458609
8.63327e-05
0.000508579
0.000140246
0.000555565
0.000211145
0.000602843
0.000658133
0.000300874
-1.93657e-06
-6.52098e-06
-6.20479e-06
8.47461e-07
-1.13694e-05
2.49656e-05
-1.60728e-05
6.25817e-05
-1.90748e-05
0.000110188
-1.92455e-05
0.000164197
-1.55137e-05
0.00022116
-6.7741e-06
0.000278009
8.23105e-06
0.000332235
3.10423e-05
0.000381987
6.35984e-05
0.000426052
0.000108328
0.000463849
0.000168154
0.000495739
0.00024608
0.000524916
0.00056
0.000344214
-1.98063e-06
-4.54035e-06
-6.27923e-06
5.14607e-06
-1.13759e-05
3.00623e-05
-1.58279e-05
6.70337e-05
-1.83089e-05
0.000112669
-1.76021e-05
0.00016349
-1.2553e-05
0.000216111
-1.98232e-06
0.000267438
1.54261e-05
0.000314827
4.12612e-05
0.000356152
7.75054e-05
0.000389808
0.000126657
0.000414698
0.000191783
0.000430612
0.000276148
0.000440552
0.000453712
0.000382436
-2.06469e-06
-2.47566e-06
-6.48586e-06
9.56724e-06
-1.16495e-05
3.52259e-05
-1.60243e-05
7.14085e-05
-1.8197e-05
0.000114842
-1.68648e-05
0.000162158
-1.07909e-05
0.000210037
1.27803e-06
0.000255369
2.0723e-05
0.000295382
4.91801e-05
0.000327695
8.86801e-05
0.000350308
0.000141798
0.00036158
0.000211777
0.000360634
0.000302214
0.000350115
0.00033917
0.000416757
-2.18256e-06
-2.93097e-07
-6.80285e-06
1.41875e-05
-1.21447e-05
4.05677e-05
-1.65853e-05
7.58492e-05
-1.8624e-05
0.000116881
-1.68718e-05
0.000160406
-1.0007e-05
0.000203173
3.30227e-06
0.00024206
2.45091e-05
0.000274175
5.53118e-05
0.000296892
9.78034e-05
0.000307817
0.000154654
0.00030473
0.00022932
0.000285968
0.000325821
0.000253613
0.000215834
0.000449156
-2.32565e-06
2.03255e-06
-7.20066e-06
1.90625e-05
-1.28001e-05
4.61672e-05
-1.74071e-05
8.04562e-05
-1.94319e-05
0.000118906
-1.73968e-05
0.000158371
-9.89002e-06
0.000195666
4.51284e-06
0.000227657
2.7353e-05
0.000251335
6.04169e-05
0.000263828
0.000105891
0.000262342
0.000166573
0.000244048
0.00024617
0.00020637
0.000349211
0.000150573
8.26924e-05
0.000482353
-2.48348e-06
4.51603e-06
-7.64284e-06
2.42219e-05
-1.35399e-05
5.20642e-05
-1.83607e-05
8.5277e-05
-2.04231e-05
0.000120968
-1.81543e-05
0.000156102
-1.00398e-05
0.000187552
5.45553e-06
0.000212161
2.9993e-05
0.000226797
6.54882e-05
0.000228333
0.00011427
0.000213561
0.00017931
0.000179007
0.000264598
0.000121083
0.000375241
3.99294e-05
-6.17032e-05
0.000519637
-2.64366e-06
7.15969e-06
-8.08736e-06
2.96656e-05
-1.42767e-05
5.82535e-05
-1.9297e-05
9.02973e-05
-2.13676e-05
0.000123039
-1.88094e-05
0.000153544
-9.98645e-06
0.000178729
6.77774e-06
0.000195397
3.33074e-05
0.000200268
7.17049e-05
0.000189935
0.000124508
0.000160757
0.000194922
0.000108594
0.000287223
2.8782e-05
0.000407154
-8.00017e-05
-0.000219076
0.000564527
-2.7927e-06
9.95238e-06
-8.48845e-06
3.53614e-05
-1.49152e-05
6.46803e-05
-2.00531e-05
9.54353e-05
-2.20132e-05
0.000124999
-1.89933e-05
0.000150524
-9.20943e-06
0.000168945
9.19568e-06
0.000176992
3.82645e-05
0.000171199
8.03565e-05
0.000147843
0.000138297
0.000102817
0.000215584
3.13064e-05
0.000316748
-7.23816e-05
0.000448203
-0.000211457
-0.000391154
0.00062028
-2.91669e-06
1.28691e-05
-8.79896e-06
4.12436e-05
-1.53572e-05
7.12385e-05
-2.04603e-05
0.000100538
-2.20977e-05
0.000126636
-1.83222e-05
0.000146748
-7.16782e-06
0.00015779
1.34502e-05
0.000156374
4.5856e-05
0.000138793
9.27409e-05
0.000100958
0.000157296
3.82619e-05
0.000243362
-5.47601e-05
0.000355622
-0.000184642
0.000501187
-0.000357021
-0.000579277
0.000689311
-3.00212e-06
1.58712e-05
-8.97304e-06
4.72145e-05
-1.55069e-05
7.77723e-05
-2.03536e-05
0.000105385
-2.13646e-05
0.000127647
-1.64205e-05
0.000141804
-3.33462e-06
0.000144704
2.02554e-05
0.000132784
5.70194e-05
0.000102029
0.00011005
4.79281e-05
0.000182961
-3.46497e-05
0.00027996
-0.000151759
0.000405704
-0.000310386
0.000567987
-0.000519304
-0.000783951
0.000772661
-3.03679e-06
1.8908e-05
-8.96899e-06
5.31467e-05
-1.52765e-05
8.40798e-05
-1.95815e-05
0.00010969
-1.95779e-05
0.000127644
-1.29448e-05
0.000135171
2.76499e-06
0.000128995
3.02449e-05
0.000105304
7.25613e-05
5.97127e-05
0.000133257
-1.27676e-05
0.000216394
-0.000117787
0.000326511
-0.000261876
0.000468006
-0.000451881
0.000649223
-0.000700521
-0.00100439
0.00086966
-3.01063e-06
2.19186e-05
-8.75193e-06
5.8888e-05
-1.4592e-05
8.99199e-05
-1.80152e-05
0.000113113
-1.65374e-05
0.000126166
-7.60558e-06
0.000126239
1.15271e-05
0.000109862
4.39248e-05
7.29064e-05
9.30894e-05
1.0548e-05
0.00016303
-8.27087e-05
0.000258227
-0.000212983
0.000383444
-0.000387093
0.000542575
-0.000611012
0.000744104
-0.000902049
-0.00123821
0.000977929
-2.91647e-06
2.48351e-05
-8.29606e-06
6.42676e-05
-1.33974e-05
9.50212e-05
-1.55567e-05
0.000115273
-1.20909e-05
0.0001227
-1.84186e-07
0.000114332
2.32348e-05
8.64431e-05
6.1636e-05
3.45052e-05
0.000118967
-4.67825e-05
0.000199677
-0.000163419
0.000308573
-0.000321879
0.000450453
-0.000528973
0.000628522
-0.000789081
0.00085045
-0.00112398
-0.00148162
0.00109385
-2.75053e-06
2.75856e-05
-7.58619e-06
6.91033e-05
-1.16581e-05
9.90931e-05
-1.21439e-05
0.000115758
-6.14302e-06
0.000116699
9.44302e-06
9.87462e-05
3.8045e-05
5.78411e-05
8.35348e-05
-1.09847e-05
0.000150288
-0.000113536
0.000243127
-0.000256258
0.000367039
-0.00044579
0.000526594
-0.000688529
0.00072426
-0.000986748
0.000964905
-0.00136462
-0.00173022
0.00121351
-2.51254e-06
3.00982e-05
-6.6184e-06
7.32092e-05
-9.36195e-06
0.000101837
-7.75285e-06
0.000114149
1.34313e-06
0.000107603
2.13254e-05
7.87639e-05
5.59856e-05
2.31809e-05
0.000109591
-6.45903e-05
0.000186889
-0.000190834
0.000292952
-0.000362321
0.000432757
-0.000585594
0.000610386
-0.000866158
0.000827796
-0.00120416
0.00108385
-0.00162068
-0.00198086
0.00133449
-2.20567e-06
3.23038e-05
-5.39953e-06
7.6403e-05
-6.5187e-06
0.000102956
-2.39648e-06
0.000110027
1.0346e-05
9.48607e-05
3.54176e-05
5.36923e-05
7.69628e-05
-1.83643e-05
0.000139606
-0.000127233
0.000228371
-0.0002796
0.00034841
-0.00048236
0.00050443
-0.000741614
0.000699732
-0.00106146
0.000936161
-0.00144059
0.00120614
-0.00189065
-0.00223325
0.00145852
-1.83613e-06
3.414e-05
-3.94604e-06
7.85129e-05
-3.15732e-06
0.000102167
3.87977e-06
0.00010299
2.07953e-05
7.79452e-05
5.16043e-05
2.28833e-05
0.000100781
-6.7541e-05
0.00017324
-0.000199692
0.000274154
-0.000380514
0.000408525
-0.000616731
0.00058046
-0.000913549
0.000791987
-0.00127299
0.00104368
-0.00169228
0.00132558
-0.00217255
-0.00259991
0.00169224
-1.4117e-06
3.55517e-05
-2.28053e-06
7.93818e-05
6.80065e-07
9.92065e-05
1.10068e-05
9.26631e-05
3.25828e-05
5.63692e-05
6.9716e-05
-1.42499e-05
0.000127169
-0.000124994
0.000210057
-0.00028258
0.000323533
-0.00049399
0.000472182
-0.00076538
0.00065912
-0.00110049
0.000884659
-0.00149853
0.00114704
-0.00195466
0.001434
-0.00245951
-0.00293537
0.00176947
-9.41817e-07
3.64935e-05
-4.27873e-07
7.88678e-05
4.94017e-06
9.38385e-05
1.88991e-05
7.87041e-05
4.55758e-05
2.96925e-05
8.95482e-05
-5.82222e-05
0.000155809
-0.000191255
0.000249559
-0.00037633
0.000375734
-0.000620165
0.000538201
-0.000927847
0.000738694
-0.00130098
0.000975444
-0.00173528
0.00124347
-0.00222269
0.00152951
-0.00274555
-0.00324745
0.00184159
-4.36672e-07
3.69302e-05
1.57483e-06
7.68563e-05
9.5685e-06
8.58448e-05
2.74658e-05
6.08068e-05
5.96322e-05
-2.47391e-06
0.000110882
-0.000109472
0.000186362
-0.000266736
0.000291219
-0.000481187
0.000429945
-0.000758891
0.000605378
-0.00110328
0.000817508
-0.00151311
0.00106227
-0.00198003
0.0013316
-0.00249202
0.00161168
-0.00302564
-0.00353788
0.00190211
9.89224e-08
3.68312e-05
3.71109e-06
7.32441e-05
1.45135e-05
7.50424e-05
3.66191e-05
3.87012e-05
7.46125e-05
-4.04673e-05
0.000133498
-0.000168357
0.000218485
-0.000351723
0.000334499
-0.000597201
0.000485339
-0.00090973
0.000672501
-0.00129044
0.000893944
-0.00173455
0.00114324
-0.00222933
0.00140979
-0.00275858
0.00167954
-0.00329538
-0.00380647
0.00194813
6.52298e-07
3.61789e-05
5.95566e-06
6.79408e-05
1.97306e-05
6.12674e-05
4.62811e-05
1.21507e-05
9.03889e-05
-8.45751e-05
0.000157191
-0.000235159
0.000251843
-0.000446375
0.000378861
-0.000724219
0.000541081
-0.00107195
0.000738364
-0.00148772
0.000966462
-0.00196265
0.0012167
-0.00247956
0.00147669
-0.00301856
0.00173266
-0.00355136
-0.0040528
0.00197899
1.22386e-06
3.49551e-05
8.29306e-06
6.08716e-05
2.51851e-05
4.43754e-05
5.63881e-05
-1.90523e-05
0.000106849
-0.000135036
0.000181766
-0.000310076
0.000286105
-0.000550714
0.000423758
-0.000861872
0.000596325
-0.00124452
0.000801783
-0.00169318
0.00103364
-0.0021945
0.00128128
-0.0027272
0.00153136
-0.00326865
0.00177108
-0.00379107
-0.00427679
0.00199507
1.81036e-06
3.31447e-05
1.07143e-05
5.19676e-05
3.08541e-05
2.42357e-05
6.68908e-05
-5.50891e-05
0.000123897
-0.000192043
0.000207041
-0.000393219
0.000320943
-0.000664616
0.000468634
-0.00100956
0.000650214
-0.0014261
0.000861613
-0.00190458
0.00109421
-0.00242709
0.00133595
-0.00296894
0.00157338
-0.00350609
0.00179527
-0.00401296
-0.00447885
0.00199733
2.41228e-06
3.07324e-05
1.3217e-05
4.11629e-05
3.67247e-05
7.27943e-07
7.77528e-05
-9.61172e-05
0.000141447
-0.000255737
0.000232837
-0.00048461
0.000356015
-0.000787794
0.00051291
-0.00116646
0.00070189
-0.00161508
0.000916785
-0.00211948
0.00114713
-0.00265744
0.00138005
-0.00320186
0.00160276
-0.00372881
0.00180604
-0.00421623
-0.00465993
0.00198712
3.0321e-06
2.77003e-05
1.58035e-05
2.83915e-05
4.27919e-05
-2.62604e-05
8.89451e-05
-0.00014227
0.000159416
-0.000326208
0.000258966
-0.00058416
0.00039096
-0.000919788
0.000555983
-0.00133148
0.000750507
-0.0018096
0.000966341
-0.00233531
0.00119161
-0.0028827
0.00141329
-0.00342355
0.00161992
-0.00393543
0.00180451
-0.00440082
-0.00482139
0.00196597
3.67362e-06
2.40267e-05
1.84799e-05
1.35852e-05
4.90546e-05
-5.68351e-05
0.000100441
-0.000193656
0.000177714
-0.000403481
0.000285221
-0.000691668
0.000425383
-0.00105995
0.000597231
-0.00150333
0.00079526
-0.00200763
0.00100948
-0.00254953
0.00122714
-0.00310036
0.00143574
-0.00363214
0.00162556
-0.00412526
0.00179196
-0.00456722
-0.00496485
0.00193542
4.34123e-06
1.96855e-05
2.12531e-05
-3.32666e-06
5.55118e-05
-9.10938e-05
0.000112207
-0.000250351
0.000196237
-0.000487511
0.000311367
-0.000806798
0.000458863
-0.00120745
0.000636027
-0.00168049
0.000835417
-0.00220702
0.00104559
-0.00275971
0.00125352
-0.00330829
0.00144775
-0.00382637
0.00162064
-0.00429815
0.00176976
-0.00471635
-0.00509205
0.00189697
5.03919e-06
1.46463e-05
2.41287e-05
-2.24162e-05
6.21575e-05
-0.000129123
0.000124199
-0.000312393
0.000214858
-0.00057817
0.000337138
-0.000929078
0.000490949
-0.00136126
0.000671765
-0.00186131
0.000870355
-0.00240561
0.00107427
-0.00296362
0.00127078
-0.0035048
0.00144994
-0.00400553
0.00160624
-0.00445445
0.00173926
-0.00484937
-0.00520477
0.00185198
5.77096e-06
8.87533e-06
2.71095e-05
-4.37547e-05
6.89784e-05
-0.000170992
0.000136359
-0.000379773
0.000233427
-0.000675237
0.000362239
-0.00105789
0.000521181
-0.0015202
0.000703883
-0.00204401
0.000899584
-0.00260131
0.00109534
-0.00315938
0.00127922
-0.00368868
0.00144307
-0.00416938
0.00158349
-0.00459486
0.00170176
-0.00496764
-0.00530469
0.00180168
6.53868e-06
2.33664e-06
3.01933e-05
-6.74093e-05
7.59501e-05
-0.000216748
0.000148606
-0.000452429
0.000251762
-0.000778394
0.00038635
-0.00119248
0.000549105
-0.00168295
0.000731892
-0.0022268
0.000922771
-0.00279219
0.00110881
-0.00334541
0.00127931
-0.00385918
0.00142803
-0.0043181
0.00155352
-0.00472035
0.00165844
-0.00507256
-0.00539337
0.00174712
7.34287e-06
-5.00623e-06
3.33728e-05
-9.34392e-05
8.30369e-05
-0.000266412
0.000160843
-0.000530236
0.000269663
-0.000887214
0.000409139
-0.00133195
0.000574296
-0.00184811
0.000755398
-0.0024079
0.000939746
-0.00297654
0.00111489
-0.00352056
0.00127166
-0.00401595
0.00140575
-0.00445219
0.00151742
-0.00483202
0.00161036
-0.0051655
-0.00547221
0.0016892
8.18225e-06
-1.31885e-05
3.66343e-05
-0.000121891
9.01906e-05
-0.000319969
0.000172954
-0.000612999
0.00028691
-0.00100117
0.000430275
-0.00147532
0.000596373
-0.00201421
0.000774119
-0.00258565
0.000950491
-0.00315291
0.00111393
-0.003684
0.00125697
-0.004159
0.00137716
-0.00457238
0.00147618
-0.00493104
0.00155844
-0.00524777
-0.0055424
0.00162864
9.05379e-06
-2.22423e-05
3.99584e-05
-0.000152796
9.73522e-05
-0.000377363
0.000184807
-0.000700453
0.000303273
-0.00111964
0.000449444
-0.00162149
0.000615021
-0.00217979
0.000787889
-0.00275852
0.00095513
-0.00332015
0.0011064
-0.00383526
0.001236
-0.0042886
0.00134316
-0.00467954
0.00143069
-0.00501858
0.00150347
-0.00532055
-0.005605
0.00156607
9.95277e-06
-3.2195e-05
4.33206e-05
-0.000186164
0.000104453
-0.000438495
0.00019626
-0.000792261
0.000318523
-0.0012419
0.000466361
-0.00176933
0.000630003
-0.00234343
0.000796659
-0.00292517
0.000953908
-0.0034774
0.00109283
-0.00397419
0.0012095
-0.00440526
0.00130457
-0.00477462
0.00138176
-0.00509576
0.00144611
-0.0053849
-0.00566084
0.00150195
1.0873e-05
-4.30681e-05
4.66915e-05
-0.000221982
0.000111416
-0.00050322
0.000207168
-0.000888013
0.000332439
-0.00136717
0.00048078
-0.00191767
0.000641162
-0.00250381
0.000800487
-0.0030845
0.000947161
-0.00362407
0.00107383
-0.00410085
0.0011782
-0.00450964
0.00126218
-0.0048586
0.00133006
-0.00516364
0.0013869
-0.00544174
-0.00571063
0.00143669
1.18072e-05
-5.48753e-05
5.00384e-05
-0.000260213
0.000118162
-0.000571343
0.000217382
-0.000987233
0.000344817
-0.0014946
0.000492509
-0.00206536
0.000648427
-0.00265973
0.000799524
-0.00323559
0.000935292
-0.00375984
0.00104998
-0.00421554
0.0011428
-0.00460246
0.00121665
-0.00493244
0.00127617
-0.00522317
0.00132628
-0.00549185
-0.00575494
0.00137059
1.2747e-05
-6.76223e-05
5.33258e-05
-0.000300792
0.000124606
-0.000642623
0.00022676
-0.00108939
0.00035548
-0.00162332
0.000501409
-0.00221129
0.000651804
-0.00281012
0.000793997
-0.00337779
0.000918751
-0.00388459
0.00102189
-0.00431868
0.00110396
-0.00468452
0.00116858
-0.00499707
0.00122059
-0.00527518
0.00126463
-0.00553588
-0.0057942
0.00130389
1.36832e-05
-8.13055e-05
5.65168e-05
-0.000343626
0.000130666
-0.000716772
0.00023517
-0.00119389
0.00036428
-0.00175244
0.000507399
-0.00235441
0.000651373
-0.0029541
0.000784193
-0.00351061
0.000898007
-0.00399841
0.000990141
-0.00441082
0.00106225
-0.00475663
0.0011185
-0.00505332
0.00116372
-0.0053204
0.00120222
-0.00557439
-0.00582876
0.00123678
1.46063e-05
-9.59118e-05
5.95736e-05
-0.000388593
0.000136261
-0.000793459
0.000242492
-0.00130012
0.000371105
-0.00188105
0.000510454
-0.00249376
0.000647273
-0.00309092
0.00077044
-0.00363377
0.000873535
-0.0041015
0.000955262
-0.00449255
0.00101819
-0.00481955
0.00106683
-0.00510196
0.00110589
-0.00535946
0.00113929
-0.00560779
-0.00585889
0.00116942
1.55063e-05
-0.000111418
6.24591e-05
-0.000435546
0.000141315
-0.000872315
0.000248626
-0.00140743
0.000375878
-0.0020083
0.0005106
-0.00262848
0.000639692
-0.00322001
0.000753091
-0.00374717
0.0008458
-0.00419421
0.000917755
-0.0045645
0.000972243
-0.00487404
0.00101395
-0.00514366
0.00104737
-0.00539288
0.00107603
-0.00563644
-0.00588478
0.00110192
1.63733e-05
-0.000127791
6.51369e-05
-0.000484309
0.000145761
-0.000952939
0.00025349
-0.00151516
0.00037856
-0.00213337
0.000507912
-0.00275783
0.000628859
-0.00334095
0.000732511
-0.00385083
0.000815247
-0.00427695
0.00087807
-0.00462732
0.000924807
-0.00492078
0.000960179
-0.00517904
0.000988397
-0.0054211
0.00101258
-0.00566063
-0.00590659
0.00103439
1.71972e-05
-0.000144989
6.7573e-05
-0.000534685
0.000149537
-0.0010349
0.000257023
-0.00162265
0.000379146
-0.00225549
0.000502502
-0.00288119
0.000615024
-0.00345348
0.000709066
-0.00394487
0.000782293
-0.00435017
0.000836612
-0.00468164
0.000876223
-0.00496039
0.000905771
-0.00520858
0.000929144
-0.00544447
0.000949069
-0.00568055
-0.00592442
0.0009669
1.79684e-05
-0.000162957
6.97357e-05
-0.000586452
0.000152593
-0.00111776
0.000259185
-0.00172924
0.000377665
-0.00237397
0.000494514
-0.00299804
0.000598457
-0.00355742
0.000683113
-0.00402952
0.000747324
-0.00441438
0.000793738
-0.00472806
0.000826783
-0.00499343
0.000850944
-0.00523274
0.000869759
-0.00546329
0.000885591
-0.00569638
-0.00593835
0.000899523
1.86776e-05
-0.000181635
7.15969e-05
-0.000639372
0.000154889
-0.00120105
0.00025996
-0.00183431
0.000374174
-0.00248819
0.000484116
-0.00310798
0.000579434
-0.00365274
0.000654992
-0.00410508
0.000710689
-0.00447008
0.00074976
-0.00476713
0.000776736
-0.00502041
0.000795874
-0.00525188
0.000810365
-0.00547778
0.000822228
-0.00570825
-0.00594844
0.000832316
1.93161e-05
-0.000200951
7.31322e-05
-0.000693188
0.000156396
-0.00128432
0.000259351
-0.00193727
0.000368755
-0.00259759
0.000471493
-0.00321072
0.000558229
-0.00373947
0.000625025
-0.00417188
0.000672706
-0.00451776
0.00070495
-0.00479937
0.000726289
-0.00504175
0.000740711
-0.0052663
0.000751059
-0.00548812
0.000759048
-0.00571624
-0.00595473
0.000765332
1.9876e-05
-0.000220827
7.43214e-05
-0.000747633
0.000157097
-0.00136709
0.000257379
-0.00203755
0.000361508
-0.00270172
0.000456843
-0.00330605
0.000535111
-0.00381774
0.00059351
-0.00423028
0.000633656
-0.00455791
0.000659542
-0.00482526
0.000675617
-0.00505782
0.000685574
-0.00527626
0.000691924
-0.00549447
0.000696107
-0.00572042
-0.00595723
0.000698616
2.0352e-05
-0.000241179
7.51524e-05
-0.000802434
0.000156991
-0.00144893
0.00025409
-0.00213465
0.00035256
-0.00280019
0.000440373
-0.00339386
0.000510348
-0.00388772
0.000560729
-0.00428066
0.000593797
-0.00459098
0.000613747
-0.00484521
0.000624878
-0.00506895
0.000630575
-0.00528196
0.000633037
-0.00549694
0.000633466
-0.00572085
-0.00595599
0.000632219
2.07348e-05
-0.000261913
7.56073e-05
-0.000857306
0.00015607
-0.00152939
0.000249523
-0.0022281
0.000342023
-0.00289269
0.000422268
-0.00347411
0.000484164
-0.00394961
0.00052691
-0.0043234
0.000553329
-0.0046174
0.000567716
-0.0048596
0.000574175
-0.00507541
0.000575778
-0.00528356
0.000574438
-0.0054956
0.000571149
-0.00571756
-0.005951
0.000566162
2.1021e-05
-0.000282934
7.5683e-05
-0.000911968
0.000154353
-0.00160806
0.00024375
-0.0023175
0.000330039
-0.00297898
0.000402732
-0.0035468
0.000456797
-0.00400368
0.000492287
-0.00435889
0.00051245
-0.00463756
0.000521604
-0.00486875
0.000523621
-0.00507743
0.000521264
-0.00528121
0.000516186
-0.00549052
0.000509206
-0.00571058
-0.00594229
0.000500492
2.12066e-05
-0.000304141
7.53773e-05
-0.000966139
0.000151863
-0.00168455
0.000236845
-0.00240248
0.000316746
-0.00305888
0.000381955
-0.00361201
0.000428457
-0.00405018
0.000457057
-0.00438749
0.000471327
-0.00465183
0.000475536
-0.00487296
0.000473301
-0.00507519
0.000467091
-0.00527499
0.000458324
-0.00548175
0.000447673
-0.00569993
-0.00592986
0.000435243
2.12888e-05
-0.00032543
7.46927e-05
-0.00101954
0.000148629
-0.00175849
0.00022889
-0.00248274
0.000302285
-0.00313227
0.000360119
-0.00366984
0.000399337
-0.0040894
0.000421397
-0.00440955
0.000430102
-0.00466053
0.000429617
-0.00487248
0.00042329
-0.00506887
0.000413312
-0.00526502
0.000400893
-0.00546933
0.000386584
-0.00568562
-0.00591372
0.000370447
2.12661e-05
-0.000346696
7.36353e-05
-0.00107191
0.000144687
-0.00182954
0.00021997
-0.00255802
0.000286792
-0.0031991
0.000337392
-0.00372044
0.000369612
-0.00412162
0.000385462
-0.0044254
0.000388897
-0.00466397
0.000383935
-0.00486751
0.00037365
-0.00505858
0.00035997
-0.00525134
0.000343926
-0.00545329
0.000325969
-0.00566766
-0.00589388
0.000306134
2.11377e-05
-0.000367834
7.22151e-05
-0.00112299
0.000140079
-0.0018974
0.000210173
-0.00262812
0.000270402
-0.00325933
0.000313933
-0.00376397
0.000339438
-0.00414712
0.000349389
-0.00443536
0.000347819
-0.0046624
0.000338565
-0.00485826
0.000324432
-0.00504445
0.000307105
-0.00523401
0.000287454
-0.00543364
0.000265858
-0.00564607
-0.00587035
0.000242325
2.09041e-05
-0.000388738
7.0445e-05
-0.00117253
0.000134849
-0.00196181
0.00019959
-0.00269286
0.000253241
-0.00331298
0.000289889
-0.00380062
0.000308957
-0.00416619
0.000313296
-0.0044397
0.000306957
-0.00465606
0.000293573
-0.00484488
0.000275684
-0.00502656
0.00025475
-0.00521308
0.000231504
-0.00541039
0.000206275
-0.00562084
-0.00584311
0.000179039
2.05669e-05
-0.000409305
6.83409e-05
-0.0012203
0.000129046
-0.00202251
0.000188309
-0.00275212
0.000235431
-0.0033601
0.000265393
-0.00383059
0.000278293
-0.00417909
0.000277287
-0.00443869
0.000266388
-0.00464516
0.000249015
-0.0048275
0.000227446
-0.00500499
0.00020294
-0.00518857
0.000176107
-0.00538356
0.00014724
-0.00559197
-0.00581216
0.000116282
2.01283e-05
-0.000429433
6.59208e-05
-0.0012661
0.000122719
-0.00207931
0.000176416
-0.00280582
0.000217086
-0.00340077
0.000240566
-0.00385407
0.000247559
-0.00418608
0.00024145
-0.00443258
0.000226179
-0.00462989
0.000204936
-0.00480626
0.000179757
-0.00497981
0.000151713
-0.00516053
0.000121315
-0.00535316
8.87621e-05
-0.00555942
-0.00577737
5.39722e-05
1.95915e-05
-0.000449024
6.32045e-05
-0.00130971
0.000115919
-0.00213202
0.000163997
-0.0028539
0.000198312
-0.00343508
0.000215519
-0.00387127
0.000216852
-0.00418742
0.000205864
-0.00442159
0.000186386
-0.00461041
0.000161378
-0.00478125
0.000132647
-0.00495108
0.000101103
-0.00512898
6.71891e-05
-0.00531924
3.09794e-05
-0.00552321
-0.00573776
-8.62819e-06
1.89602e-05
-0.000467985
6.02131e-05
-0.00135096
0.000108696
-0.00218051
0.00015113
-0.00289633
0.000179207
-0.00346316
0.00019035
-0.00388242
0.000186258
-0.00418332
0.000170594
-0.00440593
0.000147058
-0.00458688
0.000118376
-0.00475257
8.61421e-05
-0.00491885
5.11314e-05
-0.00509397
1.36613e-05
-0.00528177
-2.60042e-05
-0.00548354
-0.00569563
-6.81333e-05
1.82391e-05
-0.000486224
5.69688e-05
-0.00138969