/*--------------------------------*- C++ -*----------------------------------*\
  =========                 |
  \\      /  F ield         | OpenFOAM: The Open Source CFD Toolbox
   \\    /   O peration     | Website:  https://openfoam.org
    \\  /    A nd           | Version:  7
     \\/     M anipulation  |
\*---------------------------------------------------------------------------*/
FoamFile
{
    version     2.0;
    format      ascii;
    class       volVectorField;
    location    "120";
    object      U;
}
// * * * * * * * * * * * * * * * * * * * * * * * * * * * * * * * * * * * * * //

dimensions      [0 1 -1 0 0 0 0];

internalField   nonuniform List<vector> 
20050
(
(-0.000752535 -0.0227579 4.71527e-21)
(-0.00559824 -0.0460211 -8.37058e-22)
(-0.0154417 -0.0531802 -1.08582e-20)
(-0.0279135 -0.0487373 -1.63036e-20)
(-0.0422204 -0.0366683 -1.46638e-21)
(-0.0577429 -0.0201427 9.99254e-21)
(-0.0740023 -0.00137029 -1.11904e-20)
(-0.0906517 0.0184061 2.93847e-21)
(-0.107419 0.0387657 -7.9221e-21)
(-0.124087 0.0598592 1.44582e-20)
(-0.140497 0.0821378 1.23887e-20)
(-0.156549 0.106143 -1.4981e-20)
(-0.172205 0.132385 -7.59522e-21)
(-0.187414 0.161302 8.00928e-21)
(-0.202166 0.193435 -8.40667e-21)
(-0.000236122 -0.0209094 7.65756e-21)
(-0.00448933 -0.0416218 -5.10232e-21)
(-0.0139578 -0.0470428 -2.24718e-21)
(-0.0261874 -0.0414368 1.63099e-20)
(-0.0403044 -0.0286141 1.99277e-20)
(-0.0556363 -0.0116219 -4.90381e-20)
(-0.0716741 0.00740943 2.98625e-20)
(-0.088056 0.0272838 3.12434e-20)
(-0.104501 0.0476094 4.07998e-20)
(-0.120783 0.0685624 -3.89221e-20)
(-0.136724 0.0906214 2.56205e-20)
(-0.152197 0.114357 2.4512e-20)
(-0.167133 0.140304 1.40514e-20)
(-0.181395 0.1689 -4.41405e-20)
(-0.194851 0.200672 3.6224e-20)
(0.000202498 -0.0190935 -3.11128e-20)
(-0.00352742 -0.0373298 -3.91515e-20)
(-0.0126072 -0.0410886 2.99494e-20)
(-0.0245327 -0.0343893 3.75542e-20)
(-0.0383604 -0.0208703 -2.42056e-20)
(-0.0533703 -0.00345444 -4.4588e-20)
(-0.0690251 0.0158052 2.82823e-20)
(-0.0849468 0.0357532 -8.211e-20)
(-0.100844 0.0560194 -3.94813e-20)
(-0.116479 0.0767962 -3.13476e-20)
(-0.13165 0.0985828 -4.51738e-20)
(-0.146197 0.121973 7.84462e-21)
(-0.160018 0.147524 3.14948e-20)
(-0.172889 0.175675 1.46356e-19)
(-0.184513 0.206929 -5.63148e-20)
(0.000566183 -0.0173331 4.28688e-21)
(-0.00271019 -0.0331928 7.8089e-20)
(-0.0113962 -0.035379 3.05425e-20)
(-0.0229676 -0.0276643 -5.44644e-20)
(-0.0364209 -0.0135122 1.29207e-20)
(-0.0509929 0.00427933 5.08983e-20)
(-0.0661191 0.0237316 4.61196e-20)
(-0.0814048 0.0437247 3.11021e-20)
(-0.096547 0.0639013 -5.74563e-20)
(-0.111292 0.0844619 1.60481e-19)
(-0.125414 0.105918 -6.79885e-20)
(-0.138717 0.128883 9.48192e-20)
(-0.151063 0.153931 -3.32204e-20)
(-0.16215 0.18151 -1.21439e-19)
(-0.171466 0.212093 4.56773e-20)
(0.000859203 -0.0156471 1.0882e-19)
(-0.002033 -0.0292515 -4.25985e-20)
(-0.0103292 -0.0299669 -3.24202e-21)
(-0.02151 -0.0213227 3.00762e-20)
(-0.0345197 -0.00660719 1.91514e-20)
(-0.0485554 0.0115055 2.55912e-20)
(-0.0630259 0.0311087 -1.00209e-19)
(-0.0775189 0.0511122 -8.38997e-21)
(-0.091718 0.0711645 6.73514e-21)
(-0.105354 0.091465 -1.55799e-19)
(-0.118176 0.11253 1.38287e-19)
(-0.129948 0.134984 -9.52979e-20)
(-0.140501 0.15942 -4.35295e-20)
(-0.149466 0.1863 -2.33818e-20)
(-0.156062 0.216072 -5.60753e-20)
(0.00108685 -0.0140504 -6.45232e-20)
(-0.0014896 -0.0255376 -2.6507e-20)
(-0.0094096 -0.0248942 -8.31184e-20)
(-0.0201774 -0.0154145 -1.50168e-20)
(-0.0326914 -0.000212884 -5.80329e-20)
(-0.0461115 0.0181587 -4.71698e-20)
(-0.0598196 0.0378633 -5.78842e-20)
(-0.0733846 0.0578358 3.52296e-20)
(-0.0864761 0.0777233 4.1176e-20)
(-0.0988084 0.0977157 1.55393e-20)
(-0.110107 0.118326 2.63406e-20)
(-0.120099 0.140185 4.58408e-20)
(-0.128581 0.163899 -7.64738e-20)
(-0.135146 0.189957 -4.80808e-20)
(-0.138681 0.218787 1.62806e-19)
(0.00125493 -0.0125533 -3.92429e-20)
(-0.00107288 -0.0220736 -3.9882e-20)
(-0.00863998 -0.020192 1.80145e-19)
(-0.0189871 -0.00997825 9.46282e-20)
(-0.0309714 0.00562377 2.75533e-21)
(-0.0437166 0.0241831 3.20505e-20)
(-0.0565774 0.0439301 8.54818e-20)
(-0.0691028 0.0638219 -5.49094e-20)
(-0.0809473 0.0834977 3.98467e-20)
(-0.09181 0.10313 5.09657e-20)
(-0.101395 0.12322 -1.60922e-19)
(-0.109392 0.144399 -2.90748e-20)
(-0.115571 0.167287 -1.31277e-19)
(-0.119518 0.192403 8.37512e-20)
(-0.119718 0.220176 -9.92452e-20)
(0.00136933 -0.0111617 5.05721e-20)
(-0.000775675 -0.0188726 -3.8957e-20)
(-0.00802295 -0.01588 -1.3752e-19)
(-0.0179565 -0.00504082 -1.52268e-19)
(-0.0293951 0.0108674 -1.82038e-19)
(-0.0414268 0.0295331 4.67994e-20)
(-0.0533784 0.0492534 5.96047e-20)
(-0.0647771 0.069005 1.2138e-19)
(-0.075262 0.0884148 -5.82278e-20)
(-0.0845182 0.107631 -5.06035e-20)
(-0.0922309 0.127134 9.48789e-20)
(-0.0980595 0.147551 -9.48622e-20)
(-0.101745 0.169513 9.46759e-20)
(-0.10292 0.193578 -1.3962e-19)
(-0.0995795 0.220198 8.90757e-20)
(0.0014355 -0.00987686 -8.47479e-21)
(-0.000591493 -0.0159383 4.02041e-20)
(-0.00756154 -0.011966 2.02024e-19)
(-0.0171029 -0.00061655 1.92069e-19)
(-0.0279975 0.015495 8.02481e-20)
(-0.0392978 0.0341752 -2.45281e-20)
(-0.0503009 0.053788 -9.80992e-20)
(-0.0605115 0.073329 4.4176e-20)
(-0.0695526 0.0924098 2.19876e-20)
(-0.077096 0.111148 -6.27079e-20)
(-0.0828126 0.129996 -1.94296e-19)
(-0.086336 0.149572 -5.80789e-20)
(-0.0873811 0.170512 1.61514e-19)
(-0.0856834 0.193424 2.6185e-20)
(-0.0786837 0.218874 -1.82451e-19)
(0.00145806 -0.00869581 -7.60643e-20)
(-0.000515224 -0.0132655 -2.0802e-19)
(-0.00725962 -0.00844676 -2.31094e-19)
(-0.0164437 0.00329252 -1.41728e-19)
(-0.0268127 0.019496 9.95741e-20)
(-0.0373831 0.038088 1.67465e-20)
(-0.0474212 0.0575006 3.65102e-20)
(-0.0564076 0.0767489 -3.46594e-20)
(-0.0639489 0.0954278 3.2439e-19)
(-0.069705 0.113619 1.06e-19)
(-0.0733359 0.131743 1.7669e-19)
(-0.0744567 0.150398 2.39106e-19)
(-0.0727531 0.170225 -1.68493e-19)
(-0.0681021 0.191876 2.61562e-19)
(-0.0574633 0.216331 3.7594e-20)
(0.00144041 -0.00761171 7.60097e-20)
(-0.000543711 -0.0108408 1.19781e-19)
(-0.00712228 -0.00530849 1.00972e-19)
(-0.0159958 0.00669633 -1.1706e-19)
(-0.0258725 0.0228729 9.47557e-20)
(-0.0357324 0.0412635 1.55662e-20)
(-0.0448102 0.0603709 -2.68605e-19)
(-0.0525611 0.0792322 2.36854e-19)
(-0.0585748 0.0974256 -1.92733e-19)
(-0.0625006 0.114995 -5.43398e-20)
(-0.0639907 0.132321 -2.63424e-21)
(-0.0626508 0.149978 1.3654e-19)
(-0.0581382 0.168611 1.75031e-19)
(-0.0503901 0.188889 -1.51527e-19)
(-0.0362854 0.212342 3.42334e-20)
(0.00138442 -0.00661437 -1.34543e-19)
(-0.000676169 -0.00864328 4.09439e-20)
(-0.00715588 -0.00252763 -9.10639e-20)
(-0.0157754 0.0096161 -6.62276e-21)
(-0.0252059 0.0256405 1.11533e-19)
(-0.0343903 0.0437073 -1.38853e-19)
(-0.0425312 0.0623931 1.84928e-19)
(-0.0490579 0.0807608 -2.2353e-19)
(-0.0535429 0.0983738 -2.79503e-19)
(-0.0556257 0.115237 8.11343e-20)
(-0.0549529 0.131686 1.63783e-19)
(-0.0511263 0.148267 -1.96645e-19)
(-0.0438012 0.165626 1.57928e-19)
(-0.0329241 0.184456 -2.73144e-19)
(-0.0153585 0.206681 1.90988e-19)
(0.00129026 -0.00569081 3.53664e-19)
(-0.000914396 -0.00664629 -2.29e-19)
(-0.00736795 -7.23601e-05 1.06868e-19)
(-0.0157977 0.0120833 1.55069e-19)
(-0.0248373 0.027826 -1.80883e-19)
(-0.0333932 0.0454387 2.63861e-19)
(-0.0406361 0.0635766 -3.65434e-20)
(-0.0459694 0.081333 -3.23815e-19)
(-0.0489482 0.09826 9.53331e-20)
(-0.0492031 0.114324 4.50613e-20)
(-0.0463774 0.129812 -2.25965e-19)
(-0.0400713 0.145235 1.83844e-19)
(-0.0299437 0.161236 -5.8478e-19)
(-0.0159878 0.178575 4.69193e-19)
(0.00499449 0.199465 -1.62098e-19)
(0.00115628 -0.00482608 -2.49789e-19)
(-0.00126274 -0.00481846 4.02708e-20)
(-0.00776681 0.00209584 -2.01001e-19)
(-0.0160754 0.0141383 -1.73054e-19)
(-0.024785 0.0294675 -1.81723e-19)
(-0.0327672 0.0464908 -2.93176e-19)
(-0.0391619 0.0639468 3.59974e-19)
(-0.0433473 0.0809648 4.32944e-19)
(-0.0448616 0.0970905 3.13956e-20)
(-0.0433266 0.112253 -2.06526e-19)
(-0.0383842 0.126692 1.52595e-20)
(-0.0296356 0.140874 1.65968e-19)
(-0.0167379 0.155434 -6.80738e-20)
(0.000238255 0.171204 -2.21837e-20)
(0.0245485 0.190738 2.39438e-19)
(0.000979104 -0.00400397 1.53212e-19)
(-0.00172781 -0.00312556 1.96394e-19)
(-0.00836081 0.00402036 6.10581e-20)
(-0.0166176 0.0158287 2.32057e-19)
(-0.0250593 0.0306133 1.00227e-19)
(-0.0325252 0.0469097 1.91134e-19)
(-0.0381265 0.0635453 -2.40393e-20)
(-0.0412179 0.0796919 -1.92317e-19)
(-0.0413212 0.0948941 9.01261e-20)
(-0.0380502 0.109049 3.12538e-19)
(-0.0310451 0.122343 1.08439e-19)
(-0.0199095 0.135199 -1.35308e-19)
(-0.00429213 0.148236 2.47217e-19)
(0.0156476 0.162346 -1.60307e-19)
(0.0432167 0.180496 1.69916e-20)
(0.000753814 -0.003208 -2.70836e-20)
(-0.00231785 -0.00153222 -7.5253e-20)
(-0.00915732 0.00574742 1.84223e-19)
(-0.0174286 0.0172073 1.11212e-19)
(-0.0256604 0.0313201 2.26077e-19)
(-0.0326636 0.0467538 -1.23122e-19)
(-0.0375241 0.0624302 -2.68247e-19)
(-0.0395754 0.0775701 -1.21636e-19)
(-0.0383239 0.0917241 -1.67365e-19)
(-0.0333751 0.10476 -3.71175e-19)
(-0.0243674 0.116815 -2.0116e-19)
(-0.0109041 0.12826 -5.42453e-20)
(0.0073833 0.139692 -2.32362e-19)
(0.030243 0.152049 -2.20121e-21)
(0.0610751 0.168755 1.16821e-19)
(0.000474296 -0.00242224 -1.08353e-19)
(-0.0030419 -3.76954e-06 -6.62591e-20)
(-0.0101614 0.00732389 8.1919e-21)
(-0.0185056 0.0183301 -4.73494e-19)
(-0.0265756 0.0316511 -4.43679e-19)
(-0.033159 0.0460922 -1.71648e-19)
(-0.0373207 0.0606751 3.27239e-19)
(-0.0383754 0.0746765 -1.54025e-19)
(-0.0358153 0.0876603 1.48778e-19)
(-0.0292367 0.0994695 1.96292e-19)
(-0.018274 0.110194 6.8708e-20)
(-0.00252569 0.120149 -1.21526e-19)
(0.0184092 0.129901 1.36144e-19)
(0.0441825 0.14041 1.07861e-19)
(0.0784123 0.155591 -1.52974e-19)
(0.000133747 -0.00163227 -2.69756e-20)
(-0.0039086 0.00149185 8.8158e-20)
(-0.0113742 0.00879508 -2.55682e-19)
(-0.0198372 0.019254 5.86669e-19)
(-0.0277773 0.0316742 4.15546e-19)
(-0.0339652 0.0450031 6.91595e-20)
(-0.0374495 0.0583681 -2.02794e-19)
(-0.0375284 0.0711087 8.06169e-20)
(-0.0336806 0.0828089 1.00848e-19)
(-0.025491 0.0932943 -2.41172e-19)
(-0.0125851 0.10261 2.82124e-19)
(0.00545112 0.111011 1.09022e-19)
(0.0290725 0.119025 -1.73546e-19)
(0.0578234 0.127592 1.16303e-19)
(0.0957833 0.141159 4.47364e-20)
(-0.000274672 -0.000826103 4.42696e-20)
(-0.0049249 0.00298235 2.21884e-19)
(-0.0127912 0.0102026 -1.05468e-20)
(-0.0214009 0.0200342 -3.36888e-19)
(-0.0292204 0.0314589 -2.40887e-19)
(-0.0350101 0.0435711 2.47442e-19)
(-0.0378067 0.0556094 3.41262e-19)
(-0.0368945 0.0669827 -4.92351e-20)
(-0.0317365 0.0773027 -1.4328e-19)
(-0.0219025 0.0863859 3.60921e-19)
(-0.00700107 0.0942375 -2.85442e-19)
(0.0134062 0.101048 1.44021e-19)
(0.0398564 0.107297 1.84957e-19)
(0.0717589 0.113846 -5.51517e-19)
(0.114043 0.12573 6.92961e-20)
(-0.000757175 5.17894e-06 1.22064e-19)
(-0.00609455 0.00448946 -9.89488e-20)
(-0.0144008 0.0115821 -1.08146e-21)
(-0.0231619 0.0207222 7.42971e-20)
(-0.0308405 0.0310742 9.56545e-20)
(-0.0361936 0.0418848 -2.72671e-19)
(-0.0382496 0.0525085 -1.30539e-19)
(-0.0362791 0.0624304 -2.57857e-19)
(-0.0297261 0.0712982 -2.4318e-19)
(-0.0181368 0.0789282 2.08897e-19)
(-0.00109171 0.0852932 -2.27714e-19)
(0.0218879 0.0905206 -2.79013e-20)
(0.0514567 0.0950312 6.42126e-20)
(0.0868348 0.0995184 -2.24077e-20)
(0.134347 0.109711 2.13788e-19)
(-0.00131851 0.00086647 -3.80696e-20)
(-0.00741669 0.00602742 -2.57842e-19)
(-0.0161822 0.0129615 -2.18065e-19)
(-0.0250714 0.021363 -4.52044e-20)
(-0.0325528 0.0305857 4.13684e-20)
(-0.0373865 0.0400329 -7.20485e-21)
(-0.0385951 0.0491801 -4.84072e-20)
(-0.0354329 0.0575948 -3.53187e-20)
(-0.0273179 0.0649696 1.31252e-19)
(-0.0137605 0.0711317 -9.28528e-20)
(0.00570265 0.0760312 2.64913e-19)
(0.0316096 0.0797372 -2.78139e-19)
(0.0647714 0.0826098 -1.98325e-19)
(0.104132 0.0850446 1.38437e-19)
(0.158085 0.0936644 -1.62935e-19)
(-0.00196105 0.0017582 -9.73429e-20)
(-0.0088843 0.00760203 3.34451e-20)
(-0.0181047 0.0143595 1.84922e-19)
(-0.0270656 0.0219932 -9.44763e-20)
(-0.0342518 0.0300523 1.5124e-19)
(-0.0384316 0.0381008 -4.8546e-20)
(-0.0386215 0.0457393 -2.49233e-19)
(-0.0340545 0.0526241 3.22338e-19)
(-0.0241114 0.0585024 1.40292e-19)
(-0.00825032 0.0632239 -3.81724e-19)
(0.0140557 0.0667298 3.77065e-20)
(0.0434231 0.0690411 -6.69034e-21)
(0.0808557 0.0704662 3.99493e-19)
(0.1249 0.0709304 7.98592e-20)
(0.186757 0.078285 2.18381e-19)
(-0.00268418 0.00267622 5.002e-21)
(-0.0104832 0.0092099 2.19287e-19)
(-0.0201266 0.0157841 -1.04045e-19)
(-0.0290662 0.0226389 1.43812e-19)
(-0.0358125 0.0295235 2.6784e-19)
(-0.0391455 0.0361662 3.39071e-19)
(-0.0380732 0.0422962 1.00477e-19)
(-0.0317982 0.047665 -2.34778e-20)
(-0.0196493 0.0520833 3.90452e-19)
(-0.00101317 0.0554371 4.29239e-19)
(0.024722 0.0576746 3.7355e-20)
(0.0582672 0.0587852 3.90615e-19)
(0.100839 0.0590503 -2.70034e-21)
(0.150452 0.0577081 -3.19412e-19)
(0.22177 0.064354 -2.12612e-19)
(-0.00348367 0.00361165 1.1719e-19)
(-0.0121912 0.0108383 2.37006e-19)
(-0.0221952 0.0172319 4.01401e-20)
(-0.0309808 0.0233138 2.73338e-19)
(-0.0370925 0.029037 -3.26734e-19)
(-0.0393237 0.0342955 -4.34015e-20)
(-0.0366681 0.0389505 -6.76032e-20)
(-0.0282861 0.0428541 4.75651e-19)
(-0.0134378 0.0458902 -6.40222e-19)
(0.00858215 0.0479943 -4.2421e-19)
(0.0384884 0.0491395 1.56888e-19)
(0.0770931 0.0493051 -1.92327e-19)
(0.12581 0.0487863 -5.25955e-20)
(0.182016 0.0458862 1.5033e-19)
(0.26419 0.0526554 5.2138e-19)
(-0.00435118 0.00455121 1.09961e-19)
(-0.0139777 0.0124654 -4.31392e-19)
(-0.024247 0.0186879 9.40289e-20)
(-0.0327046 0.0240189 -4.20195e-19)
(-0.037936 0.0286159 2.08712e-19)
(-0.0387464 0.0325397 -1.38684e-19)
(-0.0341076 0.0357856 -1.49191e-19)
(-0.0231249 0.0383114 -3.54114e-19)
(-0.00497182 0.0400819 1.23453e-19)
(0.0211657 0.0410955 1.73059e-19)
(0.0561137 0.0413676 -9.94566e-21)
(0.100778 0.0408926 1.57496e-19)
(0.156691 0.04003 -8.13133e-20)
(0.220592 0.0359041 -2.67684e-20)
(0.314502 0.0438732 -3.49357e-20)
(-0.00527421 0.00547785 -4.81007e-19)
(-0.0158038 0.0140613 2.00004e-20)
(-0.0262092 0.020126 -3.87287e-20)
(-0.0341234 0.0247414 6.95039e-20)
(-0.0381777 0.0282677 -3.11853e-19)
(-0.0371863 0.030932 3.74392e-19)
(-0.0300897 0.0328645 -1.04537e-20)
(-0.0159246 0.0341327 -4.46009e-19)
(0.00623604 0.0347892 -4.03037e-19)
(0.0373236 0.0349064 -3.36402e-19)
(0.0782681 0.0345562 -1.49644e-19)
(0.130042 0.0337766 -9.38569e-20)
(0.19413 0.0330326 -3.03559e-19)
(0.266834 0.0281083 -2.01595e-19)
(0.37243 0.0384834 2.33374e-19)
(-0.00623614 0.00637163 2.74314e-19)
(-0.0176234 0.0155895 2.18374e-19)
(-0.0280011 0.0215101 2.57671e-19)
(-0.0351165 0.0254551 -7.60591e-20)
(-0.0376489 0.0279834 1.36621e-19)
(-0.0344172 0.0294858 -1.87712e-19)
(-0.024321 0.0302268 9.59001e-20)
(-0.00631757 0.0303858 5.76676e-19)
(0.0206272 0.0301089 2.14543e-19)
(0.0575581 0.0295505 4.4831e-19)
(0.105478 0.028849 1.65422e-19)
(0.165378 0.0281166 -2.89744e-20)
(0.238419 0.0279217 2.69038e-19)
(0.320971 0.0227606 -2.80854e-19)
(0.436868 0.0366787 -3.08041e-19)
(-0.00721672 0.00721089 -2.39572e-19)
(-0.0193835 0.0170086 -3.87847e-19)
(-0.0295361 0.0227958 8.10471e-20)
(-0.0355597 0.0261225 -1.52464e-19)
(-0.0361819 0.0277386 1.81043e-19)
(-0.0302211 0.0281942 -3.736e-19)
(-0.0165291 0.0278875 1.07134e-19)
(0.00602315 0.0271087 -1.63705e-19)
(0.0385729 0.0261016 -1.53899e-19)
(0.0822559 0.0251068 -2.02447e-19)
(0.138092 0.0243343 -3.36466e-19)
(0.207014 0.0240054 3.27743e-20)
(0.28948 0.0247025 2.79422e-19)
(0.38275 0.0201001 2.20658e-19)
(0.505857 0.0384301 1.48211e-19)
(-0.00819276 0.00797351 1.75685e-19)
(-0.0210264 0.0182749 -2.71481e-20)
(-0.0307242 0.0239331 1.28709e-19)
(-0.035329 0.0266959 4.1083e-19)
(-0.0336155 0.027495 -4.42e-19)
(-0.0243961 0.0270333 3.90495e-19)
(-0.00647164 0.0258386 -3.63521e-19)
(0.0213713 0.0243113 5.84809e-20)
(0.0603566 0.0227935 1.52651e-19)
(0.111668 0.0216128 1.46156e-20)
(0.176258 0.0210494 2.26055e-19)
(0.254902 0.0214737 2.30892e-19)
(0.346926 0.0232726 -1.55616e-19)
(0.451421 0.0204498 -3.627e-19)
(0.576635 0.0436613 5.08306e-19)
(-0.00913902 0.00863828 -1.07882e-19)
(-0.022491 0.0193445 2.7816e-19)
(-0.031474 0.0248689 -1.70461e-19)
(-0.0343032 0.0271218 -1.15314e-19)
(-0.0297977 0.0272041 2.3437e-19)
(-0.0167611 0.0259641 -4.60134e-20)
(0.00605646 0.0240531 1.43082e-19)
(0.0399394 0.0219803 8.29016e-19)
(0.0861659 0.0201826 1.05756e-19)
(0.145904 0.0190715 5.31381e-20)
(0.219927 0.0189881 -9.61022e-20)
(0.308732 0.0204826 -1.3779e-19)
(0.410197 0.0234465 -1.10982e-19)
(0.52592 0.0241826 1.51828e-19)
(0.646312 0.0516615 -7.75742e-19)
(-0.0100292 0.00918611 3.39593e-19)
(-0.0237149 0.0201763 2.92602e-19)
(-0.0316946 0.0255507 9.613e-20)
(-0.0323659 0.027344 -2.24199e-20)
(-0.0245885 0.026812 1.42733e-19)
(-0.00715726 0.0249387 -1.08345e-19)
(0.0212208 0.0224928 -6.51761e-20)
(0.0618769 0.0200876 -1.01232e-19)
(0.116092 0.0182494 -4.54843e-19)
(0.184928 0.0174648 1.07823e-19)
(0.268852 0.0181146 4.13875e-20)
(0.367917 0.0209232 4.43574e-20)
(0.478559 0.0250219 3.28716e-19)
(0.604984 0.0311819 -2.04317e-20)
(0.714573 0.0585622 1.34519e-19)
(-0.0108371 0.00960121 -5.37294e-19)
(-0.0246354 0.0207341 -2.08583e-19)
(-0.0312971 0.0259301 -5.3936e-20)
(-0.0294063 0.0273082 -4.52839e-21)
(-0.0178604 0.0262643 -2.47355e-19)
(0.00455167 0.0239072 1.1257e-19)
(0.0391496 0.0211155 1.13806e-20)
(0.0872735 0.0186006 3.22813e-19)
(0.150135 0.0169697 -1.19187e-19)
(0.228579 0.0167701 -1.07018e-19)
(0.322604 0.0183895 -1.32067e-20)
(0.431594 0.0226632 -8.82183e-21)
(0.550778 0.0278922 -3.06819e-19)
(0.685917 0.0398427 7.65892e-20)
(0.787015 0.0579348 -2.0411e-19)
(-0.0115371 0.00987175 3.92336e-19)
(-0.0251911 0.0209888 1.19683e-19)
(-0.0301955 0.0259659 -2.43347e-19)
(-0.0253198 0.0269673 1.13215e-19)
(-0.00949705 0.0255127 -4.4034e-19)
(0.0184816 0.0228251 8.67704e-20)
(0.0599372 0.019885 1.49643e-19)
(0.116166 0.0174934 -3.34684e-19)
(0.18822 0.016328 4.44969e-19)
(0.276584 0.0169765 2.5387e-19)
(0.380611 0.0197957 1.66228e-19)
(0.498746 0.0256302 4.65925e-20)
(0.625189 0.0320676 -5.08421e-21)
(0.763655 0.0467228 -8.04599e-20)
(0.869154 0.0532129 3.55899e-19)
(-0.0121054 0.00999036 -4.42087e-19)
(-0.0253226 0.0209198 -3.94664e-19)
(-0.028307 0.0256278 3.64646e-20)
(-0.0200069 0.0262848 1.14526e-19)
(0.000608228 0.0245209 4.11551e-19)
(0.0347317 0.0216616 -1.35664e-19)
(0.0836503 0.0187798 -5.21393e-19)
(0.148548 0.0167575 -4.0064e-19)
(0.230203 0.0163277 -2.48175e-19)
(0.328577 0.0180933 -4.55045e-19)
(0.442189 0.02234 1.76898e-19)
(0.56829 0.0298009 9.83542e-20)
(0.700144 0.03761 8.69183e-20)
(0.838433 0.0533042 1.98192e-19)
(0.945665 0.0564746 1.02899e-19)
(-0.0125202 0.00995429 2.95209e-19)
(-0.0249738 0.020517 2.66091e-19)
(-0.0255509 0.0248977 1.08781e-19)
(-0.0133722 0.0252397 -3.17212e-19)
(0.0125553 0.0232702 -2.0562e-19)
(0.0533887 0.0204054 1.49381e-19)
(0.110333 0.0178013 2.00972e-19)
(0.184374 0.0164087 3.90338e-19)
(0.275882 0.016997 1.1477e-19)
(0.384114 0.0201509 6.62234e-20)
(0.506563 0.026041 -3.90847e-19)
(0.639114 0.0351753 -2.8394e-19)
(0.774136 0.0444776 4.35456e-20)
(0.909603 0.0605394 -9.00914e-20)
(1.01457 0.0631276 2.21922e-19)
(-0.0127614 0.00976524 8.78778e-20)
(-0.0240916 0.0197805 -1.94416e-19)
(-0.0218495 0.023772 -1.91355e-19)
(-0.00532257 0.0238295 3.74662e-20)
(0.0264394 0.0217636 1.69954e-19)
(0.0745289 0.0190708 3.02832e-19)
(0.140008 0.0169788 -1.76619e-19)
(0.223562 0.016492 1.77526e-19)
(0.324996 0.0183902 7.26564e-20)
(0.442673 0.0231963 -3.73178e-19)
(0.572883 0.0309144 7.33713e-20)
(0.710079 0.0417317 3.8307e-20)
(0.845846 0.0525052 -1.12325e-19)
(0.976153 0.0685481 -1.90381e-19)
(1.07628 0.0713448 -4.14263e-19)
(-0.0128106 0.00942933 5.49394e-20)
(-0.022624 0.0187199 -7.47768e-20)
(-0.0171269 0.0222632 1.89383e-19)
(0.00423314 0.0220721 -1.68588e-19)
(0.0423519 0.0200291 3.05859e-20)
(0.0982196 0.0177006 -7.85019e-20)
(0.17268 0.0163724 -1.00628e-19)
(0.26599 0.0170817 5.92362e-20)
(0.377223 0.020583 2.19354e-20)
(0.503652 0.0272829 3.45724e-19)
(0.640236 0.0369596 1.46096e-19)
(0.78005 0.0494095 1.61539e-19)
(0.914118 0.061489 4.27434e-19)
(1.03726 0.0772369 -1.26365e-19)
(1.1304 0.0804194 2.29829e-19)
(-0.0126518 0.0089556 -1.65887e-19)
(-0.020521 0.0173543 3.57603e-19)
(-0.0113082 0.0203993 1.01179e-19)
(0.015385 0.0200064 4.49201e-19)
(0.0603805 0.0181207 1.05389e-19)
(0.124517 0.0163667 -3.78094e-19)
(0.208327 0.0160718 1.62807e-19)
(0.311494 0.018277 3.63e-19)
(0.432172 0.023665 -3.27481e-19)
(0.566375 0.0324591 -8.19799e-20)
(0.707671 0.0441499 -5.39443e-21)
(0.847941 0.0581059 -1.80921e-19)
(0.977994 0.0712166 -2.4539e-19)
(1.09235 0.086432 2.33506e-19)
(1.177 0.0898666 8.66993e-20)
(-0.012269 0.00835545 -5.67738e-20)
(-0.0177342 0.0157117 -1.99518e-19)
(-0.00431886 0.0182234 2.83178e-19)
(0.0282213 0.0176921 -1.98531e-19)
(0.080607 0.0161174 4.97707e-20)
(0.153461 0.0151688 -4.55984e-21)
(0.246892 0.0161925 2.30273e-19)
(0.359848 0.020195 -2.88253e-19)
(0.489376 0.0277271 7.67966e-19)
(0.630097 0.0387553 1.59219e-19)
(0.774227 0.0524255 -1.45929e-19)
(0.912765 0.0676804 1.22609e-20)
(1.03674 0.0814759 -3.99077e-20)
(1.14113 0.0959332 5.02781e-20)
(1.21636 0.0993599 -3.27357e-19)
(-0.0116466 0.00764231 3.57156e-20)
(-0.0142157 0.0138275 -2.35117e-19)
(0.00391442 0.0157917 -2.1984e-19)
(0.0428269 0.015208 -1.3494e-19)
(0.103103 0.0141211 -2.33916e-19)
(0.18507 0.0142296 -1.16912e-19)
(0.288279 0.0168686 -3.34155e-19)
(0.410764 0.0229592 1.15941e-19)
(0.548292 0.0328494 -5.43486e-19)
(0.694023 0.0461729 -1.05316e-19)
(0.838977 0.0616923 -3.91553e-19)
(0.97369 0.0779657 2.79178e-19)
(1.08989 0.0920652 2.21212e-19)
(1.18356 0.105551 7.68937e-22)
(1.24897 0.108686 5.2253e-19)
(-0.0107688 0.00683092 2.85652e-20)
(-0.00991756 0.0117432 2.36776e-19)
(0.0134632 0.0131726 3.48601e-19)
(0.0592809 0.012649 4.52433e-20)
(0.127925 0.0122527 -1.70455e-19)
(0.21933 0.0136895 1.49748e-19)
(0.332335 0.0182437 1.5757e-20)
(0.463879 0.0266885 -1.59698e-19)
(0.608305 0.0390891 -1.33695e-19)
(0.757335 0.0546785 -1.31316e-19)
(0.90107 0.0718257 3.29377e-19)
(1.03007 0.0887826 2.15457e-19)
(1.13718 0.102804 -2.53039e-19)
(1.21982 0.115128 1.88153e-19)
(1.27547 0.117715 1.94401e-20)
(-0.00961878 0.00593688 7.52752e-20)
(-0.00479206 0.00950506 -5.19307e-19)
(0.0243961 0.0104438 -3.64001e-19)
(0.0776522 0.0101238 -2.10906e-20)
(0.155108 0.0106471 7.885e-20)
(0.256185 0.0136987 2.00304e-19)
(0.378847 0.0204614 -6.93965e-20)
(0.518756 0.0314857 1.31476e-19)
(0.668748 0.0464716 3.22012e-19)
(0.819233 0.0642027 1.14441e-19)
(0.959772 0.0826798 1.20794e-19)
(1.08145 0.0999541 -5.12479e-20)
(1.1786 0.113539 -1.34506e-19)
(1.25027 0.124544 -4.36383e-19)
(1.29656 0.126384 -2.22225e-20)
(-0.00817859 0.00497636 -2.78139e-19)
(0.00120798 0.00716355 5.6817e-19)
(0.0367762 0.00769096 -1.07253e-19)
(0.097996 0.00775055 -3.39178e-20)
(0.184658 0.00944791 -1.1604e-19)
(0.295534 0.0144098 -2.19158e-19)
(0.427533 0.0236551 1.52019e-19)
(0.57489 0.037428 -2.75824e-19)
(0.728922 0.0549867 -1.09307e-19)
(0.878967 0.0746452 -7.82435e-20)
(1.0145 0.0940978 -2.45312e-19)
(1.12759 0.111318 5.39234e-20)
(1.21432 0.124151 1.70509e-19)
(1.27538 0.133719 2.36555e-20)
(1.31296 0.134674 -3.46076e-19)
(-0.00642932 0.00396608 7.37124e-20)
(0.00812841 0.00477225 3.80435e-20)
(0.0506593 0.00500529 7.00272e-19)
(0.120349 0.00565386 3.08812e-19)
(0.216546 0.00880183 1.33484e-19)
(0.337218 0.0159703 2.25017e-20)
(0.478045 0.0279398 -4.01555e-19)
(0.631722 0.0445604 4.51538e-19)
(0.788129 0.0645882 2.38652e-20)
(0.935876 0.0858825 1.01453e-19)
(1.06482 0.105924 -9.25515e-20)
(1.16843 0.122733 -2.81265e-19)
(1.24464 0.134553 -4.13059e-19)
(1.29571 0.14261 5.39463e-19)
(1.32538 0.142598 7.35819e-20)
(-0.00435121 0.00292344 -4.09018e-21)
(0.0160126 0.0023876 -2.74534e-19)
(0.0660911 0.00248207 -2.62307e-19)
(0.144726 0.00396129 -2.18603e-19)
(0.250703 0.00885362 1.48868e-19)
(0.381024 0.0185156 -9.20296e-20)
(0.529973 0.0334051 2.93298e-19)
(0.688658 0.0528933 -2.28525e-19)
(0.845706 0.0751991 7.98703e-20)
(0.989413 0.0977784 -1.69194e-19)
(1.1105 0.118013 3.65189e-20)
(1.20408 0.134088 -1.19093e-19)
(1.26996 0.144691 1.12623e-19)
(1.3118 0.151203 -3.10182e-19)
(1.33446 0.150192 -1.10654e-19)
(-0.00192412 0.00186672 -3.94523e-19)
(0.0248998 6.85331e-05 3.50718e-19)
(0.0831041 0.000219217 -4.23883e-20)
(0.171113 0.00280044 1.56963e-19)
(0.287018 0.00974139 -2.47029e-19)
(0.42668 0.0221634 2.18345e-19)
(0.582857 0.0401113 -2.50117e-19)
(0.745095 0.0624034 -1.47524e-19)
(0.90105 0.0867183 4.43098e-20)
(1.03916 0.110194 -1.32253e-19)
(1.15141 0.130237 -1.89502e-19)
(1.23475 0.145299 5.24322e-19)
(1.29076 0.154536 -6.4187e-20)
(1.32424 0.159504 3.32929e-19)
(1.34077 0.157503 -7.60289e-20)
(0.000871775 0.000815336 7.36783e-20)
(0.0348239 -0.00212355 -5.70784e-20)
(0.101715 -0.00168392 -3.48125e-19)
(0.199468 0.00229639 -4.9422e-20)
(0.325332 0.0115927 4.27992e-19)
(0.473863 0.0270098 -2.99232e-19)
(0.636202 0.0480875 4.3961e-19)
(0.800446 0.0730372 -2.2409e-19)
(0.953645 0.0990296 2.7386e-19)
(1.08484 0.122995 2.0852e-19)
(1.1876 0.142489 -1.35197e-19)
(1.26077 0.156307 -2.02148e-19)
(1.30753 0.164083 2.25834e-19)
(1.33355 0.167537 -2.45341e-19)
(1.34482 0.164583 -1.29014e-19)
(0.00405528 -0.000209875 2.73437e-19)
(0.0458113 -0.0041249 -4.38397e-20)
(0.121924 -0.00312753 1.89963e-19)
(0.229717 0.00256946 -2.3067e-19)
(0.365445 0.0145214 -5.27068e-19)
(0.522208 0.0331264 7.70081e-20)
(0.689496 0.0573324 -1.21201e-19)
(0.854166 0.0847169 4.04941e-19)
(1.00307 0.11201 -1.32262e-19)
(1.12629 0.136061 5.24565e-21)
(1.2192 0.154685 1.78824e-19)
(1.28251 0.167081 1.46515e-19)
(1.32075 0.173344 -3.4486e-19)
(1.34022 0.175337 2.01788e-19)
(1.34704 0.171484 2.32276e-19)
(0.00764337 -0.00118647 -1.18612e-19)
(0.0578793 -0.00586948 -5.85576e-20)
(0.143709 -0.00401231 -1.79328e-19)
(0.261754 0.00373322 1.18733e-19)
(0.407115 0.0186252 2.42084e-19)
(0.571313 0.0405593 -2.49334e-20)
(0.742231 0.0678171 2.25436e-19)
(0.905766 0.0973473 -2.30326e-19)
(1.04903 0.125537 2.45211e-19)
(1.16349 0.149286 -2.58832e-19)
(1.24645 0.166764 2.83119e-19)
(1.30036 0.177607 -2.64463e-19)
(1.33088 0.182344 -8.97644e-20)
(1.34468 0.182943 9.44343e-20)
(1.34779 0.178255 3.07199e-20)
(0.0116504 -0.00209027 9.09126e-20)
(0.0710345 -0.00728924 -1.04577e-20)
(0.167029 -0.00424044 -2.35452e-19)
(0.295439 0.00589276 1.77996e-19)
(0.450062 0.0239835 7.2595e-20)
(0.62076 0.0493288 6.99618e-20)
(0.793918 0.0794888 -7.27117e-20)
(0.954833 0.110823 -5.1287e-20)
(1.0913 0.139494 -4.27409e-19)
(1.19647 0.162583 2.60397e-19)
(1.26962 0.178686 -1.66321e-19)
(1.31475 0.187888 -3.44052e-20)
(1.33837 0.191114 5.43523e-19)
(1.3473 0.190394 -4.17513e-19)
(1.34733 0.184937 -2.86193e-19)
(0.0160872 -0.0028954 -1.59002e-20)
(0.0852717 -0.00831455 1.36492e-19)
(0.191818 -0.00371666 2.25017e-19)
(0.330602 0.009143 -2.92727e-20)
(0.493979 0.0306569 -1.6454e-19)
(0.67012 0.0594312 1.69477e-19)
(0.844106 0.0922761 -1.73347e-19)
(1.00103 0.125033 -9.69463e-20)
(1.12978 0.153775 2.83006e-19)
(1.22539 0.17588 1.97105e-19)
(1.28904 0.190425 3.35585e-20)
(1.32607 0.197938 1.39605e-19)
(1.3436 0.199689 -2.83342e-19)
(1.3484 0.197729 1.81615e-19)
(1.34592 0.19157 3.23219e-19)
(0.0209609 -0.0035744 -5.60264e-20)
(0.100572 -0.00887477 -3.76659e-19)
(0.217988 -0.00234951 -2.37388e-19)
(0.367042 0.0135671 -2.37739e-19)
(0.538534 0.0386858 -1.59762e-19)
(0.71897 0.0708409 8.23586e-20)
(0.892392 0.106094 3.02437e-19)
(1.04411 0.139868 -1.01158e-19)
(1.16444 0.168288 1.73344e-19)
(1.25044 0.189127 -2.84944e-20)
(1.30504 0.201975 4.44056e-20)
(1.3347 0.207781 -7.77782e-20)
(1.3469 0.208106 2.93777e-20)
(1.34824 0.204984 -4.2787e-20)
(1.34371 0.198181 -1.16811e-19)
(0.0262736 -0.00409845 8.99756e-20)
(0.116904 -0.0088992 3.99002e-19)
(0.24543 -5.27843e-05 -8.27022e-20)
(0.404535 0.0192351 1.91643e-19)
(0.583382 0.0480906 3.72715e-20)
(0.766905 0.0835127 2.83514e-20)
(0.938429 0.120847 -1.45554e-19)
(1.08389 0.155224 1.68623e-19)
(1.19534 0.182952 -2.49187e-19)
(1.27184 0.202284 -1.32267e-19)
(1.31795 0.213335 -4.46001e-20)
(1.34098 0.217441 -3.12402e-20)
(1.34858 0.2164 -1.14649e-19)
(1.34703 0.212189 -1.5592e-20)
(1.34086 0.204794 5.55592e-20)
(0.0320226 -0.00443776 -2.84642e-20)
(0.134219 -0.00831802 1.81799e-20)
(0.274011 0.00325301 2.277e-19)
(0.442833 0.0262025 2.19942e-19)
(0.628173 0.0588726 9.08696e-20)
(0.813547 0.0973855 -1.59275e-19)
(0.981931 0.136436 5.19181e-20)
(1.12029 0.171001 1.34631e-19)
(1.22258 0.1977 -2.00353e-20)
(1.28986 0.215326 2.51073e-20)
(1.32809 0.224515 5.12598e-20)
(1.34523 0.226949 1.43842e-20)
(1.34888 0.224603 -1.12773e-19)
(1.34495 0.219369 -4.26544e-21)
(1.33746 0.211426 1.23943e-19)
(0.0381998 -0.00456196 1.867e-20)
(0.152456 -0.00706357 -7.66696e-20)
(0.303578 0.00763907 -1.30305e-19)
(0.481675 0.0345095 -2.61101e-19)
(0.672559 0.0710145 -2.77263e-20)
(0.858554 0.112385 1.24815e-19)
(1.02267 0.152761 -6.40094e-20)
(1.15325 0.187111 -1.66439e-19)
(1.2463 0.212479 -1.53322e-19)
(1.30476 0.22824 7.12213e-20)
(1.33577 0.235531 -3.89277e-20)
(1.34771 0.236331 -1.81963e-19)
(1.34801 0.232743 1.74964e-19)
(1.34212 0.226545 1.74074e-19)
(1.33359 0.218088 -8.45781e-20)
(0.0447913 -0.00444062 8.22664e-21)
(0.171539 -0.00507156 -1.5165e-19)
(0.333962 0.0131668 6.60195e-20)
(0.520784 0.0441802 1.24584e-19)
(0.716205 0.0844818 2.54878e-20)
(0.901624 0.128428 -5.91002e-21)
(1.06049 0.169722 7.60212e-20)
(1.18281 0.203472 5.92707e-20)
(1.26669 0.227245 7.54701e-21)
(1.3168 0.241019 -5.08363e-20)
(1.34126 0.246398 6.96897e-21)
(1.34866 0.245614 6.93435e-20)
(1.34614 0.240841 -6.48066e-20)
(1.33866 0.233729 -4.82141e-20)
(1.3293 0.224784 -7.69748e-20)
(0.0517773 -0.00404378 1.05285e-19)
(0.191378 -0.00228242 1.42197e-20)
(0.364975 0.0198865 1.36956e-20)
(0.559882 0.0552221 -3.49159e-20)
(0.758791 0.0992249 -1.40168e-19)
(0.9425 0.145423 2.59989e-20)
(1.09528 0.187223 -2.62296e-20)
(1.20902 0.220015 6.82217e-20)
(1.28393 0.241964 1.61697e-19)
(1.32625 0.253661 -1.64948e-22)
(1.34482 0.257136 6.01906e-20)
(1.34827 0.254819 -9.16806e-21)
(1.3434 0.248916 2.51582e-20)
(1.33465 0.240932 -6.22277e-20)
(1.32463 0.231517 7.29672e-20)
(0.0591325 -0.00334251 -2.01765e-20)
(0.21187 0.00135743 8.94591e-21)