/*--------------------------------*- C++ -*----------------------------------*\
  =========                 |
  \\      /  F ield         | OpenFOAM: The Open Source CFD Toolbox
   \\    /   O peration     | Website:  https://openfoam.org
    \\  /    A nd           | Version:  7
     \\/     M anipulation  |
\*---------------------------------------------------------------------------*/
FoamFile
{
    version     2.0;
    format      ascii;
    class       volVectorField;
    location    "40";
    object      U;
}
// * * * * * * * * * * * * * * * * * * * * * * * * * * * * * * * * * * * * * //

dimensions      [0 1 -1 0 0 0 0];

internalField   nonuniform List<vector> 
36600
(
(-0.000222994 0.000288559 -6.30786e-22)
(-0.00151769 0.000755127 -3.29407e-21)
(-0.00420904 0.00112828 3.98456e-22)
(-0.00781047 0.00142031 5.90381e-22)
(-0.0121417 0.00164054 1.03717e-21)
(-0.0170332 0.00179824 -7.56138e-21)
(-0.0223252 0.00190256 1.28509e-21)
(-0.0278825 0.00196229 -5.0073e-21)
(-0.0335917 0.00198589 -1.0653e-20)
(-0.0393607 0.00198132 9.01008e-21)
(-0.0451186 0.00195606 2.65109e-21)
(-0.0508151 0.00191701 -3.14753e-21)
(-0.0564201 0.0018704 3.8255e-21)
(-0.0619219 0.00182172 5.18092e-21)
(-0.0673266 0.00177562 -3.23991e-21)
(-0.0726546 0.00173569 -4.3317e-21)
(-0.0779382 0.00170431 -1.02877e-20)
(-0.0832284 0.00168227 -7.89591e-22)
(-0.0885353 0.00166877 -1.7152e-21)
(-0.0938071 0.00166299 -3.36568e-21)
(-0.000241406 0.000740756 -3.08252e-21)
(-0.00156395 0.00194788 2.5035e-21)
(-0.00427391 0.00291986 -2.90984e-21)
(-0.00788661 0.00368761 -1.14282e-20)
(-0.0122226 0.00427333 5.24042e-21)
(-0.017113 0.00469931 3.15036e-20)
(-0.0223987 0.00498778 -1.9205e-20)
(-0.027945 0.00516041 3.22973e-21)
(-0.0336388 0.00523831 1.53425e-20)
(-0.0393883 0.00524186 -5.57676e-24)
(-0.0451229 0.00519061 8.91083e-21)
(-0.0507926 0.00510308 -1.16908e-20)
(-0.0563671 0.00499656 1.212e-20)
(-0.0618354 0.00488674 -1.03318e-20)
(-0.0672035 0.00478734 -3.9766e-21)
(-0.0724923 0.00470948 1.98236e-20)
(-0.077735 0.00466101 -6.15862e-21)
(-0.0829831 0.00464546 9.46809e-22)
(-0.0882475 0.00466166 -1.13486e-20)
(-0.0934742 0.00470901 -1.21932e-21)
(-0.000276962 0.00119028 -2.38687e-20)
(-0.00165345 0.00313387 3.01181e-21)
(-0.00439965 0.0047016 4.57361e-21)
(-0.00803445 0.00594271 2.88718e-20)
(-0.0123799 0.00689211 -2.29157e-20)
(-0.0172683 0.00758496 -3.53233e-20)
(-0.0225418 0.00805647 3.18322e-20)
(-0.0280665 0.00834106 -8.61266e-21)
(-0.03373 0.00847241 -4.28275e-21)
(-0.0394412 0.00848328 -2.14446e-20)
(-0.0451298 0.00840523 5.80219e-21)
(-0.0507461 0.0082684 2.06101e-20)
(-0.0562603 0.00810114 -4.1867e-21)
(-0.0616615 0.00792944 1.65711e-20)
(-0.0669566 0.00777622 -1.35426e-20)
(-0.0721671 0.00766028 -4.06844e-21)
(-0.0773273 0.00759516 3.15677e-20)
(-0.0824908 0.00758724 -1.94369e-21)
(-0.0876696 0.00763517 4.85272e-20)
(-0.0928049 0.00773876 -1.14776e-20)
(-0.000329462 0.00163545 3.9049e-20)
(-0.00178574 0.00430886 -1.69945e-20)
(-0.00458569 0.00646728 -1.17019e-20)
(-0.00825335 0.00817786 -2.69319e-20)
(-0.0126129 0.00948793 1.61173e-20)
(-0.0174986 0.0104453 -3.00491e-21)
(-0.022754 0.011098 -5.3216e-20)
(-0.0282466 0.0114929 -5.5752e-21)
(-0.0338652 0.0116763 -1.14477e-20)
(-0.0395192 0.0116931 -1.79146e-21)
(-0.0451391 0.0115868 -1.96062e-20)
(-0.0506756 0.0113992 2.19733e-20)
(-0.0560994 0.0111698 -3.21948e-20)
(-0.0614002 0.0109349 -9.7326e-22)
(-0.0665855 0.0107269 8.60803e-21)
(-0.0716782 0.0105725 -6.60972e-20)
(-0.0767143 0.0104913 -5.27501e-20)
(-0.0817505 0.0104928 2.83096e-20)
(-0.0868 0.0105758 -3.7603e-20)
(-0.0917975 0.0107408 9.37853e-22)
(-0.00039861 0.00207466 -5.2253e-21)
(-0.00196014 0.0054687 6.71346e-20)
(-0.00483116 0.00821084 3.11399e-20)
(-0.00854239 0.0103855 -1.33754e-21)
(-0.0129207 0.012052 8.19552e-21)
(-0.0178029 0.0132706 1.23772e-21)
(-0.0230345 0.0141017 2.7237e-20)
(-0.0284847 0.0146048 3.19064e-20)
(-0.0340436 0.0148381 1.34142e-20)
(-0.0396218 0.0148588 4.69691e-20)
(-0.0451504 0.0147223 -5.35204e-20)
(-0.0505808 0.0144819 -1.11749e-20)
(-0.0558842 0.0141882 2.32728e-20)
(-0.0610511 0.0138882 -4.0104e-20)
(-0.0660899 0.0136239 1.81108e-20)
(-0.0710251 0.0134305 4.1561e-20)
(-0.075895 0.0133339 9.89068e-21)
(-0.0807604 0.0133473 1.40124e-20)
(-0.0856364 0.0134698 -2.22165e-20)
(-0.0904491 0.0137034 2.43473e-21)
(-0.000484023 0.00250634 -2.55146e-20)
(-0.00217578 0.00660941 1.58238e-20)
(-0.00513495 0.00992641 -2.54982e-20)
(-0.00890036 0.0125582 2.33388e-20)
(-0.0133022 0.0145759 2.02769e-20)
(-0.0181802 0.0160514 9.16057e-21)
(-0.0233823 0.0170575 1.71052e-20)
(-0.0287799 0.0176657 -1.18826e-20)
(-0.0342647 0.0179464 -7.25891e-20)
(-0.0397485 0.0179684 -6.42563e-20)
(-0.0451634 0.0177991 -4.13035e-20)
(-0.0504615 0.0175031 1.54861e-20)
(-0.0556146 0.0171423 -8.75029e-21)
(-0.0606139 0.0167746 6.59939e-20)
(-0.0654692 0.0164519 -2.35068e-20)
(-0.0702067 0.0162184 1.89922e-20)
(-0.0748677 0.0161071 2.73525e-20)
(-0.0795181 0.0161353 -1.52198e-20)
(-0.0841757 0.0163032 1.31502e-19)
(-0.0887557 0.0166148 -4.91084e-20)
(-0.000585236 0.00292903 3.09497e-20)
(-0.00243158 0.0077272 -3.78938e-20)
(-0.00549568 0.0116083 -5.74559e-20)
(-0.00932576 0.0146889 -1.4636e-20)
(-0.0137559 0.0170511 6.53371e-21)
(-0.018629 0.0187785 9.97507e-21)
(-0.0237962 0.0199553 3.30373e-20)
(-0.0291312 0.0206651 7.23694e-21)
(-0.0345276 0.0209897 2.41936e-21)
(-0.0398986 0.02101 1.15385e-19)
(-0.0451775 0.0208044 8.58026e-20)
(-0.0503171 0.0204494 -5.08895e-20)
(-0.0552899 0.0200181 -7.4259e-21)
(-0.060088 0.0195792 -1.98307e-20)
(-0.0647224 0.0191954 1.93972e-20)
(-0.0692217 0.0189202 -1.01597e-19)
(-0.0736302 0.0187948 -2.10245e-20)
(-0.0780205 0.0188412 -3.12325e-20)
(-0.082414 0.0190615 -7.47904e-20)
(-0.0867123 0.019463 4.06027e-20)
(-0.000701711 0.00334136 5.16544e-21)
(-0.00272628 0.00881849 -1.84596e-20)
(-0.00591174 0.0132513 5.18469e-20)
(-0.00981682 0.0167709 -1.94078e-20)
(-0.0142799 0.0194699 -1.74869e-20)
(-0.0191476 0.0214428 2.75604e-20)
(-0.0242745 0.0227855 -4.62288e-20)
(-0.029537 0.0235925 -6.26079e-21)
(-0.0348308 0.0239572 8.58715e-20)
(-0.040071 0.0239718 -5.43698e-20)
(-0.0451918 0.0237262 -2.21427e-20)
(-0.0501469 0.023308 2.58813e-20)
(-0.0549095 0.0228018 -6.75773e-21)
(-0.0594725 0.0222875 -3.47096e-21)
(-0.0638484 0.0218389 2.83209e-20)
(-0.0680681 0.0215199 -7.45126e-20)
(-0.0721799 0.0213805 2.57517e-20)
(-0.0762637 0.0214489 -1.93642e-20)
(-0.0803458 0.0217297 -4.30575e-20)
(-0.0843124 0.0222353 1.54583e-20)
(-0.000832846 0.00374206 -1.44897e-20)
(-0.00305848 0.00987993 1.01526e-19)
(-0.00638129 0.0148502 -2.23277e-20)
(-0.0103715 0.0187977 -2.64758e-20)
(-0.0148721 0.0218246 6.32156e-20)
(-0.0197339 0.0240361 -6.51423e-20)
(-0.0248152 0.0255387 -3.17303e-20)
(-0.0299955 0.0264379 -5.46725e-20)
(-0.0351729 0.0268383 -5.92793e-20)
(-0.0402642 0.0268428 -3.87203e-20)
(-0.0452049 0.0265525 -5.1859e-20)
(-0.0499497 0.0260663 9.34441e-20)
(-0.0544722 0.0254799 -1.02542e-20)
(-0.0587662 0.0248852 -2.13704e-20)
(-0.0628455 0.0243672 -1.10644e-19)
(-0.0667437 0.0240012 6.14721e-20)
(-0.0705132 0.0238476 1.51211e-20)
(-0.0742429 0.0239417 3.76689e-20)
(-0.0779649 0.0242923 2.5305e-20)
(-0.0815476 0.0249189 -6.75385e-20)
(-0.000977982 0.00413 -4.49838e-20)
(-0.00342661 0.0109085 5.92474e-20)
(-0.00690227 0.0164005 3.30741e-20)
(-0.0109874 0.0207632 1.48841e-20)
(-0.0155301 0.0241081 5.63331e-20)
(-0.0203855 0.0265501 -4.36735e-20)
(-0.0254161 0.0282061 9.3665e-20)
(-0.0305045 0.029192 5.21244e-21)
(-0.0355517 0.0296228 8.51136e-20)
(-0.0404762 0.0296122 -4.91758e-20)
(-0.0452152 0.029272 7.84559e-20)
(-0.0497238 0.0287121 -7.69626e-20)
(-0.0539763 0.0280396 -6.86859e-20)
(-0.0579671 0.0273581 5.8091e-20)
(-0.0617114 0.026765 2.04158e-19)
(-0.0652452 0.0263479 -1.11688e-19)
(-0.0686257 0.0261789 9.10322e-20)
(-0.0719518 0.0263024 2.08069e-20)
(-0.0752632 0.026733 -7.7452e-20)
(-0.0784078 0.0275001 6.47292e-20)
(-0.00113642 0.00450415 8.172e-20)
(-0.003829 0.0119013 -4.55385e-20)
(-0.00747242 0.0178978 1.53027e-20)
(-0.0116621 0.0226619 5.71958e-20)
(-0.0162511 0.0263137 -4.37292e-20)
(-0.0210996 0.0289773 1.01645e-19)
(-0.0260742 0.0307793 -1.83047e-20)
(-0.0310613 0.0318456 2.27307e-21)
(-0.0359645 0.0323012 -1.17593e-19)
(-0.0407047 0.0322699 7.37139e-20)
(-0.0452201 0.031874 1.684e-20)
(-0.0494667 0.031234 -2.19787e-20)
(-0.0534194 0.0304684 2.73562e-20)
(-0.0570726 0.0296928 -1.07235e-19)
(-0.0604428 0.0290175 -5.92596e-20)
(-0.0635685 0.0285438 1.23787e-19)
(-0.0665119 0.0283572 -6.86092e-20)
(-0.069383 0.0285131 -9.72319e-20)
(-0.072231 0.0290347 1.78974e-19)
(-0.0748805 0.0299647 -2.40063e-22)
(-0.00130742 0.00486364 6.84145e-20)
(-0.00426384 0.012856 -8.36946e-20)
(-0.00808932 0.0193382 -8.66991e-20)
(-0.0123926 0.0244886 -4.10478e-20)
(-0.0170321 0.0284352 -2.84677e-20)
(-0.0218729 0.0313106 -3.30537e-20)
(-0.0267863 0.0332505 -1.38449e-19)
(-0.0316624 0.0343903 1.68892e-20)
(-0.036408 0.0348645 -5.77918e-20)
(-0.0409461 0.0348064 2.00712e-19)
(-0.0452163 0.0343483 -1.15669e-19)
(-0.0491753 0.0336211 7.04406e-20)
(-0.052798 0.0327544 -2.13684e-20)
(-0.056079 0.0318762 1.16594e-19)
(-0.0590354 0.0311103 9.50664e-21)
(-0.0617083 0.0305728 -9.84101e-20)
(-0.0641648 0.0303649 -1.75196e-20)
(-0.0665273 0.0305556 4.23954e-21)
(-0.0688566 0.0311794 -7.36049e-21)
(-0.0709504 0.0322974 1.20868e-19)
(-0.00149021 0.00520771 -8.52122e-20)
(-0.00472926 0.0137704 -7.99163e-20)
(-0.00875033 0.0207182 3.29414e-20)
(-0.0131758 0.0262387 8.16206e-20)
(-0.0178695 0.0304668 -6.79361e-21)
(-0.0227017 0.0335433 -5.52611e-20)
(-0.0275484 0.0356124 1.21892e-19)
(-0.0323039 0.0368182 -1.35867e-20)
(-0.0368781 0.0373042 1.45679e-19)
(-0.0411963 0.0372128 -1.60696e-19)
(-0.0451995 0.0366856 4.2022e-20)
(-0.048845 0.0358634 4.93394e-20)
(-0.0521074 0.0348869 -1.48091e-21)
(-0.0549811 0.0338963 -8.15798e-22)
(-0.0574835 0.0330297 -9.15992e-20)
(-0.0596576 0.0324195 1.2333e-20)
(-0.0615755 0.0321847 1.20656e-19)
(-0.0633732 0.032411 1.53989e-19)
(-0.0651256 0.0331482 -1.81309e-19)
(-0.0665992 0.0344817 -1.16089e-19)
(-0.00168403 0.00553575 3.56558e-20)
(-0.00522328 0.0146425 5.33867e-20)
(-0.00945269 0.0220347 6.43522e-20)
(-0.0140083 0.0279078 -1.07889e-19)
(-0.0187595 0.0324033 1.04943e-19)
(-0.0235817 0.0356693 1.0605e-19)
(-0.0283561 0.0378582 -4.11083e-20)
(-0.0329809 0.039122 1.78242e-19)
(-0.0373695 0.0396127 -1.79001e-19)
(-0.0414498 0.039481 7.86818e-20)
(-0.045164 0.0388774 7.94147e-20)
(-0.0484698 0.037952 -6.13127e-21)
(-0.0513414 0.036856 9.94113e-22)
(-0.0537722 0.0357421 1.01535e-20)
(-0.0557795 0.0347631 -7.1709e-20)
(-0.0574075 0.034069 7.04618e-20)
(-0.0587332 0.0337994 -3.59982e-20)
(-0.059907 0.0340603 -8.01639e-20)
(-0.0610213 0.0349214 1.02769e-19)
(-0.0618048 0.0365 2.14478e-20)
(-0.00188808 0.00584724 -2.05661e-20)
(-0.00574387 0.0154708 2.51098e-20)
(-0.0101934 0.023285 -5.38411e-20)
(-0.0148865 0.0294922 -7.96434e-20)
(-0.0196978 0.03424 -7.00008e-20)
(-0.0245082 0.0376832 -7.26851e-20)
(-0.0292038 0.0399817 1.17263e-19)
(-0.0336875 0.0412952 -5.89614e-20)
(-0.0378761 0.041783 4.66248e-20)
(-0.0416999 0.0416039 5.07234e-21)
(-0.0451026 0.0409162 -1.2456e-20)
(-0.0480421 0.0398789 3.08061e-20)
(-0.0504916 0.0386532 -5.95672e-20)
(-0.0524433 0.0374038 3.09113e-20)
(-0.0539132 0.036299 9.88093e-20)
(-0.0549464 0.0355077 -1.43122e-19)
(-0.055624 0.0351928 -9.07632e-20)
(-0.0561116 0.0354849 1.18285e-19)
(-0.0565233 0.0364789 -6.87597e-20)
(-0.056541 0.0383333 -1.06322e-19)
(-0.00210158 0.00614183 7.57242e-20)
(-0.00628895 0.016254 -7.54534e-20)
(-0.0109695 0.0244666 6.06433e-20)
(-0.0158064 0.0309885 9.63665e-20)
(-0.0206797 0.0359725 -1.71047e-20)
(-0.0254756 0.03958 -6.22599e-20)
(-0.0300855 0.0419774 -1.15314e-19)
(-0.0344169 0.0433316 -8.69134e-20)
(-0.0383902 0.0438089 -1.73294e-19)
(-0.0419382 0.043575 1.74175e-20)
(-0.0450062 0.0427956 -1.51524e-20)
(-0.0475519 0.0416375 -1.19627e-19)
(-0.0495474 0.0402714 1.02652e-19)
(-0.0509826 0.0388736 1.24666e-19)
(-0.0518717 0.0376279 -6.25387e-21)
(-0.0522595 0.0367237 7.49629e-20)
(-0.0522306 0.0363497 -3.75798e-20)
(-0.0519662 0.0366664 5.95661e-21)
(-0.0516076 0.0378002 1.03906e-19)
(-0.0507763 0.0399612 2.48807e-19)
(-0.00232373 0.00641922 -3.29374e-20)
(-0.00685639 0.0169908 -2.24148e-20)
(-0.0117776 0.0255777 6.24591e-20)
(-0.0167637 0.0323938 -8.62318e-20)
(-0.0216999 0.0375972 -4.84096e-20)
(-0.0264777 0.041355 8.45925e-20)
(-0.0309941 0.0438402 -3.06094e-20)
(-0.0351609 0.0452259 -8.77299e-20)
(-0.0389025 0.0456849 1.41101e-19)
(-0.0421545 0.0453891 -3.75326e-20)
(-0.0448634 0.0445104 2.7124e-20)
(-0.0469867 0.0432228 1.45801e-19)
(-0.0484948 0.0417053 -2.00584e-19)
(-0.0493749 0.0401455 -5.43578e-20)
(-0.0496382 0.0387425 -1.05924e-19)
(-0.0493282 0.0377071 2.13006e-19)
(-0.0485313 0.0372573 6.59187e-21)
(-0.0474448 0.0375884 1.15269e-19)
(-0.0462453 0.0388652 -4.13721e-20)
(-0.0444736 0.0413613 -2.3561e-19)
(-0.00255378 0.00667926 -7.63615e-20)
(-0.00744402 0.0176806 1.07381e-19)
(-0.0126144 0.0266164 1.46005e-21)
(-0.0177539 0.0337055 -1.0085e-21)
(-0.0227527 0.0391105 1.08649e-19)
(-0.0275077 0.0430043 5.19923e-20)
(-0.0319212 0.0455657 -2.87601e-21)
(-0.0359099 0.0469736 2.27164e-19)
(-0.0394022 0.0474064 8.6152e-20)
(-0.0423364 0.0470416 -1.56779e-19)
(-0.0446602 0.0460565 7.35906e-21)
(-0.0463308 0.044631 -5.29724e-21)
(-0.0473167 0.0429515 2.12319e-19)
(-0.0476013 0.0412159 -2.35152e-19)
(-0.0471916 0.039638 6.42723e-20)
(-0.0461284 0.038451 2.35576e-21)
(-0.0444987 0.0379051 -1.61228e-19)
(-0.0425154 0.0382369 -1.65848e-19)
(-0.0404026 0.0396561 -1.98379e-20)
(-0.037589 0.0425122 2.39149e-19)
(-0.00279096 0.00692184 2.46987e-20)
(-0.00804962 0.0183227 -7.64302e-20)
(-0.0134762 0.0275814 7.3049e-20)
(-0.0187719 0.0349213 -1.08144e-19)
(-0.0238317 0.0405096 1.3286e-19)
(-0.0285577 0.0445243 -1.96774e-19)
(-0.0328576 0.0471497 -5.38038e-20)
(-0.036653 0.0485703 -1.18772e-19)
(-0.0398764 0.0489695 -5.5409e-20)
(-0.0424689 0.0485292 9.77221e-20)
(-0.0443796 0.0474313 1.97258e-19)
(-0.0455652 0.0458604 -2.18837e-19)
(-0.0459914 0.044009 -8.10011e-20)
(-0.0456375 0.0420839 2.90851e-19)
(-0.044505 0.040313 -1.04467e-19)
(-0.0426303 0.0389522 -1.4898e-19)
(-0.0400987 0.0382867 1.87106e-19)
(-0.037138 0.0386017 3.90575e-20)
(-0.0340384 0.0401606 3.6892e-20)
(-0.0300771 0.043414 -1.53908e-19)
(-0.0030345 0.00714694 9.64009e-21)
(-0.00867094 0.0189165 -3.98261e-20)
(-0.0143593 0.0284715 1.27993e-19)
(-0.0198126 0.0360393 -1.63782e-19)
(-0.02493 0.0417917 -1.33988e-19)
(-0.029619 0.0459117 3.46549e-20)
(-0.0337925 0.048589 2.2998e-19)
(-0.0373774 0.0500127 -1.43618e-19)
(-0.04031 0.0503709 3.43156e-20)
(-0.0425345 0.0498493 -6.75681e-20)
(-0.0440013 0.0486332 -2.69856e-19)
(-0.0446663 0.0469107 1.61673e-19)
(-0.0444925 0.0448789 1.29115e-19)
(-0.0434539 0.0427517 -2.26554e-19)
(-0.0415454 0.04077 5.25329e-20)
(-0.0387966 0.0392116 2.07355e-19)
(-0.0352884 0.0383997 8.05526e-20)
(-0.03126 0.0386749 2.80698e-20)
(-0.0270884 0.0403651 -1.62947e-19)
(-0.0218954 0.0441172 -7.92069e-20)
(-0.00328368 0.00735459 -6.68174e-20)
(-0.00930567 0.0194617 -1.1928e-19)
(-0.0152598 0.0292857 -6.811e-20)
(-0.0208701 0.0370579 8.91541e-20)
(-0.02604 0.0429545 -5.14979e-21)
(-0.0306818 0.0471637 1.81188e-20)
(-0.034714 0.0498802 -3.16399e-20)
(-0.0380684 0.0512977 2.13861e-20)
(-0.0406855 0.0516082 1.35464e-19)
(-0.0425125 0.0510004 1.69673e-19)
(-0.043501 0.0496621 -7.7505e-21)
(-0.0436062 0.0477837 -3.67653e-20)
(-0.042788 0.0455648 -2.13171e-19)
(-0.0410144 0.0432249 1.58142e-19)
(-0.038272 0.0410155 -1.38608e-20)
(-0.0345817 0.0392352 -9.27017e-20)
(-0.030017 0.0382461 -4.59496e-19)
(-0.0248199 0.0384472 1.61235e-19)
(-0.0194334 0.0402327 8.55099e-21)
(-0.0129439 0.0446047 -9.83943e-20)
(-0.00353776 0.00754485 6.16089e-20)
(-0.00995144 0.0199581 1.55819e-19)
(-0.0161735 0.0300232 -1.17274e-19)
(-0.0219383 0.0379755 -5.61805e-20)
(-0.0271532 0.0439959 4.64451e-20)
(-0.0317353 0.0482778 -1.10986e-19)
(-0.0356084 0.0510206 -1.92398e-19)
(-0.0387093 0.0524227 1.19264e-19)
(-0.0409827 0.0526793 -1.35544e-20)
(-0.0423787 0.0519816 -2.68028e-19)
(-0.0428503 0.050519 5.08729e-20)
(-0.0423518 0.0484826 2.83256e-20)
(-0.0408395 0.046073 -4.87797e-20)
(-0.038275 0.0435127 1.27534e-19)
(-0.0346355 0.0410612 2.45863e-19)
(-0.0299309 0.0390355 -1.5847e-19)
(-0.0242254 0.0378355 1.27455e-19)
(-0.0177682 0.03792 3.07151e-20)
(-0.0109983 0.0397838 1.74715e-19)
(-0.00306381 0.0447586 7.84174e-20)
(-0.00379602 0.00771784 -6.75645e-20)
(-0.0106058 0.0204055 -7.71927e-21)
(-0.017096 0.0306832 1.66148e-19)
(-0.0230106 0.0387907 1.63006e-19)
(-0.0282606 0.0449139 -3.30436e-20)
(-0.0327675 0.0492515 -2.06852e-20)
(-0.0364606 0.0520079 2.19472e-19)
(-0.0392813 0.0533855 -1.57415e-19)
(-0.0411786 0.0535828 4.74503e-20)
(-0.0421055 0.052793 1.94595e-19)
(-0.0420161 0.051206 1.84581e-19)
(-0.0408641 0.0490124 7.11492e-20)
(-0.0386017 0.0464122 3.08041e-19)
(-0.0351838 0.043628 -4.19833e-20)
(-0.030577 0.0409241 -3.19654e-19)
(-0.024778 0.0386323 1.55656e-19)
(-0.0178384 0.0371882 -8.22601e-20)
(-0.0100135 0.037117 -1.89731e-19)
(-0.00174222 0.0390461 -1.33191e-19)
(0.00784005 0.0445467 -1.33911e-19)
(-0.00405771 0.00787364 4.32012e-20)
(-0.0112663 0.0208037 8.79063e-20)
(-0.0180226 0.0312652 -6.05409e-20)
(-0.0240799 0.0395024 -7.44649e-20)
(-0.0293522 0.0457068 -7.64148e-20)
(-0.0337654 0.0500827 -2.04384e-20)
(-0.0372537 0.0528395 -2.80381e-19)
(-0.0397634 0.0541841 1.07311e-19)
(-0.0412473 0.0543176 -9.7761e-20)
(-0.0416613 0.053435 -1.63382e-19)
(-0.0409608 0.0517259 5.73283e-21)
(-0.039098 0.0493796 -4.0553e-19)
(-0.0360217 0.0465933 -3.11378e-19)
(-0.0316793 0.0435873 9.7406e-20)
(-0.0260264 0.0406265 4.88009e-20)
(-0.0190446 0.0380531 -1.03626e-19)
(-0.0107688 0.0363337 3.97893e-19)
(-0.00145535 0.0360605 -6.18522e-20)
(0.00844133 0.0380046 1.6681e-19)
(0.0198558 0.0440242 1.49757e-19)
(-0.00432211 0.00801238 -5.92866e-20)
(-0.0119303 0.0211527 -1.91074e-19)
(-0.0189485 0.0317685 6.00421e-20)
(-0.0251386 0.0401093 3.31696e-21)
(-0.0304172 0.0463729 2.50045e-19)
(-0.0347144 0.0507693 -1.47589e-19)
(-0.0379691 0.0535136 -1.25174e-19)
(-0.040132 0.0548166 1.48985e-19)
(-0.0411598 0.0548828 -8.78457e-21)
(-0.0410108 0.0539084 6.8239e-20)
(-0.0396412 0.0520824 2.05189e-19)
(-0.0370022 0.0495917 4.24666e-19)
(-0.0330386 0.0466292 3.37345e-20)
(-0.0276904 0.0434102 -1.84279e-19)
(-0.0209018 0.0401963 3.31481e-20)
(-0.0126384 0.0373337 3.19254e-19)
(-0.00291514 0.0353134 -2.14542e-19)
(0.00801692 0.0347903 9.27069e-22)
(0.0196767 0.036682 1.62331e-19)
(0.0331122 0.0432221 -1.00588e-19)
(-0.00458848 0.00813414 -5.67657e-20)
(-0.012595 0.0214522 2.25782e-19)
(-0.0198683 0.0321925 -1.7054e-19)
(-0.0261783 0.0406104 -3.44888e-20)
(-0.0314438 0.0469104 -5.75369e-20)
(-0.0355987 0.0513093 -1.47864e-19)
(-0.0385863 0.0540279 1.45732e-19)
(-0.0403613 0.0552816 -3.81206e-20)
(-0.0408837 0.0552779 -8.40994e-20)
(-0.040114 0.0542145 1.36192e-19)
(-0.038009 0.0522796 -1.56288e-19)
(-0.0345184 0.0496571 -4.98534e-20)
(-0.0295829 0.0465345 -5.50258e-21)
(-0.0231355 0.0431196 1.29349e-19)
(-0.0151089 0.0396664 -1.15797e-19)
(-0.00545234 0.0365182 -2.16605e-19)
(0.00584118 0.0341815 -6.57202e-20)
(0.0185313 0.0333653 -9.42211e-20)
(0.0321023 0.0351308 -2.84951e-19)
(0.0477658 0.0421747 -8.50939e-20)
(-0.00485604 0.00823901 8.05293e-20)
(-0.0132576 0.0217022 -9.91142e-20)
(-0.0207766 0.0325367 -1.2285e-19)
(-0.0271903 0.0410044 -1.14931e-19)
(-0.0324194 0.0473179 3.78512e-20)
(-0.0364011 0.0517009 2.10594e-20)
(-0.0390828 0.0543805 5.19989e-20)
(-0.0404226 0.0555773 -1.79271e-19)
(-0.0403834 0.0555023 1.02277e-19)
(-0.0389272 0.0543544 -3.02925e-19)
(-0.0360106 0.0523217 -1.50416e-19)
(-0.0315817 0.0495845 2.44659e-21)
(-0.025577 0.0463245 1.3043e-19)
(-0.0179225 0.0427401 -8.46151e-20)
(-0.0085401 0.0390735 2.1366e-19)
(0.00263629 0.0356582 -5.18036e-20)
(0.0156367 0.0330049 6.67439e-20)
(0.0302359 0.0318636 2.49473e-19)
(0.0458753 0.0334269 3.25707e-20)
(0.0639927 0.0409386 1.58104e-19)
(-0.005124 0.00832707 -1.70114e-19)
(-0.0139151 0.0219024 1.33328e-19)
(-0.0216673 0.0328003 1.48199e-19)
(-0.0281649 0.0412904 -8.52523e-20)
(-0.0333301 0.0475936 1.4412e-19)
(-0.037103 0.0519421 1.37591e-19)
(-0.0394342 0.0545696 -2.46559e-20)
(-0.040285 0.0557024 -1.36525e-19)
(-0.03962 0.0555553 -2.0053e-19)
(-0.0374021 0.0543295 5.75321e-20)
(-0.0335871 0.0522128 5.53951e-21)
(-0.0281205 0.0493829 -1.47283e-19)
(-0.0209346 0.046015 1.08512e-19)
(-0.0119488 0.0422972 -8.42208e-20)
(-0.00107534 0.0384571 -1.51574e-19)
(0.0117656 0.0348112 -1.95863e-19)
(0.026626 0.0318618 4.75342e-20)
(0.0432988 0.030382 6.54374e-20)
(0.0611717 0.0316713 -6.21285e-20)
(0.0819865 0.0396004 2.61413e-19)
(-0.00539153 0.00839833 -1.34332e-19)
(-0.0145642 0.0220526 -1.22702e-19)
(-0.0225342 0.0329828 9.59455e-20)
(-0.0290921 0.041467 5.52251e-20)
(-0.0341612 0.0477362 2.22969e-20)
(-0.0376841 0.0520311 -4.04029e-20)
(-0.0396141 0.0545933 -2.82296e-20)
(-0.0399146 0.0556553 6.38168e-20)
(-0.0385513 0.0554365 -5.70121e-20)
(-0.0354865 0.0541409 4.72171e-19)
(-0.0306744 0.051957 3.40595e-20)
(-0.024057 0.0490606 -5.17792e-20)
(-0.0155619 0.0456213 -3.37557e-19)
(-0.00510232 0.0418168 6.44947e-20)
(0.00741759 0.037858 -1.63393e-19)
(0.0220884 0.0340384 1.07024e-19)
(0.0389807 0.0308394 9.71625e-20)
(0.057907 0.0290351 -3.66267e-19)
(0.0781856 0.0299925 -1.12914e-19)
(0.101955 0.0382812 -3.90694e-19)
(-0.00565775 0.00845281 6.49615e-20)
(-0.0152015 0.0221524 1.26996e-19)
(-0.0233702 0.0330835 -2.26326e-19)
(-0.0299606 0.0415333 -1.71491e-19)
(-0.0348967 0.047744 8.60233e-20)
(-0.0381227 0.0519663 8.01197e-20)
(-0.039594 0.0544502 -1.64394e-19)
(-0.0392751 0.0554349 -1.46328e-20)
(-0.0371315 0.0551455 1.97656e-20)
(-0.033124 0.0537898 -1.42185e-19)
(-0.0272033 0.0515581 2.04459e-19)
(-0.019307 0.0486256 1.15999e-21)
(-0.00935751 0.0451578 2.53168e-19)
(0.00273797 0.0413232 1.70015e-19)
(0.0170815 0.0373158 2.82363e-20)
(0.0337701 0.0334021 3.51318e-19)
(0.0528879 0.0300306 -3.15727e-19)
(0.0742641 0.0279523 1.44895e-19)
(0.0971259 0.0285459 1.12168e-19)
(0.124113 0.0371425 9.67591e-20)
(-0.00592175 0.00849049 3.12785e-19)
(-0.0158233 0.0222016 -2.14757e-19)
(-0.0241681 0.0331015 5.1632e-20)
(-0.0307588 0.0414881 1.66449e-19)
(-0.0355194 0.0476158 -1.77533e-19)
(-0.0383953 0.0517463 8.67751e-21)
(-0.0393431 0.0541387 1.32164e-19)
(-0.0383273 0.0550403 2.40412e-19)
(-0.0353119 0.0546824 2.40793e-19)
(-0.0302542 0.0532776 -2.35929e-19)
(-0.0231002 0.0510197 -1.80054e-19)
(-0.0137815 0.0480852 8.45546e-20)
(-0.0022141 0.0446377 -2.4066e-19)
(0.0117002 0.0408388 1.62432e-20)
(0.0280676 0.0368675 9.17672e-20)
(0.0469867 0.0329618 6.96999e-20)
(0.0685464 0.0295285 2.12867e-19)
(0.0925864 0.0272718 4.42557e-20)
(0.118213 0.0275108 -1.57505e-19)
(0.14868 0.03639 1.68985e-19)
(-0.00618251 0.00851129 -2.96578e-19)
(-0.0164257 0.0221996 2.13881e-19)
(-0.0249201 0.0330361 5.14215e-20)
(-0.0314738 0.0413304 -1.65011e-19)
(-0.0360107 0.0473505 6.89832e-20)
(-0.0384766 0.0513698 -3.29792e-20)
(-0.0388285 0.0536581 -2.46036e-20)
(-0.0370294 0.0544711 -2.02924e-19)
(-0.0330401 0.0540474 -3.16857e-19)
(-0.0268129 0.0526061 2.03905e-19)
(-0.018287 0.0503457 -1.04428e-19)
(-0.00738624 0.0474462 3.23455e-21)
(0.00598087 0.0440726 5.79455e-20)
(0.0219181 0.0403832 1.2172e-19)
(0.0405334 0.0365456 -1.46217e-20)
(0.0619205 0.0327716 -3.35781e-20)
(0.0861628 0.0294217 -1.71295e-19)
(0.113098 0.0271339 -1.13662e-19)
(0.141676 0.0270841 -1.06402e-19)
(0.175861 0.0362752 1.7063e-19)
(-0.00643897 0.00851513 2.37839e-19)
(-0.0170043 0.0221461 -6.03303e-20)
(-0.0256174 0.0328867 2.03199e-19)
(-0.0320918 0.0410593 4.87578e-20)
(-0.0363506 0.046947 -1.06354e-19)
(-0.0383397 0.0508363 1.70472e-20)
(-0.0380149 0.053008 -2.21973e-19)
(-0.0353367 0.0537276 9.98936e-20)
(-0.0302609 0.0532421 5.35214e-20)
(-0.0227326 0.0517778 7.99619e-21)
(-0.012682 0.0495403 7.27493e-20)
(-2.33419e-05 0.0467156 2.57391e-20)
(0.0153437 0.0434732 -1.15935e-19)
(0.0335287 0.039973 -2.67216e-19)
(0.0546388 0.0363772 1.34054e-19)
(0.0787563 0.0328769 -6.62952e-20)
(0.105946 0.0297883 -1.6136e-20)
(0.136024 0.0276712 2.74852e-19)
(0.167745 0.0274712 2.84553e-19)
(0.205841 0.0370951 -4.35351e-19)
(-0.00668995 0.00850187 -6.06954e-20)
(-0.0175546 0.0220405 -6.49824e-20)
(-0.0262508 0.0326524 -1.27342e-19)
(-0.0325979 0.0406741 9.23471e-20)
(-0.0365178 0.046405 1.658e-19)
(-0.0379554 0.0501457 -2.12241e-19)
(-0.0368647 0.0521892 3.35498e-19)
(-0.0332017 0.0528115 -6.4901e-20)
(-0.0269155 0.052269 9.41948e-21)
(-0.0179418 0.0507969 -2.20253e-19)
(-0.00619978 0.0486094 7.37101e-21)
(0.00840833 0.0459009 -1.77738e-19)
(0.0259932 0.0428496 2.35911e-19)
(0.0466701 0.0396222 1.53613e-19)
(0.0705434 0.0363832 -2.97025e-19)
(0.0976768 0.0333122 -2.50284e-19)
(0.128102 0.0306905 5.71618e-20)
(0.161583 0.028999 3.29471e-19)
(0.196652 0.0288746 1.50189e-19)
(0.238761 0.0391875 8.08278e-20)
(-0.00693415 0.00847134 1.88817e-20)
(-0.0180714 0.0218822 6.30164e-20)
(-0.0268104 0.0323326 7.50904e-20)
(-0.032976 0.0401743 -6.20885e-20)
(-0.036489 0.0457243 1.53873e-19)
(-0.0372926 0.0492988 2.04011e-19)
(-0.0353375 0.0512034 3.18927e-21)
(-0.0305739 0.0517257 -2.57899e-19)
(-0.0229421 0.0511326 -2.03966e-19)
(-0.0123662 0.0496693 2.11341e-19)
(0.00124801 0.0475604 -3.41891e-19)
(0.0180122 0.0450115 -3.11377e-19)
(0.0380487 0.0422127 -3.08194e-20)
(0.0614791 0.0393435 -1.58757e-20)
(0.0884025 0.0365792 1.05029e-19)
(0.118857 0.0341002 6.81907e-20)
(0.152827 0.0321708 8.7592e-20)
(0.189984 0.0312034 -4.07351e-19)
(0.22863 0.0314776 -1.11296e-19)
(0.274712 0.0429122 2.91124e-19)
(-0.00717015 0.00842329 -1.12824e-19)
(-0.0185492 0.0216706 1.07427e-19)
(-0.027285 0.0319267 -7.84076e-20)
(-0.0332087 0.0395597 -3.853e-20)
(-0.0362394 0.0449058 -1.03867e-19)
(-0.0363179 0.0482972 -7.78805e-20)
(-0.0333905 0.0500537 -1.37862e-19)
(-0.0274 0.0504751 2.25405e-19)
(-0.0182756 0.0498397 8.86531e-20)
(-0.00592819 0.0484039 -2.15339e-19)
(0.00975221 0.0464041 -2.58709e-19)
(0.0288928 0.0440593 1.37054e-19)
(0.0516289 0.0415752 -1.26784e-19)
(0.0780881 0.039149 -1.75908e-19)
(0.108362 0.0369759 -2.23561e-20)
(0.142457 0.0352515 1.77115e-19)
(0.1803 0.0342486 -1.17004e-19)
(0.22141 0.0343304 4.41734e-20)
(0.263925 0.0354219 9.82851e-20)
(0.313732 0.04861 2.46065e-19)
(-0.00739632 0.00835746 -1.15521e-20)
(-0.0189818 0.0214051 -2.65361e-19)
(-0.0276627 0.0314343 6.39921e-20)
(-0.0332772 0.0388307 1.40751e-19)
(-0.0357423 0.0439506 -2.55966e-20)
(-0.0349957 0.0471439 -1.66792e-19)
(-0.0309783 0.048745 1.8192e-19)
(-0.0236235 0.0490668 2.06076e-19)
(-0.0128481 0.0483998 7.79906e-20)
(0.00145253 0.0470127 3.83071e-19)
(0.0194055 0.045155 -1.76232e-19)
(0.0411549 0.0430607 6.2842e-20)
(0.0668495 0.0409534 -8.53274e-20)
(0.0966222 0.0390527 2.03116e-19)
(0.130556 0.0375814 -1.76829e-20)
(0.168619 0.0367656 -4.586e-20)
(0.210671 0.0369209 -7.24558e-20)
(0.256009 0.038378 1.12672e-19)
(0.302767 0.0408117 -2.8075e-19)
(0.355747 0.056632 -3.77575e-19)
(-0.00761088 0.00827352 -6.54786e-20)
(-0.0193624 0.021085 -2.36079e-20)
(-0.0279305 0.0308552 -2.12133e-19)
(-0.0331611 0.0379877 1.28478e-19)
(-0.0349689 0.042861 -1.2975e-19)
(-0.033288 0.0458432 -1.30357e-19)
(-0.0280524 0.0472842 -1.16243e-20)
(-0.019185 0.0475107 -2.07865e-19)
(-0.00658862 0.0468261 -3.26216e-19)
(0.00985862 0.0455123 8.82701e-20)
(0.0303018 0.0438325 9.7817e-20)
(0.054902 0.0420369 -4.09596e-20)
(0.0838207 0.0403686 3.18377e-19)
(0.117195 0.0390717 -2.86742e-20)
(0.155096 0.0384023 -6.24472e-20)
(0.197454 0.0386309 -8.6048e-21)
(0.244061 0.0401565 1.53839e-19)
(0.293892 0.0432885 2.70427e-19)
(0.345331 0.0478063 -7.50933e-20)
(0.400259 0.0676352 2.74137e-19)
(-0.00781178 0.00817105 2.05356e-19)
(-0.0196836 0.0207096 -3.23995e-20)
(-0.0280743 0.0301892 1.87365e-19)
(-0.0328382 0.0370322 -1.90043e-19)
(-0.0338883 0.0416403 2.77512e-19)
(-0.031154 0.0444009 2.29697e-19)
(-0.0245617 0.0456802 -1.86665e-19)
(-0.0140224 0.0458193 -3.43599e-19)
(0.000576517 0.0451353 5.63281e-19)
(0.0193746 0.0439234 1.37583e-19)
(0.042535 0.0424615 -1.05998e-19)
(0.0702345 0.0410159 -1.03615e-19)
(0.102645 0.0398486 -1.07681e-19)
(0.139904 0.0392285 -7.90701e-20)
(0.182069 0.0394452 -2.5895e-19)
(0.229038 0.0408216 -6.97808e-20)
(0.280556 0.0438743 5.7447e-21)
(0.335228 0.0489039 -1.85714e-19)
(0.392 0.0566759 9.12256e-20)
(0.446298 0.0825572 -1.94077e-19)
(-0.00799673 0.00804961 -3.28137e-19)
(-0.0199371 0.0202782 2.14625e-19)
(-0.0280783 0.0294364 -3.16265e-19)
(-0.0322849 0.0359659 -1.70432e-19)
(-0.0324675 0.0402927 6.28427e-20)
(-0.0285508 0.0428245 -2.48238e-19)
(-0.0204525 0.0439445 3.84764e-19)
(-0.00807078 0.0440087 6.55412e-21)
(0.00872306 0.0433484 -2.09435e-19)
(0.030086 0.0422725 -1.80942e-19)
(0.0561978 0.0410734 -3.19496e-19)
(0.0872478 0.0400326 -3.85917e-21)
(0.123412 0.0394295 -4.4496e-20)
(0.164823 0.0395531 -1.28213e-19)
(0.211522 0.0407205 3.1238e-19)
(0.263375 0.0432974 1.90982e-19)
(0.320148 0.0479178 4.71169e-20)
(0.380241 0.0548837 -2.00842e-19)
(0.444017 0.0672826 -1.08147e-20)
(0.495523 0.0993548 -3.23314e-19)
(-0.00816315 0.00790871 1.16562e-19)
(-0.0201139 0.0197901 -2.1471e-19)
(-0.0279259 0.0285973 2.73092e-19)
(-0.0314756 0.0347913 3.79769e-19)
(-0.0306714 0.0388237 -1.22216e-19)
(-0.0254329 0.0411234 1.57466e-20)
(-0.0156684 0.042091 -3.24379e-19)
(-0.00126283 0.0420982 -7.97362e-20)
(0.0179284 0.0414906 -2.45725e-19)
(0.0420786 0.0405912 3.1682e-19)
(0.0713806 0.039706 2.90352e-19)
(0.10603 0.0391302 -5.10463e-20)
(0.146199 0.0391566 -3.79796e-20)
(0.192002 0.0400868 -6.04067e-20)
(0.243448 0.0422508 5.61434e-20)
(0.30037 0.0460247 -9.99376e-20)
(0.362586 0.0521006 -1.1485e-19)
(0.428579 0.0606995 2.41541e-19)
(0.501841 0.0777959 -7.78315e-20)
(0.557955 0.107215 5.58948e-21)
(-0.00830809 0.00774775 3.07824e-20)
(-0.0202038 0.0192447 4.33924e-20)
(-0.0275988 0.0276727 -1.42983e-19)
(-0.0303828 0.0335116 -3.9146e-19)
(-0.0284626 0.0372401 6.27633e-20)
(-0.0217523 0.0393089 1.88003e-19)
(-0.0101507 0.0401364 8.48646e-20)
(0.00647052 0.0401106 3.60127e-19)
(0.0282709 0.0395918 -2.23631e-19)
(0.0554368 0.0389166 -2.87461e-19)
(0.0881688 0.0384038 -5.20422e-20)
(0.12666 0.0383599 1.28151e-19)