/*--------------------------------*- C++ -*----------------------------------*\
  =========                 |
  \\      /  F ield         | OpenFOAM: The Open Source CFD Toolbox
   \\    /   O peration     | Website:  https://openfoam.org
    \\  /    A nd           | Version:  7
     \\/     M anipulation  |
\*---------------------------------------------------------------------------*/
FoamFile
{
    version     2.0;
    format      ascii;
    class       volScalarField;
    location    "200";
    object      p;
}
// * * * * * * * * * * * * * * * * * * * * * * * * * * * * * * * * * * * * * //

dimensions      [0 2 -2 0 0 0 0];

internalField   nonuniform List<scalar> 
7158
(
-0.0548779
-0.0593898
-0.0637213
-0.0653532
-0.0629714
-0.0575119
-0.0511194
-0.0454701
-0.0418985
-0.0407229
-0.0417848
-0.0435011
-0.0440931
-0.0425943
-0.0391938
-0.0346295
-0.0314308
-0.0289468
-0.0295499
-0.0298136
-0.0302434
-0.0271911
-0.0243425
-0.0172555
-0.0157571
-0.0106015
-0.0108834
-0.00462604
-0.00513391
-0.0554745
-0.0603816
-0.065027
-0.0668309
-0.064427
-0.0587742
-0.0520746
-0.0460661
-0.0421093
-0.0405312
-0.0412264
-0.0426204
-0.0430336
-0.0414745
-0.0382016
-0.0338671
-0.0310106
-0.0289333
-0.0298946
-0.0305401
-0.0311402
-0.0282492
-0.0252541
-0.0179827
-0.0161586
-0.0105934
-0.0106922
-0.00420593
-0.00484479
-0.0560621
-0.0613685
-0.0663328
-0.0683122
-0.0658869
-0.0600381
-0.0530272
-0.0466566
-0.0423141
-0.040335
-0.040667
-0.0417422
-0.041979
-0.0403592
-0.0372113
-0.0331035
-0.030587
-0.0289159
-0.0302365
-0.0312656
-0.0320376
-0.0293086
-0.0261654
-0.0187093
-0.0165582
-0.0105836
-0.0105003
-0.00378744
-0.00455608
-0.0566397
-0.0623495
-0.0676374
-0.0697963
-0.0673505
-0.0613031
-0.0539772
-0.0472416
-0.0425131
-0.0401347
-0.0401069
-0.040867
-0.0409298
-0.0392488
-0.036223
-0.0323388
-0.0301602
-0.0288943
-0.0305755
-0.0319897
-0.0329352
-0.0303687
-0.0270761
-0.0194352
-0.0169559
-0.0105722
-0.0103077
-0.00337075
-0.00426787
-0.0572064
-0.0633235
-0.0689398
-0.0712821
-0.068817
-0.0625689
-0.0549242
-0.0478212
-0.0427066
-0.0399307
-0.0395467
-0.0399954
-0.0398862
-0.0381438
-0.035237
-0.0315734
-0.0297299
-0.0288685
-0.0309112
-0.032712
-0.0338328
-0.0314294
-0.027986
-0.0201602
-0.0173515
-0.0105591
-0.0101147
-0.00295602
-0.00398023
-0.0577612
-0.0642892
-0.0702389
-0.0727686
-0.0702858
-0.0638351
-0.0558682
-0.0483953
-0.0428947
-0.0397234
-0.0389869
-0.0391277
-0.0388489
-0.0370445
-0.0342537
-0.0308073
-0.0292963
-0.0288383
-0.0312433
-0.0334324
-0.0347301
-0.0324902
-0.0288948
-0.020884
-0.017745
-0.0105446
-0.00992123
-0.00254344
-0.00369326
-0.0583031
-0.0652455
-0.0715333
-0.0742548
-0.071756
-0.0651011
-0.056809
-0.0489641
-0.0430777
-0.0395132
-0.0384278
-0.0382644
-0.0378181
-0.0359511
-0.0332733
-0.0300407
-0.0288594
-0.0288035
-0.0315717
-0.0341504
-0.0356266
-0.0335508
-0.0298022
-0.0216065
-0.0181365
-0.0105287
-0.0097275
-0.00213317
-0.00340701
-0.0588312
-0.0661913
-0.0728219
-0.0757396
-0.0732268
-0.0663666
-0.0577464
-0.0495275
-0.0432558
-0.0393004
-0.03787
-0.037406
-0.0367943
-0.0348642
-0.032296
-0.0292738
-0.028419
-0.0287639
-0.0318961
-0.0348657
-0.036522
-0.0346109
-0.0307081
-0.0223274
-0.0185258
-0.0105113
-0.00953361
-0.00172538
-0.00312158
-0.0593444
-0.0671254
-0.0741035
-0.077222
-0.0746976
-0.0676312
-0.0586802
-0.0500855
-0.0434292
-0.0390854
-0.0373138
-0.0365528
-0.0357778
-0.033784
-0.0313221
-0.0285068
-0.0279753
-0.0287195
-0.032216
-0.035578
-0.0374162
-0.0356701
-0.031612
-0.0230467
-0.0189129
-0.0104927
-0.00933968
-0.00132024
-0.00283703
-0.0598419
-0.0680465
-0.0753769
-0.0787009
-0.0761676
-0.0688943
-0.0596103
-0.0506383
-0.0435981
-0.0388684
-0.0367596
-0.0357054
-0.0347691
-0.0327108
-0.030352
-0.0277397
-0.0275281
-0.0286699
-0.0325314
-0.036287
-0.0383085
-0.036728
-0.0325139
-0.023764
-0.0192978
-0.0104729
-0.00914582
-0.000917934
-0.00255344
-0.0603226
-0.0689534
-0.0766407
-0.0801752
-0.0776358
-0.0701555
-0.0605364
-0.0511858
-0.0437628
-0.03865
-0.0362078
-0.034864
-0.0337684
-0.0316451
-0.0293857
-0.0269728
-0.0270776
-0.0286152
-0.0328419
-0.0369923
-0.0391989
-0.0377845
-0.0334133
-0.0244792
-0.0196804
-0.010452
-0.00895214
-0.000518614
-0.00227089
-0.0607855
-0.069845
-0.0778937
-0.0816437
-0.0791016
-0.0714145
-0.0614585
-0.051728
-0.0439234
-0.0384303
-0.0356589
-0.0340291
-0.0327761
-0.030587
-0.0284236
-0.0262062
-0.0266237
-0.0285551
-0.0331472
-0.0376935
-0.0400869
-0.038839
-0.0343101
-0.0251921
-0.0200606
-0.01043
-0.00875875
-0.000122455
-0.00198943
-0.0612297
-0.0707201
-0.0791346
-0.0831053
-0.0805639
-0.0726706
-0.0623764
-0.0522652
-0.0440801
-0.0382096
-0.0351132
-0.0332011
-0.0317926
-0.0295369
-0.027466
-0.0254402
-0.0261663
-0.0284894
-0.0334471
-0.0383905
-0.0409722
-0.0398913
-0.0352039
-0.0259024
-0.0204385
-0.010407
-0.00856577
0.000270381
-0.00170914
-0.0616543
-0.0715774
-0.0803621
-0.0845588
-0.0820221
-0.0739235
-0.0632898
-0.0527971
-0.0442332
-0.0379884
-0.0345709
-0.0323803
-0.0308182
-0.0284966
-0.0265131
-0.0246748
-0.0257056
-0.0284181
-0.0337413
-0.0390828
-0.0418545
-0.0409409
-0.0360945
-0.02661
-0.0208138
-0.010383
-0.00837329
0.000659732
-0.00143008
-0.0620583
-0.0724157
-0.0815749
-0.0860031
-0.0834753
-0.0751727
-0.0641987
-0.053324
-0.0443828
-0.0377669
-0.0340326
-0.031567
-0.0298532
-0.0274636
-0.0255651
-0.0239102
-0.0252414
-0.028341
-0.0340296
-0.03977
-0.0427334
-0.0419876
-0.0369817
-0.0273146
-0.0211867
-0.0103582
-0.00818143
0.00104543
-0.00115232
-0.0624409
-0.0732339
-0.0827718
-0.087437
-0.0849224
-0.0764177
-0.0651029
-0.0538459
-0.0445292
-0.0375453
-0.0334984
-0.0307615
-0.028898
-0.0264394
-0.0246223
-0.0231466
-0.0247738
-0.0282579
-0.0343116
-0.040452
-0.0436087
-0.043031
-0.0378651
-0.0280161
-0.021557
-0.0103326
-0.00799028
0.00142733
-0.00087591
-0.062801
-0.0740307
-0.0839514
-0.0888593
-0.0863628
-0.0776579
-0.0660022
-0.0543627
-0.0446724
-0.037324
-0.0329687
-0.0299643
-0.0279527
-0.0254245
-0.023685
-0.0223842
-0.0243028
-0.0281687
-0.0345871
-0.0411283
-0.0444799
-0.0440708
-0.0387446
-0.0287141
-0.0219246
-0.0103063
-0.00779995
0.00180525
-0.000600925
-0.0631379
-0.0748051
-0.0851124
-0.0902688
-0.0877954
-0.078893
-0.0668964
-0.0548746
-0.0448127
-0.0371031
-0.0324439
-0.0291755
-0.0270177
-0.024419
-0.0227532
-0.0216231
-0.0238284
-0.0280732
-0.0348558
-0.0417986
-0.0453469
-0.0451066
-0.0396198
-0.0294086
-0.0222895
-0.0102793
-0.00761055
0.00217905
-0.000327413
-0.0634508
-0.0755558
-0.0862536
-0.0916643
-0.0892193
-0.0801223
-0.0677853
-0.0553815
-0.0449502
-0.036883
-0.0319241
-0.0283955
-0.0260933
-0.0234232
-0.0218274
-0.0208635
-0.0233507
-0.0279714
-0.0351175
-0.0424627
-0.0462091
-0.0461381
-0.0404904
-0.0300993
-0.0226516
-0.0102517
-0.00742215
0.00254857
-5.54364e-05
-0.0637387
-0.0762818
-0.0873737
-0.0930446
-0.0906337
-0.0813455
-0.0686689
-0.0558836
-0.0450851
-0.0366639
-0.0314096
-0.0276246
-0.0251797
-0.0224375
-0.0209077
-0.0201056
-0.0228695
-0.027863
-0.035372
-0.0431201
-0.0470664
-0.0471649
-0.0413563
-0.0307859
-0.0230109
-0.0102235
-0.00723486
0.00291366
0.000214954
-0.064001
-0.0769818
-0.0884713
-0.0944085
-0.0920376
-0.0825619
-0.0695469
-0.0563808
-0.0452176
-0.036446
-0.0309007
-0.0268629
-0.0242771
-0.0214621
-0.0199944
-0.0193495
-0.022385
-0.027748
-0.0356189
-0.0437706
-0.0479185
-0.0481868
-0.0422171
-0.0314683
-0.0233671
-0.0101949
-0.00704877
0.00327417
0.000483709
-0.0642368
-0.077655
-0.0895453
-0.0957548
-0.09343
-0.083771
-0.0704191
-0.0568732
-0.0453477
-0.0362295
-0.0303977
-0.0261108
-0.0233859
-0.0204973
-0.0190876
-0.0185954
-0.0218971
-0.0276262
-0.035858
-0.0444138
-0.0487649
-0.0492034
-0.0430726
-0.0321462
-0.0237204
-0.0101658
-0.00686396
0.00362994
0.000750773
-0.0644454
-0.0783001
-0.0905945
-0.0970823
-0.09481
-0.0849724
-0.0712854
-0.0573608
-0.0454758
-0.0360147
-0.0299007
-0.0253685
-0.0225062
-0.0195433
-0.0181876
-0.0178435
-0.0214059
-0.0274976
-0.036089
-0.0450494
-0.0496054
-0.0502143
-0.0439226
-0.0328194
-0.0240705
-0.0101364
-0.00668053
0.00398084
0.0010161
-0.0646262
-0.0789161
-0.0916175
-0.0983899
-0.0961766
-0.0861654
-0.0721456
-0.0578436
-0.0456018
-0.0358016
-0.0294099
-0.0246361
-0.0216383
-0.0186004
-0.0172946
-0.0170938
-0.0209114
-0.027362
-0.0363118
-0.0456772
-0.0504396
-0.0512193
-0.0447667
-0.0334877
-0.0244175
-0.0101067
-0.00649855
0.00432671
0.00127964
-0.0647784
-0.0795022
-0.0926132
-0.0996763
-0.097529
-0.0873495
-0.0729995
-0.0583218
-0.0457259
-0.0355906
-0.0289256
-0.023914
-0.0207823
-0.0176687
-0.0164089
-0.0163467
-0.0204136
-0.0272192
-0.0365261
-0.0462967
-0.0512674
-0.0522179
-0.0456047
-0.0341509
-0.0247611
-0.0100767
-0.0063181
0.00466743
0.00154135
-0.0649016
-0.0800573
-0.0935805
-0.10094
-0.098866
-0.0885242
-0.0738468
-0.0587952
-0.0458483
-0.0353818
-0.0284479
-0.0232022
-0.0199384
-0.0167482
-0.0155306
-0.0156023
-0.0199126
-0.0270693
-0.0367316
-0.0469078
-0.0520883
-0.05321
-0.0464364
-0.0348086
-0.0251014
-0.0100466
-0.00613927
0.00500284
0.0018012
-0.0649951
-0.0805805
-0.0945182
-0.102181
-0.100187
-0.0896889
-0.0746875
-0.059264
-0.045969
-0.0351753
-0.0279771
-0.0225009
-0.0191069
-0.0158393
-0.0146599
-0.0148607
-0.0194084
-0.026912
-0.0369281
-0.04751
-0.052902
-0.0541952
-0.0472615
-0.0354608
-0.0254382
-0.0100162
-0.00596211
0.0053328
0.00205913
-0.0650584
-0.0810709
-0.0954253
-0.103397
-0.101491
-0.0908429
-0.0755212
-0.0597282
-0.0460882
-0.0349712
-0.0275131
-0.0218104
-0.0182879
-0.0149422
-0.013797
-0.0141222
-0.018901
-0.0267474
-0.0371154
-0.0481032
-0.0537083
-0.0551731
-0.0480797
-0.0361072
-0.0257714
-0.00998577
-0.00578672
0.0056572
0.0023151
-0.0650911
-0.0815278
-0.0963005
-0.104587
-0.102776
-0.0919858
-0.0763479
-0.0601877
-0.0462061
-0.0347698
-0.0270562
-0.0211307
-0.0174816
-0.0140572
-0.0129422
-0.0133868
-0.0183904
-0.0265753
-0.0372932
-0.0486868
-0.0545069
-0.0561435
-0.0488909
-0.0367474
-0.026101
-0.00995525
-0.00561314
0.00597589
0.00256909
-0.0650927
-0.0819503
-0.097143
-0.105751
-0.104042
-0.093117
-0.0771671
-0.0606427
-0.0463226
-0.0345712
-0.0266066
-0.020462
-0.016688
-0.0131847
-0.0120956
-0.0126547
-0.0178768
-0.0263956
-0.0374614
-0.0492608
-0.0552974
-0.0571059
-0.0496947
-0.0373814
-0.0264268
-0.00992471
-0.00544144
0.00628875
0.00282106
-0.0650628
-0.0823377
-0.0979517
-0.106886
-0.105289
-0.0942358
-0.0779789
-0.061093
-0.046438
-0.0343754
-0.0261642
-0.0198043
-0.0159074
-0.0123249
-0.0112574
-0.0119262
-0.0173602
-0.0262083
-0.0376198
-0.0498248
-0.0560795
-0.0580603
-0.0504909
-0.0380089
-0.0267488
-0.00989419
-0.00527169
0.00659565
0.00307097
-0.0650012
-0.0826893
-0.0987256
-0.107993
-0.106514
-0.0953417
-0.0787828
-0.0615388
-0.0465522
-0.0341826
-0.0257292
-0.0191579
-0.0151398
-0.0114778
-0.0104279
-0.0112015
-0.0168407
-0.0260133
-0.037768
-0.0503784
-0.056853
-0.0590061
-0.0512794
-0.0386297
-0.0270667
-0.00986371
-0.00510394
0.00689647
0.00331879
-0.0649075
-0.0830046
-0.0994639
-0.10907
-0.107717
-0.096434
-0.0795787
-0.0619801
-0.0466655
-0.0339929
-0.0253017
-0.0185228
-0.0143854
-0.0106436
-0.00960709
-0.0104805
-0.0163183
-0.0258106
-0.037906
-0.0509215
-0.0576176
-0.0599432
-0.0520597
-0.0392434
-0.0273807
-0.00983332
-0.00493824
0.00719109
0.00356449
-0.0647816
-0.0832828
-0.100166
-0.110116
-0.108898
-0.0975122
-0.0803663
-0.0624168
-0.0467778
-0.0338063
-0.0248817
-0.017899
-0.0136443
-0.00982242
-0.00879528
-0.00976369
-0.015793
-0.0256001
-0.0380335
-0.0514537
-0.058373
-0.0608711
-0.0528318
-0.03985
-0.0276904
-0.00980305
-0.00477464
0.00747939
0.00380805
-0.0646232
-0.0835235
-0.10083
-0.111129
-0.110054
-0.0985756
-0.0811454
-0.0628489
-0.0468893
-0.033623
-0.0244693
-0.0172866
-0.0129165
-0.00901451
-0.00799263
-0.00905107
-0.015265
-0.0253817
-0.0381504
-0.0519747
-0.0591189
-0.0617897
-0.0535954
-0.0404491
-0.0279959
-0.00977292
-0.00461319
0.00776126
0.00404943
-0.0644323
-0.0837263
-0.101456
-0.112111
-0.111186
-0.0996236
-0.0819157
-0.0632765
-0.0469999
-0.0334431
-0.0240646
-0.0166858
-0.0122021
-0.00821991
-0.00719929
-0.00834285
-0.0147343
-0.0251555
-0.0382565
-0.0524842
-0.059855
-0.0626986
-0.0543502
-0.0410406
-0.028297
-0.00974296
-0.00445393
0.0080366
0.00428862
-0.0642087
-0.0838906
-0.102044
-0.113058
-0.112293
-0.100656
-0.082677
-0.0636996
-0.0471099
-0.0332665
-0.0236675
-0.0160964
-0.0115013
-0.00743875
-0.00641546
-0.00763922
-0.0142011
-0.0249213
-0.0383515
-0.052982
-0.0605811
-0.0635976
-0.0550961
-0.0416242
-0.0285937
-0.00971319
-0.0042969
0.00830529
0.0045256
-0.0639526
-0.0840162
-0.102592
-0.113971
-0.113373
-0.101671
-0.0834289
-0.064118
-0.0472193
-0.0330934
-0.0232781
-0.0155186
-0.0108139
-0.00667117
-0.0056413
-0.00694036
-0.0136654
-0.0246793
-0.0384354
-0.0534679
-0.0612968
-0.0644863
-0.0558327
-0.0421996
-0.0288857
-0.00968363
-0.00414212
0.00856724
0.00476034
-0.0636639
-0.0841027
-0.1031
-0.114849
-0.114425
-0.102669
-0.0841712
-0.0645319
-0.0473281
-0.0329237
-0.0228964
-0.0149523
-0.0101402
-0.0059173
-0.004877
-0.00624645
-0.0131273
-0.0244292
-0.0385079
-0.0539415
-0.0620018
-0.0653644
-0.0565599
-0.0427667
-0.029173
-0.0096543
-0.00398964
0.00882234
0.00499283
-0.0633427
-0.08415
-0.103567
-0.11569
-0.115449
-0.103649
-0.0849036
-0.0649412
-0.0474363
-0.0327577
-0.0225224
-0.0143975
-0.00948013
-0.00517726
-0.00412271
-0.00555767
-0.0125869
-0.0241713
-0.038569
-0.0544025
-0.062696
-0.0662318
-0.0572775
-0.0433253
-0.0294555
-0.0096252
-0.00383947
0.00907052
0.00522305
-0.0629892
-0.0841578
-0.103993
-0.116495
-0.116444
-0.104611
-0.0856258
-0.0653458
-0.0475441
-0.0325952
-0.022156
-0.0138543
-0.00883369
-0.00445115
-0.00337861
-0.00487422
-0.0120444
-0.0239054
-0.0386185
-0.0548508
-0.063379
-0.067088
-0.0579853
-0.0438751
-0.0297331
-0.00959636
-0.00369165
0.00931167
0.00545098
-0.0626036
-0.084126
-0.104378
-0.117261
-0.117409
-0.105554
-0.0863375
-0.0657457
-0.0476515
-0.0324363
-0.0217974
-0.0133226
-0.00820093
-0.00373908
-0.00264489
-0.00419629
-0.0114998
-0.0236316
-0.0386562
-0.055286
-0.0640506
-0.0679328
-0.058683
-0.0444158
-0.0300056
-0.00956776
-0.00354618
0.00954571
0.00567662
-0.0621862
-0.0840545
-0.10472
-0.11799
-0.118344
-0.106476
-0.0870383
-0.066141
-0.0477586
-0.0322812
-0.0214464
-0.0128025
-0.00758195
-0.00304124
-0.00192176
-0.00352411
-0.0109534
-0.0233499
-0.038682
-0.0557079
-0.0647104
-0.0687659
-0.0593703
-0.0449473
-0.030273
-0.00953943
-0.00340311
0.00977256
0.00589996
-0.0617372
-0.0839433
-0.10502
-0.11868
-0.119246
-0.107379
-0.0877281
-0.0665318
-0.0478655
-0.0321298
-0.0211031
-0.0122937
-0.00697669
-0.00235773
-0.00120942
-0.0028579
-0.0104052
-0.0230604
-0.0386958
-0.0561162
-0.0653582
-0.0695871
-0.0600473
-0.0454695
-0.0305352
-0.00951138
-0.00326243
0.00999213
0.00612099
-0.0612571
-0.0837925
-0.105277
-0.11933
-0.120118
-0.108261
-0.088407
-0.0669176
-0.0479716
-0.0319815
-0.0207664
-0.0117955
-0.00638426
-0.00168791
-0.000507642
-0.00219768
-0.00985528
-0.022763
-0.0386975
-0.0565109
-0.065994
-0.0703963
-0.0607137
-0.045982
-0.030792
-0.00948354
-0.00312395
0.0102044
0.00633972
-0.0607469
-0.0836036
-0.105494
-0.119944
-0.120963
-0.109123
-0.0890729
-0.0672962
-0.0480748
-0.0318347
-0.0204353
-0.0113067
-0.00580366
-0.00103082
0.000184165
-0.00154316
-0.00930376
-0.0224579
-0.0386874
-0.0568921
-0.0666179
-0.0711936
-0.0613695
-0.0464845
-0.0310428
-0.00945576
-0.00298753
0.0104094
0.00655617
-0.0602071
-0.0833761
-0.105667
-0.120515
-0.121765
-0.109956
-0.0897215
-0.0676677
-0.0481782
-0.0316932
-0.0201147
-0.0108327
-0.00524042
-0.000391321
0.000862868
-0.000896247
-0.00875141
-0.0221454
-0.038665
-0.0572588
-0.0672282
-0.0719768
-0.0620128
-0.0469761
-0.0312882
-0.00942802
-0.00285443
0.0106068
0.00677015
-0.0596293
-0.0830904
-0.105766
-0.121005
-0.122483
-0.110742
-0.0903566
-0.0680477
-0.0483006
-0.0315741
-0.0198212
-0.0103904
-0.00471244
0.000212609
0.00151521
-0.000265619
-0.00820146
-0.0218242
-0.0386255
-0.0576031
-0.0678159
-0.0727387
-0.0626399
-0.0474568
-0.0315315
-0.00940171
-0.00272818
0.0107957
0.00698118
-0.0589997
-0.0827251
-0.105771
-0.121411
-0.12313
-0.111525
-0.0910184
-0.0684626
-0.0484537
-0.0314786
-0.0195465
-0.00996601
-0.00420398
0.000793753
0.00214834
0.000352097
-0.00765138
-0.0214911
-0.0385652
-0.0579222
-0.0683828
-0.0734854
-0.0632598
-0.0479334
-0.0317748
-0.00937948
-0.00260496
0.010976
0.00719022
-0.05842
-0.0825065
-0.106021
-0.122132
-0.124126
-0.112507
-0.0917419
-0.0688387
-0.048516
-0.0312816
-0.0191477
-0.00940142
-0.00353622
0.00153711
0.00290617
0.00105602
-0.00705997
-0.0211549
-0.0385364
-0.0583007
-0.0690247
-0.0742945
-0.063918
-0.0484169
-0.0319947
-0.00935526
-0.00244864
0.0111553
0.00740395
-0.0832223
-0.108241
-0.125425
-0.127963
-0.115345
-0.0934316
-0.0694514
-0.048331
-0.0305398
-0.0179162
-0.00774225
-0.00154689
0.00377757
0.00509921
0.0030171
-0.00556517
-0.0204425
-0.0386966
-0.0594774
-0.0707655
-0.0762829
-0.0654541
-0.0494519
-0.0323831
-0.009287
-0.00201627
0.0115441
0.00786394
-0.0830414
-0.108992
-0.126898
-0.129591
-0.116927
-0.0942713
-0.0694393
-0.0476529
-0.0293818
-0.0164051
-0.00598868
0.000326879
0.00575328
0.00706319
0.00487674
-0.00405372
-0.0196345
-0.0387276
-0.0606837
-0.0726269
-0.0784825
-0.0672257
-0.0505935
-0.0328154
-0.00914731
-0.00150485
0.0120261
0.00842336
-0.0824069
-0.109071
-0.127727
-0.13097
-0.118114
-0.0948333
-0.0692382
-0.046853
-0.0281629
-0.0148969
-0.00428665
0.002103
0.00761361
0.00886828
0.00657743
-0.00264492
-0.0188287
-0.0386435
-0.0617319
-0.0743084
-0.0805331
-0.0688591
-0.0515943
-0.0331774
-0.008977
-0.00102766
0.0124542
0.00892821
-0.0815738
-0.109029
-0.128474
-0.1321
-0.119
-0.0951285
-0.0688272
-0.0459098
-0.0268634
-0.0133635
-0.00259115
0.00386641
0.00946408
0.010688
0.00832002
-0.00116789
-0.0179429
-0.0384799
-0.0627143
-0.0759428
-0.0824909
-0.0703831
-0.0524614
-0.0334576
-0.00877448
-0.000571913
0.0128239
0.00939156
-0.0805315
-0.108743
-0.128845
-0.132697
-0.119437
-0.0950707
-0.0681717
-0.0448133
-0.025484
-0.0118137
-0.000926975
0.00556342
0.0112208
0.0124464
0.0100381
0.000334726
-0.0169947
-0.038233
-0.0635877
-0.0774653
-0.0842806
-0.0717551
-0.0531667
-0.0336427
-0.00853939
-0.000140643
0.0131258
0.00980635
-0.0791819
-0.10801
-0.128642
-0.132724
-0.119369
-0.0946295
-0.0672592
-0.0435607
-0.0240272
-0.0102517
0.000697935
0.00717809
0.0128688
0.0141019
0.0116789
0.00181954
-0.0159997
-0.0378802
-0.0642983
-0.0788144
-0.0858645
-0.0729493
-0.0536951
-0.0337231
-0.00827163
0.000266297
0.0133546
0.0101679
-0.0774626
-0.106759
-0.127834
-0.132154
-0.118764
-0.0937801
-0.0660773
-0.0421498
-0.0224953
-0.00868048
0.00228076
0.00871014
0.0144087
0.0156479
0.0132319
0.00327739
-0.0149566
-0.0374023
-0.0648158
-0.0799586
-0.0872164
-0.0739439
-0.054034
-0.0336895
-0.00797079
0.000650473
0.013506
0.0104743
-0.0753628
-0.104987
-0.12641
-0.130946
-0.117586
-0.0924986
-0.0646157
-0.0405797
-0.0208922
-0.00710357
0.00381878
0.0101589
0.0158375
0.0170836
0.0146962
0.00470878
-0.0138611
-0.0367884
-0.0651192
-0.0808698
-0.088305
-0.0747147
-0.0541708
-0.0335329
-0.00763654
0.00101369
0.0135767
0.0107244
-0.0728906
-0.102691
-0.124342
-0.129064
-0.115806
-0.0907653
-0.0628664
-0.0388514
-0.0192225
-0.00552531
0.00530894
0.0115232
0.0171519
0.0184067
0.0160678
0.00611086
-0.0127126
-0.0360303
-0.065185
-0.0815131
-0.0890948
-0.0752356
-0.0540936
-0.0332451
-0.0072688
0.0013579
0.0135636
0.010917
-0.0700502
-0.0998538
-0.121602
-0.126481
-0.113404
-0.0885661
-0.0608249
-0.0369679
-0.0174926
-0.00395087
0.00674799
0.0128021
0.0183498
0.0196137
0.0173407
0.00747769
-0.0115125
-0.0351192
-0.0649858
-0.08185
-0.0895487
-0.0754794
-0.0537916
-0.032819
-0.00686783
0.00168514
0.0134649
0.0110513
-0.0668436
-0.0964652
-0.118174
-0.12318
-0.110366
-0.0858936
-0.0584905
-0.0349341
-0.0157099
-0.00238623
0.00813251
0.0139955
0.0194298
0.0207021
0.0185089
0.00880256
-0.0102625
-0.034046
-0.0644934
-0.0818412
-0.0896283
-0.0754184
-0.0532557
-0.032249
-0.0064344
0.00199742
0.0132799
0.0111273
-0.0632794
-0.0925253
-0.114054
-0.119155
-0.10669
-0.0827482
-0.055867
-0.0327574
-0.013883
-0.000838168
0.00945879
0.0151036
0.0203917
0.0216704
0.0195673
0.0100786
-0.00896507
-0.0328034
-0.0636813
-0.0814477
-0.0892956
-0.075025
-0.0524784
-0.0315314
-0.00596992
0.00229652
0.0130093
0.0111453
-0.0593755
-0.0880458
-0.109249
-0.114413
-0.102384
-0.0791389
-0.0529635
-0.0304475
-0.0120218
0.000685863
0.0107228
0.0161266
0.021236
0.022518
0.0205116
0.0112987
-0.00762375
-0.0313862
-0.0625258
-0.0806326
-0.0885142
-0.0742727
-0.0514545
-0.0306643
-0.0054766
0.0025838
0.0126551
0.0111066
-0.0551587
-0.0830488
-0.10378
-0.108973
-0.0974691
-0.0750848
-0.0497949
-0.0280164
-0.010137
0.00217785
0.0119201
0.0170653
0.0219643
0.0232449
0.021338
0.012455
-0.00624369
-0.0297927
-0.0610069
-0.0793629
-0.0872511
-0.0731374
-0.0501814
-0.0296483
-0.00495762
0.00285999
0.0122215
0.0110129
-0.0506636
-0.0775679
-0.09768
-0.102872
-0.0919815
-0.0706151
-0.0463822
-0.0254787
-0.00824037
0.00362947
0.0130458
0.01792
0.0225792
0.0238523
0.0220438
0.0135394
-0.00483164
-0.0280243
-0.0591104
-0.0776116
-0.0854792
-0.0715989
-0.0486595
-0.0284865
-0.0044172
0.00312488
0.0117145
0.0108668
-0.0459324
-0.0716489
-0.090998
-0.0961615
-0.0859708
-0.0657698
-0.0427525
-0.0228516
-0.00634393
0.00503232
0.0140951
0.0186912
0.0230838
0.024342
0.0226273
0.0145433
-0.00339602
-0.0260867
-0.0568292
-0.0753602
-0.08318
-0.0696426
-0.0468926
-0.0271847
-0.00386068
0.0033772
0.0111422
0.0106714
-0.0410154
-0.0653506
-0.0837999
-0.0889104
-0.0795011
-0.0605997
-0.0389396
-0.0201545
-0.00446014
0.00637828
0.0150626
0.0193787
0.0234823
0.0247167
0.0230875
0.015458
-0.00194703
-0.0239903
-0.0541656
-0.0726008
-0.0803448
-0.0672616
-0.0448888
-0.0257518
-0.00329451
0.00361446
0.0105148
0.0104304
-0.0359702
-0.0587448
-0.0761679
-0.0812032
-0.0726501
-0.0551656
-0.0349831
-0.0174092
-0.00260142
0.00765983
0.0159435
0.0199822
0.0237795
0.0249797
0.0234253
0.0162748
-0.000496685
-0.0217501
-0.051132
-0.0693387
-0.0769772
-0.0644574
-0.0426601
-0.0241992
-0.00272606
0.00383294
0.00984503
0.0101477
-0.0308602
-0.0519156
-0.0682006
-0.0731404
-0.0655081
-0.049537
-0.0309277
-0.0146394
-0.000779902
0.00887041
0.0167333
0.0205008
0.0239805
0.0251346
0.0236423
0.0169856
0.000941314
-0.0193866
-0.0477521
-0.0655945
-0.0730957
-0.0612414
-0.0402232
-0.0225414
-0.00216349
0.00402789
0.00914724
0.00982701
-0.0257526
-0.0449582
-0.0600108
-0.0648371
-0.0581774
-0.043791
-0.0268223
-0.0118705
0.000992817
0.0100047
0.0174287
0.0209334
0.0240912
0.025186
0.0237418
0.0175826
0.00235178
-0.0169251
-0.0440612
-0.0614042
-0.0687349
-0.0576375
-0.0375999
-0.0207954
-0.00161535
0.00419387
0.00843751
0.0094721
-0.0207165
-0.0379755
-0.051724
-0.0564221
-0.0507691
-0.0380096
-0.0227185
-0.0091289
0.0027059
0.0110589
0.0180275
0.021279
0.0241174
0.0251385
0.0237284
0.0180595
0.00371845
-0.0143955
-0.0401064
-0.0568184
-0.0639453
-0.0536835
-0.0348168
-0.0189804
-0.00109015
0.0043254
0.00773278
0.00908606
-0.0158202
-0.0310763
-0.0434753
-0.0480329
-0.0433998
-0.032277
-0.0186686
-0.00644134
0.00434946
0.0120308
0.0185296
0.0215373
0.0240654
0.0249962
0.0236084
0.0184117
0.00502461
-0.0118317
-0.0359451
-0.0519034
-0.058794
-0.0494286
-0.0319056
-0.0171178
-0.000595832
0.0044177
0.00704996
0.00867138
-0.0111285
-0.0243708
-0.0354043
-0.0398098
-0.0361866
-0.0266764
-0.0147233
-0.00383401
0.00591465
0.0129199
0.0189367
0.0217089
0.0239413
0.0247679
0.0233893
0.0186369
0.00625389
-0.00927071
-0.0316441
-0.0467406
-0.0533618
-0.0449328
-0.0289023
-0.0152305
-0.000139235
0.00446763
0.00640487
0.00822992
-0.00669926
-0.0179657
-0.0276494
-0.0318916
-0.0292414
-0.0212858
-0.0109302
-0.00133162
0.00739382
0.0137272
0.0192529
0.0217964
0.0237516
0.0244595
0.0230807
0.0187363
0.00739124
-0.00675106
-0.0272771
-0.0414214
-0.047741
-0.0402678
-0.0258467
-0.0133425
0.000274513
0.00447441
0.00581123
0.00776314
-0.0025806
-0.0119584
-0.02034
-0.0244077
-0.0226673
-0.016175
-0.00733097
0.00104362
0.00878053
0.0144551
0.0194844
0.0218043
0.0235031
0.02408
0.0226942
0.0187152
0.00842404
-0.00431172
-0.0229228
-0.0360447
-0.0420331
-0.0355144
-0.0227818
-0.0114782
0.00064247
0.00444018
0.00527948
0.00727254
0.00119215
-0.00643151
-0.0135892
-0.0174721
-0.0165532
-0.0114026
-0.00396001
0.00327292
0.0100697
0.0151068
0.0196392
0.0217396
0.0232032
0.0236403
0.0222437
0.0185837
0.00934332
-0.00199049
-0.0186612
-0.030713
-0.0363464
-0.0307592
-0.0197521
-0.00966215
0.00096419
0.00437015
0.00481593
0.00676018
0.00459884
-0.00144707
-0.0074868
-0.0111756
-0.0109673
-0.00701229
-0.000842879
0.00534169
0.0112575
0.0156863
0.0197269
0.0216115
0.0228603
0.0231531
0.0217458
0.0183578
0.0101446
0.000177511
-0.0145709
-0.0255289
-0.030789
-0.0260911
-0.0168023
-0.00791774
0.0012418
0.00427227
0.00442223
0.00622933
0.00763595
0.00295719
-0.00209351
-0.0055786
-0.00595302
-0.00303177
0.00200425
0.00723996
0.0123416
0.0161978
0.0197579
0.0214309
0.0224837
0.0226327
0.0212189
0.0180584
0.0108281
0.00216164
-0.0107253
-0.0205898
-0.0254644
-0.021597
-0.0139752
-0.00626662
0.00147976
0.00415621
0.00409562
0.00568481
0.0103157
0.00677022
0.0025641
-0.00070715
-0.00152747
0.000528014
0.00457452
0.00896255
0.0133212
0.0166456
0.0197427
0.0212091
0.0220837
0.0220943
0.020682
0.0177103
0.0113986
0.00393714
-0.00718908
-0.0159831
-0.0204669
-0.0173577
-0.0113098
-0.0047277
0.00168436
0.0040321
0.00382942
0.00513327
0.0126612
0.0100068
0.00649593
0.00344874
0.00231741
0.0036716
0.00686956
0.0105088
0.014197
0.0170336
0.0196915
0.0209576
0.0216701
0.0215524
0.0201528
0.0173395
0.011864
0.00548649
-0.00401392
-0.0117803
-0.015875
-0.0134432
-0.00883948
-0.00331631
0.00186293
0.00390925
0.003614
0.00458304
0.0146977
0.0127025
0.00974602
0.00693053
0.0055733
0.00641746
0.008898
0.0118819
0.014971
0.0173655
0.0196135
0.0206867
0.0212524
0.0210196
0.0196467
0.0169696
0.0122338
0.00680099
-0.00123453
-0.0080328
-0.0117476
-0.00990864
-0.00659003
-0.00204324
0.00202295
0.00379492
0.00343792
0.00404371
0.0164441
0.0149066
0.0123847
0.00980849
0.00837093
0.00879495
0.0106736
0.0130884
0.0156467
0.0176446
0.0195164
0.0204052
0.0208387
0.0205058
0.0191724
0.0166182
0.0125178
0.00788231
0.00113468
-0.00476825
-0.00811985
-0.00678997
-0.00457812
-0.000914082
0.00217113
0.00369356
0.00328935
0.00352535
0.0179111
0.0166752
0.0144962
0.0121648
0.0107199
0.0108315
0.0122128
0.0141374
0.016229
0.0178742
0.0194061
0.0201203
0.020435
0.020017
0.0187331
0.0162965
0.0127266
0.00874385
0.00310148
-0.00198951
-0.00500205
-0.00410338
-0.00281011
7.11025e-05
0.00231266
0.00360653
0.00315737
0.00303765
0.0191073
0.018067
0.0161674
0.0140791
0.0126756
0.01256
0.0135343
0.0150395
0.0167235
0.0180576
0.0192871
0.0198373
0.020045
0.0195564
0.0183277
0.0160089
0.0128719
0.0094109
0.00469513
0.000324861
-0.00237944
-0.00184272
-0.00128255
0.000917596
0.0024508
0.00353239
0.00303319
0.00258894
0.0200478
0.0191402
0.0174777
0.0156226
0.0142905
0.0140144
0.0146577
0.0158065
0.0171371
0.018198
0.0191622
0.01956
0.019671
0.0191246
0.0179525
0.0157555
0.0129674
0.00991824
0.0059621
0.00221641
-0.00021578
2.14114e-05
1.63551e-05
0.00163526
0.002587
0.00346762
0.0029109
0.00218562
0.0207587
0.0199503
0.0184948
0.0168581
0.0156118
0.0152241
0.0156022
0.0164507
0.0174767
0.0182991
0.0190331
0.0192909
0.019314
0.0187209
0.0176029
0.0155335
0.013028
0.0103047
0.00695836
0.00373975
0.00154018
0.00152781
0.00110498
0.00223717
0.00272125
0.00340781
0.00278767
0.00183171
0.0212743
0.0205474
0.0192742
0.0178369
0.0166806
0.0162184
0.016387
0.0169845
0.0177498
0.0183646
0.0189005
0.0190313
0.018974
0.0183436
0.017275
0.0153381
0.0130664
0.010606