/*--------------------------------*- C++ -*----------------------------------*\
  =========                 |
  \\      /  F ield         | OpenFOAM: The Open Source CFD Toolbox
   \\    /   O peration     | Website:  https://openfoam.org
    \\  /    A nd           | Version:  7
     \\/     M anipulation  |
\*---------------------------------------------------------------------------*/
FoamFile
{
    version     2.0;
    format      ascii;
    class       volVectorField;
    location    "200";
    object      U;
}
// * * * * * * * * * * * * * * * * * * * * * * * * * * * * * * * * * * * * * //

dimensions      [0 1 -1 0 0 0 0];

internalField   nonuniform List<vector> 
7158
(
(0.792795 0.391594 -3.78249e-23)
(0.771742 0.330838 -3.81859e-23)
(0.756125 0.229915 -7.285e-23)
(0.75075 0.10093 -4.14204e-23)
(0.757089 -0.0354161 4.89081e-23)
(0.772373 -0.156402 -7.85298e-24)
(0.787784 -0.253667 -6.43083e-23)
(0.795607 -0.320094 -3.81857e-23)
(0.792723 -0.36063 -1.29834e-23)
(0.783252 -0.360771 5.76897e-23)
(0.770594 -0.322884 -4.29761e-23)
(0.760686 -0.238897 2.37048e-23)
(0.75518 -0.124974 3.24634e-23)
(0.757859 0.00217533 7.75019e-23)
(0.763389 0.130856 2.67831e-24)
(0.769084 0.227092 5.61665e-23)
(0.768858 0.308678 5.17152e-23)
(0.767578 0.322406 1.15434e-23)
(0.761245 0.311952 -9.01132e-24)
(0.757289 0.229694 -3.6537e-23)
(0.74929 0.12347 -2.88616e-23)
(0.74829 0.00216 -1.50224e-23)
(0.742721 -0.147934 2.48126e-23)
(0.744483 -0.210007 -2.68899e-23)
(0.738079 -0.313013 1.62618e-23)
(0.740341 -0.256583 1.42337e-23)
(0.728998 -0.228347 1.91321e-23)
(0.725917 -0.119714 -3.88985e-25)
(0.70724 0.0746977 1.26224e-23)
(0.793237 0.392909 3.75229e-24)
(0.772366 0.332003 -2.04079e-22)
(0.756782 0.230606 7.71391e-23)
(0.751295 0.100961 1.67512e-22)
(0.757499 -0.0359992 3.45871e-23)
(0.772713 -0.157253 -7.11957e-24)
(0.788132 -0.254305 1.79898e-22)
(0.795901 -0.320217 1.8714e-22)
(0.792863 -0.36028 1.29343e-22)
(0.783226 -0.360171 -7.56559e-23)
(0.770479 -0.322294 -1.04049e-22)
(0.760621 -0.238515 1.40429e-22)
(0.755162 -0.124929 -4.60705e-23)
(0.757851 0.00193777 1.89738e-23)
(0.763306 0.130551 -1.22461e-22)
(0.769016 0.226934 -7.66399e-23)
(0.768944 0.308703 -5.46628e-23)
(0.76783 0.322581 -4.48283e-23)
(0.761614 0.312203 1.45888e-22)
(0.757609 0.229983 -5.55978e-23)
(0.749588 0.123694 3.03711e-23)
(0.748567 0.00231981 1.57067e-22)
(0.742858 -0.147831 -8.04011e-23)
(0.744515 -0.209903 1.0226e-22)
(0.737736 -0.31291 4.19107e-23)
(0.740013 -0.256402 2.77556e-23)
(0.728642 -0.228039 2.24225e-23)
(0.725665 -0.11929 2.17347e-23)
(0.707611 0.0750775 8.86168e-24)
(0.793765 0.394229 8.84923e-23)
(0.773079 0.333196 2.20012e-22)
(0.757527 0.231347 5.90343e-23)
(0.751921 0.101054 -1.86289e-22)
(0.757981 -0.0365266 3.97265e-22)
(0.773117 -0.158063 1.826e-22)
(0.788543 -0.254914 -7.61913e-23)
(0.796261 -0.320317 -4.13729e-22)
(0.793069 -0.359915 -1.82761e-22)
(0.783264 -0.359571 -8.39092e-23)
(0.770426 -0.32172 1.4618e-22)
(0.760611 -0.238162 -4.04292e-22)
(0.755195 -0.124913 1.85492e-22)
(0.757895 0.00167302 -1.38968e-22)
(0.763279 0.130223 3.52539e-22)
(0.769009 0.226754 -9.70578e-24)
(0.769089 0.308712 1.2359e-22)
(0.768139 0.32275 7.0135e-23)
(0.762035 0.312459 -1.31604e-22)
(0.757977 0.230287 -2.56162e-23)
(0.749933 0.123932 -1.17166e-22)
(0.748897 0.00249722 -9.36877e-23)
(0.743054 -0.147713 9.7055e-23)
(0.744608 -0.209782 9.66726e-24)
(0.73745 -0.312798 -6.61344e-23)
(0.739737 -0.256223 -4.2984e-23)
(0.728335 -0.227735 -2.91029e-23)
(0.725468 -0.118884 -2.78217e-23)
(0.70804 0.0754432 -2.73761e-23)
(0.794379 0.395551 1.10283e-22)
(0.773881 0.334419 -1.98816e-22)
(0.758361 0.23214 3.14939e-22)
(0.752631 0.101209 2.32145e-22)
(0.758538 -0.0369975 -5.98974e-22)
(0.773586 -0.158831 -8.76989e-23)
(0.789016 -0.255494 1.93459e-22)
(0.796686 -0.320395 4.5782e-22)
(0.793342 -0.359536 -4.75362e-23)
(0.783367 -0.35897 1.0818e-22)
(0.770432 -0.321161 1.20133e-22)
(0.760657 -0.237835 1.96546e-22)
(0.75528 -0.124928 6.6024e-23)
(0.75799 0.00138124 7.89864e-23)
(0.763306 0.129874 -2.41592e-22)
(0.769062 0.226553 -4.13161e-23)
(0.769296 0.308704 9.54601e-23)
(0.768505 0.322912 -6.80578e-23)
(0.762505 0.312721 7.21273e-23)
(0.758393 0.230605 -1.68125e-22)
(0.750325 0.124184 7.60611e-23)
(0.749281 0.00269181 1.66666e-22)
(0.743309 -0.14758 1.23231e-22)
(0.744764 -0.209645 -3.20377e-22)
(0.737223 -0.312675 -1.27922e-22)
(0.739515 -0.256046 -1.91765e-23)
(0.728079 -0.227434 -1.6171e-23)
(0.725327 -0.118496 -1.18272e-23)
(0.708527 0.0757947 -4.12717e-23)
(0.795079 0.396877 -3.04656e-22)
(0.774774 0.33567 1.22377e-22)
(0.759284 0.232984 -4.87545e-22)
(0.753427 0.101427 3.21401e-22)
(0.759169 -0.0374109 9.62013e-23)
(0.774121 -0.159557 -9.74701e-23)
(0.789552 -0.256046 -1.83837e-22)
(0.797176 -0.320451 1.33625e-23)
(0.79368 -0.359142 1.3037e-22)
(0.783533 -0.358367 -1.81393e-22)
(0.770498 -0.320617 -1.34703e-22)
(0.760758 -0.237536 -1.36446e-22)
(0.755415 -0.124972 1.86847e-24)
(0.758135 0.00106237 -5.72772e-23)
(0.763387 0.129501 4.89962e-22)
(0.769174 0.226331 -1.04341e-22)
(0.769561 0.30868 9.57344e-24)
(0.768926 0.323068 1.14764e-22)
(0.763027 0.312987 -2.85667e-22)
(0.758857 0.230938 -6.08644e-23)
(0.750765 0.12445 4.1595e-22)
(0.749718 0.00290339 4.93736e-23)
(0.743623 -0.147433 1.46753e-22)
(0.744982 -0.209492 4.30326e-22)
(0.737053 -0.312542 1.32173e-22)
(0.739345 -0.255871 5.65036e-23)
(0.727871 -0.227137 7.31497e-23)
(0.72524 -0.118125 2.68341e-23)
(0.70907 0.0761319 6.67191e-23)
(0.795865 0.398204 1.41096e-22)
(0.775757 0.33695 5.59126e-22)
(0.760298 0.233881 -3.24604e-23)
(0.754308 0.101708 -6.31515e-22)
(0.759878 -0.0377659 9.59983e-22)
(0.774723 -0.16024 -9.35901e-22)
(0.790151 -0.256569 2.25512e-22)
(0.797731 -0.320486 -5.00159e-22)
(0.794085 -0.358735 -2.67482e-22)
(0.783763 -0.357762 -6.84525e-23)
(0.770623 -0.320087 -1.6778e-22)
(0.760912 -0.237264 -3.73066e-22)
(0.7556 -0.125046 -5.76088e-22)
(0.75833 0.00071647 -2.75457e-22)
(0.763521 0.129107 -3.87671e-22)
(0.769345 0.226086 3.28697e-22)
(0.769887 0.308639 -3.37196e-22)
(0.769404 0.323217 -1.05114e-22)
(0.763599 0.313259 3.13335e-22)
(0.75937 0.231285 -7.02938e-23)
(0.751253 0.124729 -4.83758e-22)
(0.75021 0.00313166 -1.80646e-23)
(0.743996 -0.147272 -4.33557e-22)
(0.745262 -0.209322 -2.32835e-22)
(0.736943 -0.312399 -1.50851e-22)
(0.739227 -0.255697 -2.13571e-23)
(0.727714 -0.226844 -7.56979e-23)
(0.725207 -0.117774 -1.3128e-24)
(0.709669 0.0764548 -2.15326e-23)
(0.796737 0.399533 -2.25248e-23)
(0.77683 0.338258 -6.11571e-22)
(0.761403 0.234831 -7.3478e-22)
(0.755276 0.102054 1.00389e-21)
(0.760664 -0.0380616 -1.63322e-21)
(0.775391 -0.160879 1.43833e-21)
(0.790812 -0.257064 -5.06719e-22)
(0.798352 -0.3205 6.26058e-22)
(0.794557 -0.358313 -1.53429e-23)
(0.784056 -0.357157 5.48965e-23)
(0.770805 -0.319572 -3.04696e-22)
(0.761118 -0.237018 -5.4002e-23)
(0.755833 -0.125149 -8.91743e-23)
(0.758573 0.00034354 1.57623e-22)
(0.763708 0.128689 -4.12697e-22)
(0.769574 0.225819 -4.31522e-22)
(0.770271 0.308582 1.63811e-22)
(0.769937 0.323359 3.03207e-23)
(0.764221 0.313537 -1.27194e-22)
(0.759931 0.231646 3.56731e-22)
(0.751788 0.125022 -2.78188e-22)
(0.750755 0.0033764 -2.95549e-22)
(0.744429 -0.147097 2.07466e-22)
(0.745605 -0.209136 2.00871e-22)
(0.736892 -0.312245 4.20568e-22)
(0.739163 -0.255524 -9.63658e-23)
(0.727607 -0.226554 1.83677e-22)
(0.725229 -0.11744 -1.23161e-24)
(0.710324 0.0767634 1.91479e-23)
(0.797695 0.400862 -2.36067e-23)
(0.777994 0.339594 2.0986e-22)
(0.7626 0.235834 5.55228e-22)
(0.756332 0.102466 -1.08263e-21)
(0.761528 -0.0382969 1.20257e-21)
(0.776128 -0.161475 -7.85966e-22)
(0.791538 -0.257531 3.59155e-22)
(0.799038 -0.320493 -5.4063e-22)
(0.795094 -0.357879 6.23851e-22)
(0.784412 -0.356549 5.1243e-22)
(0.771045 -0.319071 8.99749e-22)
(0.761376 -0.236797 2.50007e-22)
(0.756114 -0.125281 6.39527e-22)
(0.758865 -5.64062e-05 3.55681e-22)
(0.763948 0.128248 5.60338e-22)
(0.76986 0.22553 3.52601e-22)
(0.770713 0.308508 -1.09478e-22)
(0.770525 0.323496 1.08027e-22)
(0.764895 0.31382 -4.62228e-23)
(0.760541 0.232021 -8.02223e-22)
(0.752371 0.125328 5.1351e-22)
(0.751355 0.00363714 -4.58453e-22)
(0.744921 -0.146908 -5.45991e-22)
(0.746012 -0.208933 -4.80937e-22)
(0.7369 -0.31208 -3.09578e-22)
(0.73915 -0.255352 1.50257e-22)
(0.727549 -0.226267 -2.60026e-22)
(0.725303 -0.117125 2.8696e-24)
(0.711034 0.0770576 4.42563e-23)
(0.798738 0.402191 -4.33869e-22)
(0.779249 0.340958 -4.64712e-22)
(0.763889 0.236889 -1.33654e-22)
(0.757478 0.102943 4.61577e-22)
(0.762473 -0.038471 -2.45923e-22)
(0.776933 -0.162027 3.9219e-22)
(0.792326 -0.257969 -7.81144e-22)
(0.79979 -0.320467 7.31669e-22)
(0.795697 -0.35743 1.02735e-22)
(0.78483 -0.35594 -3.17676e-22)
(0.771342 -0.318584 -5.63096e-22)
(0.761684 -0.236603 1.3328e-22)
(0.756442 -0.125441 -4.89204e-22)
(0.759203 -0.000483358 -2.35471e-22)
(0.764239 0.127784 -6.21316e-22)
(0.770204 0.225218 9.72717e-23)
(0.771214 0.308418 -5.32156e-23)
(0.771169 0.323626 2.32572e-23)
(0.765618 0.314108 -2.58653e-22)
(0.761199 0.232412 6.76426e-22)
(0.753002 0.125647 3.36661e-22)
(0.752009 0.00391359 4.37353e-23)
(0.745473 -0.146706 5.96121e-22)
(0.746482 -0.208714 1.87986e-22)
(0.736968 -0.311904 1.42362e-22)
(0.739191 -0.255182 -1.29038e-22)
(0.727541 -0.225984 2.80822e-23)
(0.725431 -0.116828 -1.60926e-23)
(0.711799 0.0773374 -8.85945e-23)
(0.799865 0.403519 -3.96488e-22)
(0.780594 0.34235 -2.30961e-23)
(0.76527 0.237998 4.03197e-22)
(0.758713 0.103487 3.04512e-22)
(0.763498 -0.0385828 -4.96195e-22)
(0.777807 -0.162533 2.74734e-22)
(0.793178 -0.25838 9.313e-22)
(0.800607 -0.32042 -4.74091e-22)
(0.796366 -0.356968 -2.59792e-22)
(0.78531 -0.355329 -1.84854e-22)
(0.771694 -0.318109 5.82652e-22)
(0.762042 -0.236433 -2.33187e-22)
(0.756815 -0.12563 3.381e-22)
(0.759588 -0.000937305 9.65961e-23)
(0.764581 0.127296 -4.83877e-22)
(0.770604 0.224883 5.95437e-22)
(0.771771 0.308312 2.08106e-22)
(0.771867 0.32375 -3.39906e-23)
(0.766393 0.314402 3.33184e-22)
(0.761907 0.232816 -3.88997e-22)
(0.75368 0.125979 -8.76905e-22)
(0.752717 0.00420558 9.73532e-22)
(0.746086 -0.14649 -2.93991e-22)
(0.747015 -0.208479 4.11125e-22)
(0.737097 -0.311717 1.7099e-22)
(0.739283 -0.255012 9.63399e-23)
(0.727583 -0.225705 4.55184e-23)
(0.72561 -0.11655 -1.43337e-25)
(0.712618 0.0776027 -1.97368e-25)
(0.801077 0.404844 -4.7835e-22)
(0.782029 0.343768 5.56453e-22)
(0.766744 0.23916 9.29576e-22)
(0.760038 0.104098 2.55271e-22)
(0.764606 -0.0386316 -1.12759e-21)
(0.778752 -0.162993 -2.49403e-22)
(0.794094 -0.258762 -1.67975e-22)
(0.801489 -0.320355 1.69575e-22)
(0.797101 -0.356493 -5.15656e-22)
(0.785852 -0.354715 6.76774e-22)
(0.772102 -0.317648 1.52349e-22)
(0.762449 -0.236288 1.2418e-21)
(0.757233 -0.125847 5.06432e-22)
(0.760018 -0.00141824 8.38393e-23)
(0.764973 0.126785 3.77183e-22)
(0.77106 0.224526 -3.42469e-22)
(0.772386 0.308189 -5.81532e-22)
(0.77262 0.323868 1.593e-22)
(0.767217 0.314702 4.20006e-22)
(0.762665 0.233235 1.17362e-21)
(0.754406 0.126324 4.10332e-23)
(0.75348 0.00451276 -7.80632e-22)
(0.746758 -0.146261 4.41741e-22)
(0.747613 -0.208227 -8.25443e-22)
(0.737286 -0.311518 -3.29733e-22)
(0.739428 -0.254842 6.21155e-23)
(0.727675 -0.22543 -1.84024e-22)
(0.725842 -0.116291 3.59455e-24)
(0.713489 0.0778534 4.01134e-23)
(0.802373 0.406166 7.9777e-22)
(0.783554 0.345212 -9.71547e-22)
(0.768311 0.240376 -4.72806e-22)
(0.761455 0.104777 -1.61121e-21)
(0.765796 -0.0386162 1.80869e-21)
(0.779767 -0.163408 -7.12176e-22)
(0.795073 -0.259117 -6.15681e-22)
(0.802436 -0.32027 3.00941e-22)
(0.797901 -0.356005 4.51372e-22)
(0.786454 -0.354098 -1.07299e-22)
(0.772564 -0.317198 -2.79595e-22)
(0.762903 -0.236167 -1.20481e-21)
(0.757694 -0.126091 -1.27664e-21)
(0.760493 -0.00192613 -4.51312e-22)
(0.765414 0.12625 -3.5571e-22)
(0.771571 0.224145 -1.17451e-22)
(0.773056 0.308049 -3.81131e-22)
(0.773428 0.323981 6.10954e-22)
(0.768092 0.315008 3.00164e-23)
(0.763471 0.233669 -2.54849e-22)
(0.75518 0.126681 5.21466e-22)
(0.754296 0.00483478 3.25788e-22)
(0.74749 -0.14602 7.40401e-23)
(0.748274 -0.207959 6.38033e-22)
(0.737536 -0.311308 4.07616e-23)
(0.739625 -0.254673 -7.15932e-24)
(0.727816 -0.225159 2.066e-22)
(0.726125 -0.116051 6.95302e-25)
(0.714414 0.0780897 -4.13746e-23)
(0.803751 0.407484 4.55736e-22)
(0.785169 0.346682 -3.30229e-22)
(0.769971 0.241644 1.67375e-21)
(0.762963 0.105524 4.8612e-22)
(0.767069 -0.0385359 -5.32375e-22)
(0.780853 -0.163774 1.607e-21)
(0.796116 -0.259444 2.11256e-21)
(0.803447 -0.320166 -3.18754e-22)
(0.798767 -0.355504 -8.20643e-22)
(0.787116 -0.353479 -4.57895e-22)
(0.773079 -0.31676 -6.5903e-22)
(0.763405 -0.23607 9.68429e-22)
(0.758199 -0.126363 1.20687e-21)
(0.761011 -0.00246084 -6.57656e-22)
(0.765905 0.12569 8.86704e-22)
(0.772135 0.223742 -1.32853e-22)
(0.773782 0.307893 3.60797e-22)
(0.774289 0.324087 -6.39972e-22)
(0.769018 0.315319 -5.53495e-22)
(0.764327 0.234116 -4.04651e-22)
(0.756002 0.127052 -8.38296e-22)
(0.755167 0.00517132 -5.68718e-22)
(0.748283 -0.145766 -2.42555e-22)
(0.749 -0.207675 -2.11043e-22)
(0.737847 -0.311085 3.11631e-22)
(0.739874 -0.254504 -1.15053e-22)
(0.728006 -0.224891 8.22051e-23)
(0.726459 -0.11583 -1.13723e-23)
(0.71539 0.0783113 3.39915e-23)
(0.805211 0.408796 -1.13137e-21)
(0.786872 0.348178 -5.09842e-23)
(0.771723 0.242966 -1.95266e-21)
(0.764563 0.106341 -4.07009e-22)
(0.768426 -0.0383897 9.93125e-22)
(0.78201 -0.164093 -2.88551e-21)
(0.797221 -0.259742 -2.49577e-21)
(0.804521 -0.320045 -2.37976e-22)
(0.799697 -0.35499 3.28835e-22)
(0.787838 -0.352857 6.88142e-22)
(0.773647 -0.316333 4.58501e-22)
(0.763951 -0.235995 -5.44447e-22)
(0.758745 -0.126662 -4.5081e-23)
(0.761572 -0.00302266 9.75296e-22)
(0.766443 0.125106 -6.65294e-22)
(0.772754 0.223314 -1.85994e-22)
(0.774563 0.30772 1.49325e-22)
(0.775203 0.324188 7.89293e-22)
(0.769994 0.315636 1.30624e-22)
(0.765233 0.234579 7.94272e-22)
(0.756872 0.127434 1.33091e-22)
(0.756091 0.00552205 3.38643e-22)
(0.749136 -0.1455 -4.1795e-22)
(0.74979 -0.207375 -2.02464e-22)
(0.73822 -0.310851 -4.81327e-22)
(0.740175 -0.254334 1.99614e-22)
(0.728246 -0.224627 -2.30991e-22)
(0.726843 -0.115627 4.17706e-23)
(0.716418 0.0785184 -5.32852e-23)
(0.806752 0.410101 -6.57611e-22)
(0.788663 0.349697 -9.064e-22)
(0.773568 0.24434 -2.15608e-21)
(0.766254 0.107226 -3.37776e-22)
(0.769869 -0.0381767 1.22682e-21)
(0.78324 -0.164364 1.69926e-21)
(0.79839 -0.260012 3.30414e-22)
(0.80566 -0.319905 -1.37475e-22)
(0.800692 -0.354463 -4.34572e-23)
(0.78862 -0.352231 -6.56468e-22)
(0.774267 -0.315917 -5.72219e-22)
(0.764543 -0.235943 6.91007e-22)
(0.759331 -0.126988 -6.39639e-22)
(0.762175 -0.00361159 -2.24475e-22)
(0.767028 0.124498 2.94701e-22)
(0.773425 0.222864 7.65993e-22)
(0.775398 0.307531 1.41816e-22)
(0.776171 0.324283 -9.68897e-22)
(0.77102 0.315959 -1.41407e-22)
(0.766189 0.235055 -5.43901e-22)
(0.757789 0.127829 -4.99999e-22)
(0.757069 0.00588663 4.79884e-23)
(0.750049 -0.145221 -2.50328e-22)
(0.750644 -0.207058 3.22235e-22)
(0.738655 -0.310603 5.75219e-22)
(0.740527 -0.254164 2.72689e-22)
(0.728535 -0.224366 -2.22348e-23)
(0.727276 -0.115443 -8.53304e-23)
(0.717497 0.0787108 1.83801e-23)
(0.808373 0.411399 2.07608e-21)
(0.790542 0.35124 1.45626e-21)
(0.775505 0.245767 2.75616e-21)
(0.768038 0.108181 1.78225e-21)
(0.771396 -0.0378961 1.60958e-22)
(0.784542 -0.164585 1.35892e-21)
(0.799622 -0.260254 -9.74379e-23)
(0.806861 -0.319747 9.87794e-23)
(0.80175 -0.353923 1.12224e-21)
(0.78946 -0.351601 1.06967e-21)
(0.774939 -0.315511 4.81772e-22)
(0.765179 -0.235913 -2.4188e-22)
(0.759958 -0.12734 4.31013e-22)
(0.762819 -0.00422726 9.69259e-23)
(0.76766 0.123864 4.49349e-22)
(0.774147 0.222389 -3.22314e-22)
(0.776286 0.307324 1.95111e-22)
(0.777192 0.324371 1.30065e-22)
(0.772096 0.316287 -1.27951e-22)
(0.767194 0.235546 4.69596e-22)
(0.758755 0.128236 1.97388e-21)
(0.7581 0.00626475 7.0868e-22)
(0.751022 -0.144932 -6.59612e-22)
(0.751563 -0.206726 -6.68155e-22)
(0.739151 -0.310344 -1.51698e-22)
(0.740931 -0.253993 -8.5283e-22)
(0.728873 -0.224109 2.60756e-22)
(0.727758 -0.115278 9.43008e-23)
(0.718625 0.0788886 3.8741e-23)
(0.810072 0.412688 3.53443e-22)
(0.792508 0.352805 -2.30709e-21)
(0.777533 0.247246 -3.09991e-22)
(0.769914 0.109206 -6.23068e-21)
(0.77301 -0.037547 -2.12011e-21)
(0.785918 -0.164755 -5.32631e-23)
(0.800917 -0.260467 1.03132e-21)
(0.808124 -0.319573 -1.57085e-21)
(0.802873 -0.353371 -1.05866e-21)
(0.790359 -0.350967 -6.37254e-23)
(0.775661 -0.315114 -4.56611e-22)
(0.765857 -0.235904 -1.17786e-21)
(0.760623 -0.127718 -2.16034e-22)
(0.763502 -0.00486972 3.70258e-22)
(0.768336 0.123206 -3.08211e-22)
(0.774921 0.22189 9.17862e-23)
(0.777228 0.307101 -4.0766e-22)
(0.778265 0.324454 8.13776e-22)
(0.773222 0.316621 -2.81206e-22)
(0.768249 0.236051 -1.56432e-21)
(0.759768 0.128655 -1.61924e-22)
(0.759185 0.00665608 -7.22586e-22)
(0.752054 -0.14463 4.3485e-22)
(0.752546 -0.206378 -5.28361e-22)
(0.73971 -0.310071 -1.64876e-22)
(0.741386 -0.253821 5.10165e-22)
(0.72926 -0.223856 -3.9855e-22)
(0.728289 -0.115133 -5.56016e-23)
(0.719802 0.0790518 -1.39714e-23)
(0.811848 0.413966 -5.75436e-22)
(0.794558 0.354392 2.81734e-21)
(0.779652 0.248777 1.6252e-22)
(0.771881 0.110301 1.34227e-21)
(0.774709 -0.0371287 1.31042e-21)
(0.787367 -0.164874 -2.43512e-21)
(0.802275 -0.260651 1.77604e-22)
(0.809449 -0.319381 6.39883e-22)
(0.804059 -0.352806 -7.04582e-22)
(0.791316 -0.350328 -1.03921e-21)
(0.776432 -0.314725 1.25063e-21)
(0.766578 -0.235916 1.71709e-22)
(0.761327 -0.128122 -6.00586e-22)
(0.764225 -0.00553912 3.6502e-23)
(0.769058 0.122523 -4.56468e-22)
(0.775744 0.221368 -2.42882e-22)
(0.778221 0.306861 1.48536e-22)
(0.77939 0.324531 1.11385e-22)
(0.774397 0.316961 -6.16164e-23)
(0.769355 0.23657 2.39386e-21)
(0.760828 0.129086 1.68075e-22)
(0.760323 0.00706026 -4.91305e-22)
(0.753147 -0.144318 4.22328e-22)
(0.753593 -0.206014 1.50315e-21)
(0.740332 -0.309785 -9.43368e-23)
(0.741893 -0.253648 -7.59502e-23)
(0.729695 -0.223606 1.12053e-22)
(0.728867 -0.115006 3.86781e-23)
(0.721029 0.0792003 3.41836e-24)
(0.8137 0.415233 -6.25943e-22)
(0.796693 0.355999 -1.48854e-21)
(0.78186 0.250358 7.67134e-22)
(0.773941 0.111466 2.74806e-21)
(0.776495 -0.0366403 2.42927e-21)
(0.788889 -0.164942 -1.76892e-22)
(0.803695 -0.260807 2.0753e-21)
(0.810836 -0.319172 -5.65921e-22)
(0.805308 -0.352229 1.2254e-21)
(0.792329 -0.349685 -5.21251e-22)
(0.777252 -0.314345 -2.07526e-22)
(0.767339 -0.235947 -2.4952e-22)
(0.762067 -0.128552 1.06964e-21)
(0.764985 -0.00623534 5.68144e-23)
(0.769822 0.121814 3.85132e-22)
(0.776617 0.220821 4.63547e-22)
(0.779266 0.306603 -3.87425e-22)
(0.780567 0.324602 -3.80763e-22)
(0.775623 0.317306 -7.87236e-22)
(0.77051 0.237104 -4.5995e-22)
(0.761937 0.129528 -3.14127e-21)
(0.761514 0.00747695 2.0066e-21)
(0.7543 -0.143995 -1.61563e-22)
(0.754704 -0.205635 -1.37065e-21)
(0.741017 -0.309485 -5.53927e-22)
(0.74245 -0.253473 -1.12513e-22)
(0.730179 -0.22336 1.23658e-22)
(0.729492 -0.114897 5.58417e-23)
(0.722303 0.0793341 8.62518e-25)
(0.815625 0.416486 3.45452e-22)
(0.798911 0.357626 -5.57112e-22)
(0.784158 0.251991 4.20241e-22)
(0.776091 0.112702 -5.03718e-21)
(0.778368 -0.0360811 -2.33832e-21)
(0.790486 -0.164956 1.54136e-21)
(0.805177 -0.260933 -2.30597e-21)
(0.812282 -0.318947 5.98337e-22)
(0.80662 -0.35164 -4.77913e-22)
(0.7934 -0.349035 2.14718e-21)
(0.77812 -0.313972 -1.00483e-21)
(0.768141 -0.235998 1.09317e-21)
(0.762843 -0.129006 -9.5713e-22)
(0.765782 -0.00695818 -2.02592e-22)
(0.770629 0.12108 2.4704e-22)
(0.777538 0.220249 -1.11965e-22)
(0.780361 0.306328 5.14424e-22)
(0.781796 0.324667 -1.09222e-21)
(0.776898 0.317656 1.14209e-21)
(0.771716 0.237651 -1.03335e-21)
(0.763093 0.129982 3.80947e-21)
(0.762757 0.00790584 -4.45338e-22)
(0.755512 -0.143661 3.89131e-22)
(0.755879 -0.20524 2.44687e-21)
(0.741765 -0.309172 8.65981e-22)
(0.743058 -0.253296 2.66708e-22)
(0.730711 -0.223117 -1.57284e-22)
(0.730164 -0.114808 -9.80114e-23)
(0.723624 0.0794532 3.18954e-24)
(0.817624 0.417725 1.94102e-21)
(0.80121 0.359271 8.0389e-22)
(0.786544 0.253673 -1.60236e-21)
(0.778332 0.114007 3.10037e-21)
(0.780327 -0.0354504 2.03059e-21)
(0.792157 -0.164916 5.64469e-22)
(0.806722 -0.261029 5.35937e-22)
(0.813788 -0.318705 -3.96987e-22)
(0.807993 -0.351038 -1.04049e-21)
(0.794527 -0.348381 -1.52193e-21)
(0.779035 -0.313606 1.377e-22)
(0.768982 -0.236068 2.35447e-22)
(0.763654 -0.129484 -5.10821e-22)
(0.766615 -0.00770774 -1.51598e-22)
(0.771478 0.12032 -4.68413e-22)
(0.778506 0.219653 -6.11266e-22)
(0.781506 0.306035 -1.2397e-21)
(0.783075 0.324725 1.12153e-21)
(0.778222 0.318012 -2.02681e-21)
(0.772971 0.238213 -7.862e-22)
(0.764296 0.130448 2.59706e-22)
(0.764053 0.00834659 -2.08023e-21)
(0.756784 -0.143318 4.79528e-22)
(0.757118 -0.20483 -2.21209e-21)
(0.742576 -0.308844 -6.8654e-22)
(0.743717 -0.253116 1.08485e-22)
(0.731291 -0.222877 4.11896e-22)
(0.730881 -0.114737 1.53341e-22)
(0.724991 0.0795576 -1.34703e-23)
(0.819692 0.418949 -8.85529e-22)
(0.803589 0.360933 -8.15847e-22)
(0.789017 0.255404 8.0271e-22)
(0.780663 0.115383 -2.36417e-21)
(0.782373 -0.0347476 -2.80308e-21)
(0.793903 -0.164822 -4.65327e-22)
(0.808328 -0.261094 9.53724e-22)
(0.815353 -0.318448 -5.30865e-22)
(0.809427 -0.350425 1.32094e-21)
(0.79571 -0.347719 1.71168e-21)
(0.779997 -0.313246 5.29625e-22)
(0.769861 -0.236156 -3.32188e-22)
(0.7645 -0.129987 5.63614e-22)
(0.767483 -0.00848391 7.13537e-23)
(0.772367 0.119535 -1.50737e-22)
(0.77952 0.219032 4.31668e-22)
(0.7827 0.305725 3.40715e-22)
(0.784404 0.324777 1.19418e-21)
(0.779596 0.318372 1.6481e-21)
(0.774277 0.238789 8.40988e-22)
(0.765547 0.130925 -2.14136e-21)
(0.7654 0.00879887 2.65292e-21)
(0.758115 -0.142964 5.71859e-23)
(0.758421 -0.204404 1.53472e-21)
(0.74345 -0.308503 1.50663e-22)
(0.744426 -0.252934 -6.95483e-22)
(0.731919 -0.22264 -2.23777e-22)
(0.731642 -0.114685 -2.93351e-22)
(0.726404 0.0796474 6.92913e-24)
(0.82183 0.420154 1.73089e-21)
(0.806046 0.362611 1.08546e-21)
(0.791575 0.257184 -2.90361e-21)
(0.783083 0.116829 2.31709e-21)
(0.784505 -0.0339721 3.392e-22)
(0.795724 -0.164672 -2.59811e-21)
(0.809996 -0.261129 2.66144e-21)
(0.816976 -0.318174 -1.10739e-21)
(0.810921 -0.349799 -2.71262e-22)
(0.796948 -0.347051 -1.15145e-21)
(0.781004 -0.312891 -1.42318e-21)
(0.770778 -0.236261 1.24546e-22)
(0.765378 -0.130514 1.98824e-23)
(0.768384 -0.00928654 4.58314e-22)
(0.773296 0.118723 1.34672e-22)
(0.780579 0.218386 -7.42604e-22)
(0.783942 0.305397 1.15856e-21)
(0.785784 0.324823 -3.57387e-22)
(0.781019 0.318738 1.17589e-21)
(0.775633 0.239378 -9.63729e-22)
(0.766846 0.131413 1.68877e-21)
(0.7668 0.00926234 -2.56049e-21)
(0.759505 -0.142601 -9.10444e-22)
(0.759787 -0.203964 -1.40288e-21)
(0.744388 -0.308147 2.58262e-22)
(0.745185 -0.252749 6.31336e-22)
(0.732595 -0.222406 8.26457e-23)
(0.732448 -0.114652 -3.5381e-23)
(0.727861 0.0797224 -8.28257e-24)
(0.824035 0.421341 -1.93543e-21)
(0.80858 0.364304 -2.3006e-21)
(0.794218 0.259011 2.14814e-21)
(0.785591 0.118345 2.09392e-21)
(0.786724 -0.0331233 4.02371e-22)
(0.797619 -0.164465 8.96124e-22)
(0.811724 -0.261134 -1.28292e-21)
(0.818655 -0.317885 1.00386e-21)
(0.812476 -0.349161 -3.20411e-23)
(0.79824 -0.346376 4.74725e-22)
(0.782056 -0.31254 5.73339e-22)
(0.771731 -0.236383 -5.43382e-22)
(0.766289 -0.131063 3.66079e-22)
(0.769319 -0.0101156 -6.4882e-22)
(0.774263 0.117886 -1.54875e-22)
(0.781683 0.217715 1.47097e-21)
(0.785231 0.305052 -8.34331e-22)
(0.787212 0.324861 -9.99679e-22)
(0.78249 0.319108 -1.83751e-21)
(0.777039 0.239981 2.32966e-21)
(0.768192 0.131913 -2.59932e-21)
(0.76825 0.00973668 1.0537e-21)
(0.760953 -0.142229 -8.99345e-22)
(0.761216 -0.203509 1.21709e-21)
(0.74539 -0.307776 -5.23778e-22)
(0.745994 -0.25256 6.7316e-23)
(0.733318 -0.222175 -1.29485e-22)
(0.733297 -0.114637 2.49673e-22)
(0.729363 0.0797828 5.28022e-23)
(0.826304 0.422507 2.95567e-21)
(0.811189 0.36601 2.1696e-21)
(0.796943 0.260884 9.55492e-22)
(0.788187 0.11993 2.66302e-21)
(0.789028 -0.0322007 -2.81211e-21)
(0.799589 -0.164201 -3.11999e-21)
(0.813514 -0.261106 -1.4622e-22)
(0.820391 -0.317581 1.70077e-21)
(0.814089 -0.348512 1.1066e-21)
(0.799588 -0.345693 -4.48768e-22)
(0.783152 -0.312194 3.40554e-22)
(0.772719 -0.236521 7.79155e-23)
(0.767231 -0.131636 -5.84326e-22)
(0.770284 -0.0109709 2.0102e-22)
(0.775267 0.117022 6.2871e-22)
(0.782829 0.217018 -1.03174e-21)
(0.786567 0.304687 6.83672e-22)
(0.78869 0.324893 -4.91989e-22)
(0.784011 0.319483 -8.74167e-22)
(0.778496 0.240598 -1.00712e-21)
(0.769586 0.132423 1.99191e-21)
(0.769751 0.0102216 9.80962e-22)
(0.762461 -0.141848 1.81603e-21)
(0.762708 -0.203038 9.9948e-23)
(0.746456 -0.30739 1.13352e-21)
(0.746853 -0.252368 -1.28038e-22)
(0.734087 -0.221946 2.45404e-22)
(0.734189 -0.11464 1.21188e-22)
(0.730908 0.0798285 -5.74916e-24)
(0.828636 0.423651 -7.63339e-22)
(0.813871 0.367727 -1.02874e-21)
(0.799748 0.262803 -1.09235e-21)
(0.790868 0.121585 7.87667e-22)
(0.791418 -0.0312039 1.25939e-21)
(0.801634 -0.163879 -1.23789e-21)
(0.815365 -0.261046 -2.70008e-21)
(0.822182 -0.317261 -1.58194e-21)
(0.81576 -0.347852 -1.72664e-21)
(0.800989 -0.345003 -2.90988e-22)
(0.78429 -0.31185 -4.85599e-22)
(0.773742 -0.236675 1.24064e-22)
(0.768203 -0.13223 1.03621e-21)
(0.771281 -0.0118521 3.83826e-22)
(0.776307 0.116132 -5.7094e-22)
(0.784018 0.216296 2.59107e-23)
(0.787947 0.304305 -5.53669e-22)
(0.790216 0.324918 1.84526e-21)
(0.785579 0.319862 1.45666e-21)
(0.780003 0.241228 1.56299e-21)
(0.771027 0.132945 1.33102e-21)
(0.771303 0.0107167 -2.08793e-21)
(0.764026 -0.141458 -1.5284e-22)
(0.764261 -0.202554 -1.77479e-21)
(0.747586 -0.306988 -1.40611e-21)
(0.747761 -0.252171 -3.40543e-23)
(0.734904 -0.22172 -6.21342e-23)
(0.735123 -0.114661 -2.68842e-22)
(0.732496 0.0798595 6.07616e-25)
(0.831028 0.424772 -5.78302e-24)
(0.816623 0.369455 1.92322e-21)
(0.802633 0.264767 2.33232e-21)
(0.793634 0.123308 -9.23198e-23)
(0.793893 -0.0301325 3.97277e-21)
(0.803754 -0.163497 3.68203e-22)
(0.817276 -0.260953 4.3677e-21)
(0.824027 -0.316926 2.54568e-22)
(0.817488 -0.34718 5.41016e-23)
(0.802444 -0.344304 1.55677e-21)
(0.785472 -0.311508 1.07571e-21)
(0.774798 -0.236843 -2.48321e-22)
(0.769205 -0.132847 -1.22933e-21)
(0.772307 -0.0127588 -6.80275e-22)
(0.777383 0.115216 -3.65364e-22)
(0.785248 0.215549 -4.90957e-22)
(0.789373 0.303904 9.06554e-23)
(0.79179 0.324936 4.13664e-22)
(0.787196 0.320245 -5.17155e-23)
(0.78156 0.241872 -1.01055e-22)
(0.772515 0.133477 -1.69659e-21)
(0.772905 0.0112218 1.74811e-21)
(0.765649 -0.141061 1.7294e-21)
(0.765877 -0.202055 1.11703e-22)
(0.74878 -0.306571 1.13226e-21)
(0.748718 -0.25197 -7.80561e-23)
(0.735767 -0.221497 6.53509e-23)
(0.736097 -0.114701 -5.23072e-23)
(0.734125 0.0798759 -6.24351e-23)
(0.833479 0.425867 -3.99081e-22)
(0.819444 0.371192 -3.03879e-22)
(0.805595 0.266773 5.0373e-22)
(0.796483 0.1251 1.07346e-21)
(0.796452 -0.0289863 1.577e-21)
(0.805949 -0.163055 -2.64184e-22)
(0.819246 -0.260827 -5.44957e-22)
(0.825925 -0.316576 1.01851e-21)
(0.819272 -0.346497 -4.64645e-22)
(0.803952 -0.343596 -1.61671e-21)
(0.786695 -0.311168 -1.04971e-21)
(0.775887 -0.237024 3.10183e-22)
(0.770236 -0.133485 3.87452e-22)
(0.773362 -0.0136919 1.44382e-21)
(0.778492 0.114273 6.3642e-22)
(0.786517 0.214775 -5.54536e-23)
(0.790842 0.303484 -2.83053e-22)
(0.793411 0.324946 -1.86293e-21)
(0.78886 0.320632 -5.58575e-22)
(0.783167 0.242529 -3.45583e-21)
(0.774051 0.134021 1.11036e-21)
(0.774557 0.0117364 1.13627e-21)
(0.76733 -0.140655 -1.83272e-21)
(0.767554 -0.201542 1.62987e-21)
(0.750039 -0.306139 5.11016e-22)
(0.749723 -0.251763 4.97136e-22)
(0.736675 -0.221275 -1.46002e-22)
(0.737112 -0.114758 1.50249e-22)
(0.735796 0.0798776 -5.04118e-23)
(0.835985 0.426935 2.34383e-21)
(0.822332 0.372935 -1.87374e-21)
(0.808632 0.268822 -7.79172e-22)
(0.799414 0.126959 2.23989e-23)
(0.799095 -0.0277648 -3.67701e-21)
(0.808218 -0.162551 6.79654e-22)
(0.821277 -0.260667 -2.87765e-21)
(0.827875 -0.316211 -6.45591e-22)
(0.821112 -0.345802 -1.74501e-21)
(0.805512 -0.342878 9.62681e-22)
(0.787959 -0.310828 3.27287e-22)
(0.777008 -0.237219 -6.02972e-22)
(0.771294 -0.134144 -4.074e-22)
(0.774445 -0.0146512 -3.15229e-22)
(0.779634 0.113303 -1.67486e-22)
(0.787825 0.213976 -1.62725e-22)
(0.792353 0.303045 -3.69734e-24)
(0.795079 0.324948 4.09223e-23)
(0.790572 0.321023 7.43066e-22)
(0.784824 0.243199 4.16788e-21)
(0.775635 0.134575 5.27786e-22)
(0.776258 0.0122604 -3.07467e-21)
(0.769068 -0.140242 1.66944e-22)
(0.769292 -0.201015 -1.93938e-21)
(0.751361 -0.30569 -3.38438e-22)
(0.750778 -0.251552 -6.13815e-22)
(0.73763 -0.221056 -2.15805e-22)
(0.738167 -0.114833 2.04159e-22)
(0.737506 0.0798646 6.48115e-23)
(0.838544 0.427975 -2.11155e-21)
(0.825283 0.374685 4.47386e-21)
(0.811742 0.270911 -1.04721e-21)
(0.802425 0.128885 3.37372e-21)
(0.80182 -0.0264681 -6.89439e-22)
(0.810561 -0.161986 1.99293e-21)
(0.823366 -0.260472 1.58224e-21)
(0.829877 -0.31583 1.70358e-21)
(0.823005 -0.345098 6.81211e-22)
(0.807125 -0.342151 6.62163e-22)
(0.789264 -0.310488 6.59099e-23)
(0.778159 -0.237426 7.52716e-22)
(0.77238 -0.134823 4.0051e-22)
(0.775554 -0.0156354 -4.91689e-22)
(0.780808 0.112307 -2.00437e-22)
(0.789171 0.213151 3.01735e-22)
(0.793906 0.302587 2.65201e-22)
(0.796793 0.324942 1.21977e-21)
(0.792331 0.321417 -1.76941e-21)
(0.786532 0.243882 -1.13821e-21)
(0.777265 0.13514 -1.64493e-22)
(0.778009 0.0127934 1.85478e-21)