/*--------------------------------*- C++ -*----------------------------------*\
  =========                 |
  \\      /  F ield         | OpenFOAM: The Open Source CFD Toolbox
   \\    /   O peration     | Website:  https://openfoam.org
    \\  /    A nd           | Version:  7
     \\/     M anipulation  |
\*---------------------------------------------------------------------------*/
FoamFile
{
    version     2.0;
    format      ascii;
    class       volScalarField;
    location    "60";
    object      p;
}
// * * * * * * * * * * * * * * * * * * * * * * * * * * * * * * * * * * * * * //

dimensions      [0 2 -2 0 0 0 0];

internalField   nonuniform List<scalar> 
7158
(
-0.0818645
-0.0700862
-0.0600797
-0.0526382
-0.0473988
-0.0447108
-0.0456918
-0.050146
-0.0553007
-0.0584339
-0.0576775
-0.0531267
-0.0462893
-0.0384192
-0.0312436
-0.0251195
-0.0198954
-0.0166204
-0.0151591
-0.017759
-0.0203894
-0.0223362
-0.0232036
-0.019421
-0.0168488
-0.0114106
-0.00653623
-0.00432207
0.00260227
-0.0811374
-0.0697144
-0.0600334
-0.0528716
-0.047856
-0.0453908
-0.0465989
-0.0512197
-0.056431
-0.0594802
-0.058536
-0.0537568
-0.0466942
-0.0386104
-0.0312457
-0.0249743
-0.0196449
-0.016241
-0.0146632
-0.0171608
-0.0197763
-0.021803
-0.022792
-0.0191586
-0.01672
-0.0113708
-0.00652921
-0.00439767
0.00263863
-0.0804006
-0.0693348
-0.0599823
-0.053102
-0.0483119
-0.0460719
-0.0475076
-0.0522945
-0.0575608
-0.0605239
-0.0593894
-0.0543804
-0.0470934
-0.0387985
-0.0312469
-0.0248294
-0.0193956
-0.0158644
-0.0141699
-0.0165626
-0.0191606
-0.0212649
-0.0223746
-0.0188919
-0.016587
-0.011329
-0.00651961
-0.00447382
0.00267338
-0.0796538
-0.0689473
-0.0599262
-0.0533289
-0.048766
-0.0467537
-0.0484175
-0.05337
-0.05869
-0.0615649
-0.0602376
-0.0549973
-0.0474868
-0.0389834
-0.0312473
-0.024685
-0.0191476
-0.0154908
-0.0136797
-0.0159649
-0.0185427
-0.020722
-0.0219513
-0.0186207
-0.0164496
-0.0112853
-0.00650728
-0.00455037
0.00270639
-0.0788971
-0.0685516
-0.0598649
-0.053552
-0.049218
-0.0474355
-0.0493281
-0.0544459
-0.0598182
-0.0626029
-0.0610805
-0.0556077
-0.0478745
-0.0391652
-0.0312471
-0.0245412
-0.0189012
-0.0151204
-0.0131929
-0.0153677
-0.0179228
-0.0201745
-0.0215221
-0.0183451
-0.0163077
-0.0112394
-0.00649204
-0.00462718
0.00273755
-0.0781304
-0.0681477
-0.0597979
-0.0537708
-0.0496674
-0.0481169
-0.0502388
-0.0555217
-0.0609452
-0.063638
-0.0619182
-0.0562115
-0.0482564
-0.0393437
-0.0312462
-0.0243981
-0.0186565
-0.0147535
-0.0127096
-0.0147716
-0.017301
-0.0196224
-0.0210871
-0.018065
-0.016161
-0.0111911
-0.00647371
-0.0047041
0.00276672
-0.0773536
-0.0677355
-0.059725
-0.0539848
-0.0501136
-0.0487974
-0.0511492
-0.056597
-0.0620706
-0.0646699
-0.0627505
-0.0568086
-0.0486326
-0.0395191
-0.0312448
-0.024256
-0.0184136
-0.0143903
-0.0122301
-0.0141766
-0.0166776
-0.0190661
-0.0206463
-0.0177804
-0.0160093
-0.0111404
-0.00645214
-0.00478094
0.00279378
-0.0765667
-0.0673149
-0.0596458
-0.0541935
-0.0505563
-0.0494764
-0.0520587
-0.0576715
-0.0631941
-0.0656985
-0.0635775
-0.0573993
-0.049003
-0.0396913
-0.031243
-0.0241149
-0.0181728
-0.0140309
-0.0117548
-0.0135832
-0.0160528
-0.0185055
-0.0201996
-0.0174911
-0.0158525
-0.0110871
-0.00642715
-0.00485755
0.00281861
-0.0757697
-0.0668856
-0.0595602
-0.0543967
-0.050995
-0.0501533
-0.052967
-0.0587447
-0.0643156
-0.0667237
-0.0643991
-0.0579834
-0.0493676
-0.0398604
-0.0312407
-0.0239751
-0.0179342
-0.0136755
-0.0112838
-0.0129917
-0.0154269
-0.0179408
-0.0197471
-0.0171971
-0.0156902
-0.0110309
-0.0063986
-0.00493375
0.00284107
-0.0749627
-0.0664477
-0.0594677
-0.0545937
-0.0514292
-0.0508277
-0.0538733
-0.0598162
-0.0654345
-0.0677454
-0.0652153
-0.0585611
-0.0497264
-0.0400263
-0.0312381
-0.0238366
-0.0176979
-0.0133244
-0.0108174
-0.0124022
-0.0148001
-0.0173722
-0.0192888
-0.0168984
-0.0155224
-0.0109717
-0.00636632
-0.00500934
0.00286102
-0.0741456
-0.0660011
-0.0593681
-0.0547842
-0.0518583
-0.051499
-0.0547774
-0.0608857
-0.0665507
-0.0687633
-0.0660261
-0.0591323
-0.0500796
-0.040189
-0.0312353
-0.0236996
-0.0174641
-0.0129778
-0.0103559
-0.0118153
-0.0141726
-0.0167998
-0.0188246
-0.0165948
-0.0153487
-0.0109093
-0.00633017
-0.00508415
0.00287835
-0.0733186
-0.0655456
-0.0592611
-0.0549677
-0.052282
-0.0521666
-0.0556786
-0.0619527
-0.0676638
-0.0697773
-0.0668313
-0.0596972
-0.050427
-0.0403486
-0.0312322
-0.0235641
-0.0172329
-0.0126357
-0.00989944
-0.011231
-0.0135447
-0.0162238
-0.0183546
-0.0162862
-0.0151689
-0.0108434
-0.00629
-0.00515799
0.00289291
-0.0724817
-0.0650813
-0.0591463
-0.0551438
-0.0526997
-0.05283
-0.0565765
-0.0630168
-0.0687734
-0.0707873
-0.0676311
-0.0602557
-0.0507688
-0.040505
-0.0312289
-0.0234303
-0.0170044
-0.0122983
-0.00944838
-0.0106499
-0.0129166
-0.0156444
-0.0178787
-0.0159725
-0.0149828
-0.010774
-0.00624567
-0.00523064
0.00290458
-0.071635
-0.064608
-0.0590235
-0.055312
-0.053111
-0.0534886
-0.0574705
-0.0640775
-0.0698793
-0.071793
-0.0684252
-0.0608079
-0.051105
-0.0406584
-0.0312255
-0.0232984
-0.0167789
-0.0119659
-0.00900289
-0.0100721
-0.0122886
-0.0150616
-0.0173968
-0.0156535
-0.0147902
-0.0107007
-0.00619707
-0.00530193
0.00291321
-0.0707787
-0.0641256
-0.0588923
-0.0554719
-0.0535153
-0.0541418
-0.0583602
-0.0651345
-0.070981
-0.0727943
-0.0692136
-0.0613539
-0.0514357
-0.0408087
-0.031222
-0.0231683
-0.0165563
-0.0116385
-0.0085632
-0.00949802
-0.011661
-0.0144756
-0.0169091
-0.0153293
-0.0145907
-0.0106234
-0.00614406
-0.00537164
0.00291868
-0.0699128
-0.0636342
-0.0587524
-0.055623
-0.0539121
-0.0547891
-0.0592451
-0.0661873
-0.0720783
-0.0737909
-0.0699963
-0.0618937
-0.0517609
-0.0409559
-0.0312184
-0.0230402
-0.0163369
-0.0113162
-0.00812953
-0.00892797
-0.011034
-0.0138867
-0.0164154
-0.0149995
-0.0143842
-0.0105418
-0.00608653
-0.00543957
0.00292087
-0.0690375
-0.0631337
-0.0586036
-0.0557649
-0.0543009
-0.05543
-0.0601247
-0.0672355
-0.0731707
-0.0747826
-0.0707731
-0.0624273
-0.0520806
-0.0411001
-0.0312147
-0.0229141
-0.0161207
-0.0109993
-0.00770209
-0.00836226
-0.0104079
-0.0132949
-0.0159158
-0.0146641
-0.0141703
-0.0104558
-0.00602438
-0.00550553
0.00291963
-0.068153
-0.0626241
-0.0584456
-0.0558972
-0.0546813
-0.0560639
-0.0609984
-0.0682787
-0.0742578
-0.0757692
-0.0715439
-0.0629548
-0.052395
-0.0412413
-0.031211
-0.0227902
-0.0159079
-0.0106877
-0.00728107
-0.00780121
-0.00978306
-0.0127005
-0.0154102
-0.014323
-0.0139489
-0.010365
-0.00595752
-0.0055693
0.00291485
-0.0672596
-0.0621054
-0.058278
-0.0560194
-0.0550528
-0.0566902
-0.0618658
-0.0693164
-0.0753394
-0.0767504
-0.0723086
-0.0634762
-0.0527042
-0.0413796
-0.0312073
-0.0226684
-0.0156985
-0.0103817
-0.00686667
-0.00724515
-0.00915967
-0.0121036
-0.0148986
-0.013976
-0.0137197
-0.0102694
-0.00588587
-0.00563069
0.00290641
-0.0663574
-0.0615774
-0.0581005
-0.0561311
-0.0554147
-0.0573084
-0.0627265
-0.0703481
-0.076415
-0.0777259
-0.073067
-0.0639915
-0.0530081
-0.041515
-0.0312036
-0.0225489
-0.0154926
-0.0100812
-0.00645906
-0.00669437
-0.00853806
-0.0115044
-0.014381
-0.0136229
-0.0134825
-0.0101686
-0.00580935
-0.00568951
0.00289417
-0.0654467
-0.0610403
-0.057913
-0.056232
-0.0557667
-0.057918
-0.0635798
-0.0713735
-0.0774841
-0.0786956
-0.073819
-0.0645008
-0.0533069
-0.0416475
-0.0312
-0.0224317
-0.0152903
-0.00978647
-0.00605842
-0.00614921
-0.00791852
-0.0109031
-0.0138575
-0.0132636
-0.0132371
-0.0100624
-0.00572791
-0.00574555
0.00287804
-0.0645277
-0.060494
-0.057715
-0.0563215
-0.0561082
-0.0585183
-0.0644254
-0.072392
-0.0785465
-0.0796591
-0.0745644
-0.065004
-0.0536006
-0.0417772
-0.0311964
-0.0223168
-0.0150917
-0.00949746
-0.00566491
-0.00560996
-0.00730137
-0.0103
-0.0133279
-0.012898
-0.0129831
-0.00995072
-0.00564149
-0.00579864
0.00285788
-0.0636008
-0.0599385
-0.0575064
-0.0563993
-0.0564387
-0.0591088
-0.0652627
-0.0734033
-0.0796017
-0.0806161
-0.0753031
-0.0655012
-0.0538893
-0.0419041
-0.0311928
-0.0222043
-0.0148969
-0.00921428
-0.00527867
-0.00507694
-0.00668693
-0.00969516
-0.0127924
-0.0125259
-0.0127205
-0.00983326
-0.00555008
-0.00584858
0.00283361
-0.0626661
-0.0593739
-0.0572868
-0.0564649
-0.0567577
-0.0596891
-0.0660913
-0.0744069
-0.0806492
-0.0815664
-0.0760349
-0.0659923
-0.0541732
-0.0420283
-0.0311894
-0.0220942
-0.014706
-0.00893699
-0.00489984
-0.00455045
-0.0060755
-0.00908886
-0.012251
-0.0121473
-0.012449
-0.00970985
-0.00545365
-0.0058952
0.00280511
-0.0617241
-0.0588002
-0.0570561
-0.0565181
-0.0570648
-0.0602585
-0.0669106
-0.0754024
-0.0816887
-0.0825096
-0.0767595
-0.0664774
-0.0544522
-0.0421499
-0.031186
-0.0219865
-0.0145189
-0.00866564
-0.00452856
-0.00403078
-0.00546741
-0.00848134
-0.0117038
-0.0117619
-0.0121685
-0.00958029
-0.0053522
-0.00593834
0.00277229
-0.060775
-0.0582173
-0.0568139
-0.0565583
-0.0573594
-0.0608166
-0.0677203
-0.0763893
-0.0827197
-0.0834455
-0.0774767
-0.0669564
-0.0547264
-0.0422688
-0.0311828
-0.0218812
-0.0143357
-0.00840026
-0.00416493
-0.00351821
-0.004863
-0.00787284
-0.0111508
-0.0113698
-0.0118787
-0.00944442
-0.00524574
-0.00597782
0.00273505
-0.0598192
-0.0576254
-0.0565601
-0.0565852
-0.057641
-0.0613629
-0.0685198
-0.0773671
-0.0837419
-0.0843737
-0.0781864
-0.0674294
-0.054996
-0.0423852
-0.0311797
-0.0217784
-0.0141566
-0.0081409
-0.00380906
-0.00301304
-0.00426259
-0.0072636
-0.010592
-0.0109707
-0.0115795
-0.00930207
-0.00513429
-0.00601351
0.00269332
-0.0588569
-0.0570244
-0.0562944
-0.0565984
-0.0579092
-0.0618967
-0.0693087
-0.0783356
-0.0847548
-0.0852939
-0.0788882
-0.0678962
-0.055261
-0.042499
-0.0311767
-0.0216781
-0.0139815
-0.00788758
-0.00346105
-0.00251553
-0.00366652
-0.00665389
-0.0100277
-0.0105647
-0.0112709
-0.00915308
-0.00501791
-0.00604525
0.00264701
-0.0578886
-0.0564144
-0.0560165
-0.0565976
-0.0581635
-0.0624176
-0.0700864
-0.0792941
-0.0857579
-0.0862058
-0.079582
-0.0683568
-0.0555214
-0.0426104
-0.0311738
-0.0215802
-0.0138105
-0.00764033
-0.00312097
-0.00202595
-0.00307515
-0.006044
-0.00945792
-0.0101517
-0.0109526
-0.00899732
-0.00489664
-0.00607292
0.00259605
-0.0569146
-0.0557955
-0.0557262
-0.0565824
-0.0584034
-0.0629251
-0.0708527
-0.0802423
-0.0867509
-0.0871092
-0.0802675
-0.0688111
-0.0557773
-0.0427195
-0.0311712
-0.0214847
-0.0136436
-0.00739915
-0.0027889
-0.00154456
-0.0024888
-0.0054342
-0.00888284
-0.00973159
-0.0106246
-0.00883468
-0.00477057
-0.00609641
0.00254039
-0.0559353
-0.0551677
-0.0554235
-0.0565524
-0.0586284
-0.0634188
-0.0716069
-0.0811798
-0.0877333
-0.0880037
-0.0809445
-0.0692592
-0.0560289
-0.0428262
-0.0311687
-0.0213918
-0.0134808
-0.00716406
-0.00246489
-0.00107159
-0.00190783
-0.00482479
-0.00830263
-0.00930439
-0.0102868
-0.00866505
-0.00463979
-0.0061156
0.00247995
-0.054951
-0.054531
-0.0551079
-0.0565074
-0.0588382
-0.063898
-0.0723487
-0.0821062
-0.0887047
-0.0888889
-0.0816126
-0.0697009
-0.056276
-0.0429306
-0.0311663
-0.0213012
-0.0133221
-0.00693505
-0.002149
-0.000607283
-0.00133259
-0.0042161
-0.00771751
-0.0088701
-0.00993926
-0.00848835
-0.0045044
-0.00613041
0.00241471
-0.053962
-0.0538855
-0.0547794
-0.0564469
-0.0590322
-0.0643625
-0.0730776
-0.0830209
-0.0896647
-0.0897647
-0.0822717
-0.0701362
-0.0565189
-0.0430328
-0.0311642
-0.0212131
-0.0131677
-0.00671212
-0.00184125
-0.00015186
-0.000763432
-0.00360845
-0.0071277
-0.00842875
-0.00958191
-0.00830451
-0.00436454
-0.00614075
0.00234461
-0.0529688
-0.0532313
-0.0544378
-0.0563706
-0.05921
-0.0648115
-0.0737932
-0.0839237
-0.0906128
-0.0906306
-0.0829214
-0.070565
-0.0567576
-0.0431329
-0.0311623
-0.0211273
-0.0130174
-0.00649524
-0.00154167
0.000294471
-0.000200695
-0.00300217
-0.00653346
-0.0079804
-0.00921479
-0.0081135
-0.00422035
-0.00614657
0.00226963
-0.0519716
-0.0525684
-0.054083
-0.0562783
-0.0593711
-0.0652448
-0.074495
-0.0848141
-0.0915486
-0.0914864
-0.0835615
-0.0709872
-0.056992
-0.0432309
-0.0311606
-0.021044
-0.0128712
-0.00628442
-0.00125028
0.000731513
0.000355268
-0.00239761
-0.00593508
-0.00752513
-0.00883795
-0.0079153
-0.00407199
-0.00614782
0.00218974
-0.0509708
-0.0518968
-0.0537146
-0.0561696
-0.0595153
-0.0656619
-0.0751827
-0.0856917
-0.0924718
-0.0923319
-0.0841917
-0.0714027
-0.0572223
-0.0433268
-0.0311591
-0.020963
-0.0127293
-0.00607962
-0.000967078
0.00115908
0.000904112
-0.00179515
-0.00533286
-0.00706303
-0.00845149
-0.00770991
-0.00391964
-0.00614445
0.00210494
-0.0499667
-0.0512167
-0.0533327
-0.0560443
-0.0596419
-0.0660623
-0.0758559
-0.0865561
-0.0933818
-0.0931666
-0.0848118
-0.0718114
-0.0574485
-0.0434208
-0.0311579
-0.0208843
-0.0125914
-0.00588081
-0.000692057
0.00157701
0.0014455
-0.00119514
-0.00472715
-0.00659426
-0.00805552
-0.00749736
-0.00376349
-0.00613645
0.00201522
-0.0489597
-0.0505282
-0.052937
-0.055902
-0.0597507
-0.0664456
-0.076514
-0.0874069
-0.0942782
-0.0939903
-0.0854214
-0.0722132
-0.0576706
-0.0435128
-0.0311569
-0.020808
-0.0124577
-0.00568796
-0.0004252
0.00198514
0.00197908
-0.000597971
-0.00411831
-0.00611897
-0.00765021
-0.00727771
-0.00360377
-0.00612382
0.00192058
-0.04795
-0.0498311
-0.0525275
-0.0557426
-0.0598413
-0.0668114
-0.0771568
-0.0882437
-0.0951605
-0.0948026
-0.0860203
-0.0726081
-0.0578887
-0.043603
-0.0311562
-0.0207339
-0.0123281
-0.00550103
-0.00016648
0.00238333
0.00250453
-4.03676e-06
-0.00350674
-0.00563738
-0.00723575
-0.00705103
-0.00344068
-0.00610657
0.00182105
-0.0469381
-0.0491257
-0.052104
-0.0555656
-0.0599132
-0.0671592
-0.0777838
-0.089066
-0.0960284
-0.0956034
-0.0866081
-0.0729958
-0.0581028
-0.0436913
-0.0311558
-0.0206621
-0.0122026
-0.00531998
8.41426e-05
0.00277145
0.00302154
0.000586263
-0.00289286
-0.0051497
-0.00681237
-0.00681744
-0.0032745
-0.00608473
0.00171665
-0.045924
-0.048412
-0.0516664
-0.055371
-0.0599661
-0.0674887
-0.0783947
-0.0898736
-0.0968812
-0.0963921
-0.0871846
-0.0733763
-0.0583128
-0.0437778
-0.0311557
-0.0205925
-0.0120811
-0.00514475
0.000326714
0.0031494
0.00352977
0.00117252
-0.00227711
-0.0046562
-0.00638032
-0.00657707
-0.00310546
-0.00605833
0.00160741
-0.0449083
-0.04769
-0.0512146
-0.0551584
-0.0599997
-0.0677996
-0.0789891
-0.0906658
-0.0977185
-0.0971686
-0.0877495
-0.0737495
-0.0585189
-0.0438627
-0.0311559
-0.0205251
-0.0119637
-0.00497531
0.000561284
0.00351707
0.00402891
0.00175432
-0.00165997
-0.00415718
-0.00593992
-0.00633007
-0.00293384
-0.00602743
0.00149339
-0.0438911
-0.0469599
-0.0507485
-0.0549277
-0.0600136
-0.0680913
-0.0795665
-0.0914422
-0.0985396
-0.0979321
-0.0883023
-0.0741152
-0.0587211
-0.0439459
-0.0311565
-0.0204599
-0.0118502
-0.00481163
0.000787901
0.00387437
0.00451868
0.00233124
-0.00104194
-0.00365296
-0.00549151
-0.00607665
-0.00275994
-0.00599212
0.00137464
-0.0428729
-0.0462218
-0.0502681
-0.0546786
-0.0600075
-0.0683635
-0.0801265
-0.0922023
-0.0993439
-0.0986823
-0.0888429
-0.0744735
-0.0589194
-0.0440275
-0.0311575
-0.0203968
-0.0117407
-0.00465363
0.00100664
0.00422125
0.00499879
0.00290286
-0.000423531
-0.0031439
-0.00503546
-0.00581701
-0.00258406
-0.00595246
0.00125124
-0.0418535
-0.0454754
-0.0497731
-0.0544108
-0.0599811
-0.0686159
-0.0806689
-0.0929459
-0.100131
-0.0994196
-0.0893716
-0.0748243
-0.0591137
-0.0441073
-0.0311585
-0.0203355
-0.0116347
-0.004501
0.00121775
0.00455776
0.00546905
0.00346886
0.000194829
-0.00263031
-0.00457212
-0.00555135
-0.00240651
-0.00590854
0.00112323
-0.040832
-0.0447201
-0.0492627
-0.0541235
-0.0599336
-0.0688485
-0.0811942
-0.0936739
-0.100903
-0.100145
-0.0898879
-0.0751668
-0.059303
-0.0441843
-0.0311587
-0.0202754
-0.0115318
-0.0043533
0.00142152
0.00488393
0.00592921
0.00402883
0.000812653
-0.0021125
-0.00410188
-0.00527989
-0.00222761
-0.00586046
0.00099069
-0.0398116
-0.0439576
-0.0487383
-0.0538178
-0.0598657
-0.0690609
-0.0817007
-0.0943824
-0.101652
-0.100853
-0.0903865
-0.0754983
-0.0594871
-0.0442598
-0.03116
-0.0202183
-0.0114337
-0.004212
0.00161706
0.00519907
0.0063784
0.0045816
0.00142858
-0.00159152
-0.00362558
-0.00500317
-0.00204767
-0.00580848
0.000853875
-0.0388113
-0.0432008
-0.0482102
-0.0535023
-0.059781
-0.0692487
-0.0821736
-0.0950467
-0.10235
-0.101516
-0.0908576
-0.0758205
-0.059674
-0.0443437
-0.0311718
-0.0201727
-0.0113477
-0.00408285
0.00180084
0.00550114
0.00681505
0.00512513
0.00203995
-0.00106978
-0.0031452
-0.00472267
-0.00186695
-0.00575311
0.000713417
-0.0378296
-0.0424503
-0.0476772
-0.053174
-0.0596755
-0.0694049
-0.0826044
-0.0956638
-0.103008
-0.102147
-0.0913301
-0.0761568
-0.0598782
-0.0444428
-0.0311959
-0.0201375
-0.0112715
-0.00396318
0.00197516
0.00579264
0.00724217
0.00566284
0.00264979
-0.00054548
-0.00266
-0.00443795
-0.0016862
-0.00569378
0.000568737
-0.0366691
-0.0415638
-0.0470131
-0.0527154
-0.0594845
-0.069574
-0.0831701
-0.0965183
-0.103943
-0.103035
-0.0919338
-0.0765346
-0.0600623
-0.0444925
-0.0311615
-0.020042
-0.0111391
-0.00379907
0.00217515
0.00609538
0.00767696
0.00621538
0.00328307
3.98945e-06
-0.00215327
-0.00413554
-0.00150712
-0.00562475
0.00041312
-0.0388194
-0.0448449
-0.0510579
-0.0586896
-0.0701532
-0.0852826
-0.0996498
-0.107193
-0.105975
-0.093631
-0.0774108
-0.0603341
-0.0444055
-0.0308837
-0.0196345
-0.0106639
-0.0032941
0.00268848
0.00677422
0.00862227
0.00743652
0.00470601
0.0012572
-0.00100621
-0.00343646
-0.00113172
-0.00545712
5.68698e-05
-0.036287
-0.0429421
-0.0498577
-0.0584524
-0.0711021
-0.0872931
-0.102165
-0.109469
-0.105349
-0.0945431
-0.0777392
-0.0602349
-0.0440824
-0.0304675
-0.0191641
-0.0101803
-0.00276081
0.00329391
0.00765172
0.00985467
0.00904671
0.00660249
0.00297073
0.000613979
-0.00246626
-0.000550836
-0.00526779
-0.000438076
-0.0338386
-0.0411036
-0.0487271
-0.0582462
-0.0719465
-0.0890112
-0.104294
-0.111442
-0.107049
-0.0952715
-0.0779133
-0.0600359
-0.0436985
-0.0300221
-0.0186877
-0.00970979
-0.00225505
0.00385115
0.00844929
0.0109857
0.0105741
0.00844811
0.00468788
0.00225168
-0.00148179
2.92297e-05
-0.00508752
-0.000929439
-0.0310667
-0.0389169
-0.0472535
-0.0577676
-0.0726608
-0.090763
-0.106555
-0.113531
-0.108664
-0.0958922
-0.0779636
-0.0597406
-0.0432506
-0.0295405
-0.0181937
-0.0092363
-0.00176343
0.00436811
0.00917265
0.0120222
0.0120272
0.0102499
0.00641856
0.0039058
-0.000468591
0.000576145
-0.00489235
-0.0014264
-0.0280241
-0.0364127
-0.0454675
-0.0570571
-0.0732797
-0.0925299
-0.108822
-0.115514
-0.11001
-0.0963077
-0.0778378
-0.059327
-0.0427328
-0.0290243
-0.0176894
-0.00876997
-0.0012962
0.00483883
0.00981675
0.0129514
0.0133785
0.0119667
0.00812143
0.00553536
0.000546114
0.00107152
-0.00468805
-0.00192021
-0.0247621
-0.0336559
-0.0434478
-0.0561773
-0.0737927
-0.0941961
-0.110914
-0.117252
-0.111055
-0.096481
-0.0775226
-0.0587906
-0.0421449
-0.0284749
-0.0171775
-0.00831301
-0.000854934
0.0052634
0.0103803
0.0137655
0.0146074
0.0135672
0.0097596
0.00710305
0.00153404
0.00150461
-0.00448453
-0.00239994
-0.0212648
-0.030647
-0.0412071
-0.0551308
-0.074166
-0.0956941
-0.112772
-0.118707
-0.11178
-0.0963943
-0.0770106
-0.0581282
-0.0414866
-0.027893
-0.0166595
-0.00786568
-0.000439066
0.00564343
0.0108643
0.0144617
0.0156994
0.0150273
0.0113021
0.00857657
0.00247219
0.00186585
-0.0042882
-0.00285534
-0.0175013
-0.0273621
-0.0387282
-0.0538997
-0.074379
-0.0970033
-0.114374
-0.119849
-0.11216
-0.0960278
-0.0762941
-0.0573372
-0.040758
-0.0272795
-0.0161367
-0.00742871
-4.84781e-05
0.00598046
0.0112707
0.0150393
0.0166435
0.016325
0.0127194
0.00992525
0.00333995
0.00214717
-0.00410279
-0.003276
-0.0134551
-0.0237873
-0.0360017
-0.0524774
-0.0744256
-0.0981073
-0.115687
-0.12063
-0.112163
-0.095363
-0.0753668
-0.056416
-0.0399594
-0.0266353
-0.0156107
-0.00700314
0.00031668
0.00627607
0.0116021
0.0155
0.0174316
0.0174417
0.0139844
0.011121
0.00411893
0.00234396
-0.00393002
-0.00365115
-0.0091297
-0.0199273
-0.0330358
-0.0508699
-0.0743002
-0.0989759
-0.116661
-0.121001
-0.11176
-0.0943844
-0.0742249
-0.0553649
-0.0390922
-0.0259614
-0.0150827
-0.0065901
0.000656132
0.00653191
0.0118618
0.0158475
0.0180596
0.0183644
0.0150743
0.012141
0.00479473
0.00245636
-0.0037692
-0.00397009
-0.00454934
-0.0158051
-0.0298521
-0.0490897
-0.0739926
-0.0995708
-0.117245
-0.120915
-0.110923
-0.09308
-0.0728669
-0.0541853
-0.0381581
-0.0252591
-0.0145539
-0.00619065
0.00096946
0.00674969
0.0120536
0.0160873
0.0185277
0.0190865
0.0159729
0.0129692
0.00535862
0.00248986
-0.003617
-0.00422267
0.000239303
-0.0114622
-0.0264844
-0.0471535
-0.0734903
-0.0998524
-0.117388
-0.120329
-0.10963
-0.0914421
-0.0712942
-0.0528806
-0.03716
-0.0245299
-0.0140254
-0.00580577
0.00125611
0.00693109
0.0121819
0.0162267
0.0188397
0.0196075
0.0166715
0.0135986
0.00580865
0.00245551
-0.00346734
-0.00439984
0.00516514
-0.00695975
-0.0229784
-0.0450835
-0.0727813
-0.0997804
-0.117038
-0.1192
-0.107863
-0.0894679
-0.069511
-0.0514559
-0.0361012
-0.0237754
-0.0134978
-0.0054362
0.00151546
0.00707764
0.0122512
0.0162742
0.019004
0.0199338
0.0171698
0.0140315
0.00615012
0.00236974
-0.00331168
-0.00449434
0.0101327
-0.00237922
-0.0193935
-0.0429071
-0.0718533
-0.0993123
-0.116144
-0.117493
-0.105612
-0.0871603
-0.0675252
-0.0499177
-0.0349859
-0.0229976
-0.0129719
-0.0050824
0.00174691
0.00719068
0.0122661
0.0162389
0.0190327
0.0200779
0.017476
0.0142795
0.00639536
0.00225362
-0.00313965
-0.00450134
0.0150247
0.00217966
-0.0158002
-0.0406556
-0.0706921
-0.0984039
-0.114658
-0.115181
-0.102873
-0.0845288
-0.065348
-0.0482746
-0.0338191
-0.0221987
-0.0124483
-0.00474455
0.00195001
0.00727137
0.0122311
0.0161299
0.0189395
0.0200573
0.0176056
0.0143627
0.00656265
0.00213128
-0.00294011
-0.00441914
0.0197089
0.00660311
-0.0122776
-0.0383609
-0.069281
-0.0970097
-0.112536
-0.112246
-0.0996549
-0.0815895
-0.0629942
-0.0465364
-0.0326064
-0.0213813
-0.0119274
-0.00442251
0.00212461
0.0073207
0.0121506
0.0159562
0.0187403
0.0198929
0.0175803
0.0143078
0.00667428
0.00202778
-0.00270259
-0.00424959
0.0240467
0.0107704
-0.00890785
-0.0360525
-0.0675992
-0.095085
-0.109742
-0.108684
-0.0959763
-0.078366
-0.060482
-0.0447147
-0.0313538
-0.020548
-0.0114096
-0.00411589
0.00227097
0.00733948
0.0120287
0.0157264
0.0184511
0.0196077
0.0174254
0.0141449
0.00675386
0.00196641
-0.00241883
-0.00399847
0.0279058
0.0145631
-0.0057694
-0.0337534
-0.0656215
-0.0925864
-0.106252
-0.104506
-0.091869
-0.0748888
-0.0578328
-0.0428221
-0.0300679
-0.0197019
-0.0108954
-0.0038241
0.00238985
0.00732847
0.0118689
0.0154483
0.0180876
0.0192243
0.0171677
0.0139048
0.00682317
0.00196585
-0.00208435
-0.0036754
0.0311729
0.0178756
-0.00292958
-0.0314751
-0.0633165
-0.0894753
-0.10206
-0.0997427
-0.0873772
-0.0711951
-0.0550708
-0.0408723
-0.0287554
-0.018846
-0.0103852
-0.00354641
0.0024825
0.00728849
0.0116747
0.0151289
0.0176645
0.0187643
0.0168324
0.0136154
0.00689934
0.00203772
-0.00169961
-0.00329347
0.0337676
0.0206267
-0.000435622
-0.0292126
-0.0606465
-0.0857205
-0.097178
-0.0944463
-0.0825581
-0.067328
-0.0522223
-0.0388794
-0.0274234
-0.0179836
-0.00987951
-0.00328203
0.00255065
0.00722061
0.0114488
0.0147738
0.0171946
0.0182462
0.0164419
0.0132995
0.00699261
0.00218504
-0.00127048
-0.0028684
0.0356523
0.0227708
0.00169466
-0.0269395
-0.0575688
-0.0813064
-0.0916437
-0.0886887
-0.0774804
-0.0633351
-0.0493148
-0.0368582
-0.0260786
-0.0171178
-0.00937886
-0.00303015
0.00259638
0.00712622
0.0111944
0.0143881
0.0166888
0.0176857
0.0160137
0.012973
0.00710548
0.00240195
-0.000807879
-0.00241746
0.0368388
0.0243077
0.00348108
-0.0246058
-0.0540401
-0.0762442
-0.0854973
-0.0825606
-0.0722219
-0.0592667
-0.0463766
-0.034823
-0.0247281
-0.0162519
-0.00888377
-0.00278999
0.00262206
0.00700709
0.0109141
0.0139759
0.0161561
0.0170951
0.0155604
0.0126447
0.00723317
0.00267483
-0.000326586
-0.001958
0.0373882
0.0252873
0.00498445
-0.022144
-0.0500292
-0.0705784
-0.0789005
-0.0761777
-0.066867
-0.055174
-0.0434351
-0.032788
-0.0233784
-0.0153887
-0.00839481
-0.00256082
0.00263018
0.00686535
0.0106108
0.013541
0.0156036
0.0164835
0.0150902
0.0123178
0.00736548
0.00298469
0.000156477
-0.00150622
0.0374003
0.0258043
0.00629867
-0.0194854
-0.0455382
-0.0643988
-0.0719734
-0.0696703
-0.0615024
-0.0511062
-0.0405163
-0.0307665
-0.0220359
-0.0145312
-0.00791252
-0.00234193
0.00262324
0.00670343
0.0102874
0.0130866
0.0150369
0.0158578
0.0146076
0.0119909
0.00748926
0.00331013
0.000624322
-0.00107617
0.0369961
0.0259807
0.00752672
-0.0165896
-0.0406254
-0.0578525
-0.0648862
-0.0631722
-0.056211
-0.047109
-0.0376442
-0.0287707
-0.0207064
-0.0136822
-0.00743743
-0.00213268
0.00260369
0.00652399
0.00994703
0.012616
0.0144603
0.0152234
0.0141146
0.0116607
0.00759123
0.00363022
0.00106193
-0.000678976
0.0362945
0.0259365
0.00874572
-0.0134751
-0.035419
-0.0511359
-0.0578257
-0.0568131
-0.051068
-0.0432222
-0.0348394
-0.0268114
-0.0193955
-0.0128442
-0.00697006
-0.00193243
0.00257384
0.00632985
0.00959313
0.0121325
0.0138774
0.0145843
0.0136123
0.0113234
0.00766005
0.00392692
0.00145748
-0.000322518
0.0353934
0.0257607
0.00997742
-0.010233
-0.03011
-0.0444741
-0.0509729
-0.0507066
-0.0461355
-0.0394784
-0.0321193
-0.0248983
-0.0181082
-0.0120196
-0.00651092
-0.00174055
0.00253581
0.00612384
0.00922899
0.0116395
0.0132912
0.0139442
0.0131015
0.010976
0.00768775
0.00418643
0.00180291
-1.13489e-05
0.0343595
0.0254971
0.0111837
-0.00700986
-0.0249185
-0.0380834
-0.0444808
-0.0449416
-0.0414607
-0.0359027
-0.0294979
-0.0230394
-0.016849
-0.0112106
-0.0060605
-0.00155641
0.00249152
0.0059088
0.00885786
0.0111403
0.0127045
0.0133062
0.0125831
0.0106171
0.00767013
0.00439973
0.00209397
0.000253019
0.033231
0.02515
0.0122905
-0.00396559
-0.0200447
-0.0321365
-0.0384604
-0.0395782
-0.0370748
-0.0325122
-0.0269859
-0.0212416
-0.0156218
-0.0104192
-0.00561929
-0.00137939
0.00244271
0.00568747
0.00848286
0.0106387
0.0121201
0.0126735
0.012059
0.0102464
0.00760646
0.00456224
0.00232978
0.000471528
0.032027
0.0247056
0.0132237
-0.0012293
-0.0156317
-0.0267449
-0.0329764
-0.0346482
-0.0329944
-0.0293177
-0.0245908
-0.0195103
-0.0144304
-0.00964741
-0.00518778
-0.00120888
0.00239093
0.00546245
0.00810696
0.010138
0.0115404
0.0120491
0.0115313
0.0098652
0.00749885
0.00467308
0.00251211
0.000646901
0.0307598
0.0241518
0.0139357
0.00112427
-0.0117536
-0.0219568
-0.0280511
-0.0301597
-0.0292245
-0.0263242
-0.0223178
-0.0178498
-0.0132777
-0.00889679
-0.00476647
-0.00104427
0.00233755
0.00523616
0.00773288
0.00964147
0.0109682
0.0114358
0.0110027
0.00947549
0.0073513
0.0047341
0.00264458
0.000783014
0.0294417
0.0234887
0.0144133
0.00307499
-0.00842338
-0.0177702
-0.0236736
-0.026103
-0.0257609
-0.0235323
-0.0201697
-0.0162635
-0.0121664
-0.0081689
-0.00435587
-0.00088502
0.00228377
0.00501086
0.00736307
0.00915223
0.0104057
0.0108359
0.0104761
0.0090797
0.00716896
0.00474901
0.0027319
0.000884348
0.0280878
0.022729
0.0146705
0.00464314
-0.00561185
-0.0141497
-0.019812
-0.0224574
-0.0225938
-0.0209395
-0.0181478
-0.0147536
-0.0110987
-0.00746509
-0.00395646
-0.000730618
0.00223067
0.00478856
0.00699974
0.00867298
0.00985537
0.0102517
0.00995418
0.00868046
0.00695742
0.00472257
0.00277931
0.000955575
0.0267148
0.0218926
0.0147367
0.00587037
-0.00326706
-0.0110428
-0.0164248
-0.0191959
-0.0197095
-0.0185409
-0.0162518
-0.0133218
-0.0100763
-0.00678651
-0.00356876
-0.000580634
0.00217915
0.00457104
0.00664481
0.00820611
0.00931916
0.00968507
0.00943981
0.00828035
0.0067223
0.00466001
0.00279218
0.00100125
0.0253387
0.0210013
0.0146457
0.00680548
-0.00133008
-0.00839201
-0.0134664
-0.0162889
-0.0170923
-0.0163301
-0.0144804
-0.0119687
-0.00910068
-0.00613419
-0.00319323
-0.000434716
0.00212998
0.00435987
0.00629997
0.00775362
0.00879891
0.00913736
0.00893544
0.0078818
0.00646892
0.00456668
0.00277568
0.00102563
0.0239739
0.0200752
0.0144298
0.00749578
0.000256718
-0.00614054
-0.0108914
-0.0137065
-0.0147254
-0.0142994
-0.0128311
-0.0106946
-0.00817278
-0.00550894
-0.00283036
-0.0002926