/*--------------------------------*- C++ -*----------------------------------*\
  =========                 |
  \\      /  F ield         | OpenFOAM: The Open Source CFD Toolbox
   \\    /   O peration     | Website:  https://openfoam.org
    \\  /    A nd           | Version:  7
     \\/     M anipulation  |
\*---------------------------------------------------------------------------*/
FoamFile
{
    version     2.0;
    format      ascii;
    class       volVectorField;
    location    "60";
    object      U;
}
// * * * * * * * * * * * * * * * * * * * * * * * * * * * * * * * * * * * * * //

dimensions      [0 1 -1 0 0 0 0];

internalField   nonuniform List<vector> 
7158
(
(0.759893 0.303983 -5.61147e-23)
(0.78054 0.345269 -4.60079e-23)
(0.794424 0.355149 -6.96166e-23)
(0.798317 0.347301 -3.31316e-23)
(0.778044 0.344852 3.66448e-23)
(0.730751 0.355878 -5.29623e-24)
(0.678663 0.355647 -5.64112e-23)
(0.649492 0.313356 -4.18048e-23)
(0.654738 0.221436 -1.74999e-23)
(0.684944 0.101754 8.33623e-23)
(0.728552 -0.017017 -6.02616e-23)
(0.770684 -0.116201 2.93482e-23)
(0.804756 -0.185445 3.52816e-23)
(0.828243 -0.226178 7.15973e-23)
(0.845902 -0.235317 2.4251e-24)
(0.848796 -0.234517 4.11776e-23)
(0.828251 -0.230989 3.27575e-23)
(0.782053 -0.242569 6.58698e-24)
(0.734241 -0.237051 -4.50627e-24)
(0.707389 -0.210192 -2.11568e-23)
(0.715737 -0.143553 -1.91526e-23)
(0.745556 -0.0615881 -1.20766e-23)
(0.785065 0.0118775 2.309e-23)
(0.81897 0.0823285 -2.93969e-23)
(0.848517 0.104051 1.71261e-23)
(0.859177 0.144448 1.53111e-23)
(0.857278 0.123146 1.15884e-23)
(0.834485 0.159544 -4.42498e-25)
(0.784162 0.126553 -6.65587e-24)
(0.75679 0.302235 6.54942e-24)
(0.777936 0.34417 -2.26751e-22)
(0.792496 0.354593 7.61416e-23)
(0.796411 0.347795 1.31452e-22)
(0.77554 0.346845 2.68826e-23)
(0.727944 0.358748 -3.97145e-24)
(0.676599 0.357947 1.60158e-22)
(0.648829 0.31402 2.06214e-22)
(0.655397 0.220463 1.75184e-22)
(0.686564 0.0997602 -1.09068e-22)
(0.730839 -0.0193009 -1.50105e-22)
(0.773359 -0.118199 1.82324e-22)
(0.807384 -0.186925 -5.07821e-23)
(0.830458 -0.227219 1.79205e-23)
(0.847684 -0.235838 -1.02072e-22)
(0.850926 -0.234097 -5.65678e-23)
(0.83102 -0.229378 -3.52658e-23)
(0.785311 -0.240303 -2.56514e-23)
(0.736589 -0.235257 7.00527e-23)
(0.708259 -0.20972 -2.91655e-23)
(0.714714 -0.144399 1.94852e-23)
(0.743559 -0.0631426 1.18613e-22)
(0.782495 0.0102513 -7.14966e-23)
(0.816219 0.0809322 1.07659e-22)
(0.846021 0.103188 4.21544e-23)
(0.855921 0.144265 2.95324e-23)
(0.854256 0.123666 1.38351e-23)
(0.830065 0.161048 2.41375e-23)
(0.781189 0.127555 -5.49216e-24)
(0.753726 0.300445 1.19389e-22)
(0.775382 0.343023 2.50228e-22)
(0.790599 0.354015 5.79027e-23)
(0.794505 0.348306 -1.49471e-22)
(0.773036 0.348862 2.91023e-22)
(0.725177 0.361602 1.37708e-22)
(0.674611 0.360193 -7.2445e-23)
(0.648239 0.314631 -4.67681e-22)
(0.65611 0.219461 -2.49488e-22)
(0.688225 0.0977575 -1.27746e-22)
(0.733156 -0.021583 2.11266e-22)
(0.77606 -0.120185 -5.29315e-22)
(0.810045 -0.188381 2.07595e-22)
(0.832707 -0.228231 -1.33612e-22)
(0.849471 -0.236355 2.97417e-22)
(0.853027 -0.233702 -9.14645e-24)
(0.833761 -0.227796 7.77046e-23)
(0.788581 -0.238029 3.85401e-23)
(0.739005 -0.23341 -6.33606e-23)
(0.709219 -0.209175 -1.02968e-23)
(0.713766 -0.145188 -6.84676e-23)
(0.741613 -0.0646693 -7.24463e-23)
(0.779956 0.0086363 8.28292e-23)
(0.813481 0.0795315 5.15734e-24)
(0.843508 0.102336 -6.70896e-23)
(0.852626 0.144093 -4.57577e-23)
(0.851191 0.12421 -1.73867e-23)
(0.82563 0.16255 -3.15767e-23)
(0.778281 0.128527 1.58701e-23)
(0.750702 0.298613 1.39605e-22)
(0.772878 0.341829 -2.25047e-22)
(0.788733 0.353416 2.77262e-22)
(0.792597 0.348837 1.76687e-22)
(0.770534 0.3509 -4.3442e-22)
(0.722452 0.364438 -7.0382e-23)
(0.672698 0.362385 1.68314e-22)
(0.647722 0.315191 5.09129e-22)
(0.656877 0.218431 -7.00613e-23)
(0.689927 0.0957471 1.70616e-22)
(0.735501 -0.0238627 1.83247e-22)
(0.778786 -0.122159 2.61006e-22)
(0.812738 -0.189812 8.84859e-23)
(0.83499 -0.229216 8.11443e-23)
(0.851265 -0.236867 -2.05794e-22)
(0.8551 -0.233332 -3.06026e-23)
(0.83647 -0.226243 6.21319e-23)
(0.79186 -0.235748 -3.65492e-23)
(0.741488 -0.231511 3.16658e-23)
(0.71027 -0.208557 -7.74124e-23)
(0.712896 -0.145918 4.46891e-23)
(0.739717 -0.0661669 1.08075e-22)
(0.77745 0.0070334 9.59977e-23)
(0.810754 0.0781276 -3.02741e-22)
(0.840976 0.101494 -1.219e-22)
(0.849289 0.143932 -2.04297e-23)
(0.848085 0.124777 -1.02015e-23)
(0.821184 0.164049 -1.84917e-23)
(0.77544 0.129467 2.74398e-23)
(0.747721 0.296738 -4.38861e-22)
(0.770427 0.340588 1.29492e-22)
(0.786895 0.352798 -4.22053e-22)
(0.790687 0.349386 2.4221e-22)
(0.768036 0.352957 6.95058e-23)
(0.719771 0.367253 -8.06871e-23)
(0.67086 0.364523 -1.64874e-22)
(0.647276 0.3157 1.80722e-23)
(0.657698 0.217376 1.68859e-22)
(0.69167 0.0937305 -2.88326e-22)
(0.737875 -0.0261393 -2.05955e-22)
(0.781534 -0.12412 -1.87107e-22)
(0.815461 -0.19122 1.33076e-23)
(0.837305 -0.230173 -5.9633e-23)
(0.853067 -0.237374 4.38787e-22)
(0.857145 -0.232987 -8.36674e-23)
(0.839148 -0.224722 5.40206e-24)
(0.795146 -0.233464 5.81422e-23)
(0.744036 -0.229563 -1.20541e-22)
(0.711412 -0.207867 -1.82608e-23)
(0.712104 -0.146587 2.13217e-22)
(0.737874 -0.0676343 1.99381e-23)
(0.774975 0.00544355 1.03136e-22)
(0.808036 0.0767215 3.92835e-22)
(0.838425 0.100664 1.2645e-22)
(0.845912 0.143784 6.04553e-23)
(0.844939 0.125367 4.73834e-23)
(0.81673 0.165541 4.08477e-23)
(0.77267 0.130374 -4.53023e-23)
(0.744785 0.294819 1.59319e-22)
(0.768028 0.3393 5.72073e-22)
(0.785087 0.352162 -5.10757e-23)
(0.788777 0.349952 -4.73798e-22)
(0.765542 0.355029 6.74036e-22)
(0.717136 0.370044 -7.02401e-22)
(0.669099 0.366607 2.02673e-22)
(0.646899 0.316162 -5.68041e-22)
(0.658572 0.216297 -3.83215e-22)
(0.693454 0.0917087 -1.23386e-22)
(0.740277 -0.0284121 -2.73829e-22)
(0.784303 -0.12607 -5.56883e-22)
(0.818212 -0.192604 -7.25001e-22)
(0.839654 -0.231101 -2.9975e-22)
(0.854877 -0.237873 -3.47998e-22)
(0.859162 -0.232664 2.59024e-22)
(0.841793 -0.223232 -2.16992e-22)
(0.798436 -0.231178 -5.54602e-23)
(0.746648 -0.227568 1.27207e-22)
(0.712646 -0.207104 -2.07502e-23)
(0.711393 -0.147194 -2.46182e-22)
(0.736084 -0.0690702 -1.94846e-23)
(0.772532 0.0038678 -3.18706e-22)
(0.805328 0.0753145 -2.05173e-22)
(0.835852 0.0998462 -1.35448e-22)
(0.842494 0.143648 -2.29444e-23)
(0.841755 0.125978 -4.90206e-23)
(0.812275 0.167026 -9.90357e-26)
(0.769974 0.131246 1.55505e-23)
(0.741895 0.292855 -4.12555e-23)
(0.765682 0.337964 -6.45957e-22)
(0.783305 0.351508 -5.94179e-22)
(0.786865 0.350536 7.37404e-22)
(0.763056 0.357116 -1.14756e-21)
(0.714548 0.37281 1.07633e-21)
(0.667412 0.368637 -4.61997e-22)
(0.646592 0.316576 7.14339e-22)
(0.659498 0.215196 -2.77613e-23)
(0.69528 0.0896831 7.54191e-23)
(0.742707 -0.0306803 -5.1682e-22)
(0.787092 -0.128007 -1.10895e-22)
(0.820989 -0.193965 -1.31952e-22)
(0.842034 -0.232 1.68395e-22)
(0.856698 -0.238363 -3.89037e-22)
(0.861153 -0.232365 -3.45473e-22)
(0.844404 -0.221776 1.10419e-22)
(0.801727 -0.228895 1.54098e-23)
(0.749319 -0.225527 -5.28252e-23)
(0.713971 -0.206269 1.54616e-22)
(0.710764 -0.147738 -1.25104e-22)
(0.734347 -0.0704733 -1.72061e-22)
(0.770119 0.0023072 1.46919e-22)
(0.802626 0.0739077 1.62601e-22)
(0.833255 0.0990426 3.69264e-22)
(0.839036 0.143525 -1.0239e-22)
(0.838534 0.12661 1.2217e-22)
(0.807821 0.1685 4.0262e-25)
(0.767355 0.132082 -1.63469e-23)
(0.739052 0.290845 -2.85963e-23)
(0.763388 0.336581 2.19706e-22)
(0.78155 0.350837 4.48838e-22)
(0.784952 0.351136 -7.85033e-22)
(0.760579 0.359213 8.29705e-22)
(0.712009 0.375549 -5.91175e-22)
(0.6658 0.370612 2.94954e-22)
(0.646353 0.316946 -6.5651e-22)
(0.660477 0.214074 9.02411e-22)
(0.697147 0.0876548 8.43977e-22)
(0.745165 -0.0329433 1.50454e-21)
(0.789899 -0.129933 3.58955e-22)
(0.823789 -0.195303 8.43271e-22)
(0.844446 -0.23287 4.01933e-22)
(0.85853 -0.238843 5.43205e-22)
(0.863119 -0.232088 2.92361e-22)
(0.84698 -0.220354 -6.81124e-23)
(0.805016 -0.226615 5.44784e-23)
(0.75205 -0.223443 -1.71747e-23)
(0.715387 -0.205362 -3.01766e-22)
(0.710219 -0.148219 2.28292e-22)
(0.732665 -0.0718423 -2.34957e-22)
(0.767738 0.00076289 -3.50878e-22)
(0.799931 0.0725022 -3.74945e-22)
(0.830635 0.0982538 -2.67619e-22)
(0.835538 0.143415 1.58363e-22)
(0.83528 0.127261 -1.74598e-22)
(0.803375 0.16996 1.83598e-23)
(0.764817 0.13288 -4.3081e-23)
(0.73626 0.288789 -5.72812e-22)
(0.761147 0.335152 -4.56828e-22)
(0.779821 0.35015 -8.38551e-23)
(0.783038 0.351752 3.36278e-22)
(0.758112 0.361319 -1.6721e-22)
(0.70952 0.378258 2.86585e-22)
(0.664263 0.372534 -6.99829e-22)
(0.64618 0.317271 8.7061e-22)
(0.661508 0.212933 1.64298e-22)
(0.699056 0.0856249 -5.29208e-22)
(0.747651 -0.0352001 -9.76022e-22)
(0.792723 -0.131847 1.88604e-22)
(0.826612 -0.196619 -6.8463e-22)
(0.846887 -0.23371 -2.77292e-22)
(0.860374 -0.239312 -6.17714e-22)
(0.865059 -0.231831 8.53115e-23)
(0.84952 -0.218967 -3.43571e-23)
(0.808302 -0.224342 8.39402e-24)
(0.754837 -0.221319 -8.93396e-23)
(0.716895 -0.204384 2.59278e-22)
(0.709759 -0.148635 1.32074e-22)
(0.731038 -0.0731758 3.78825e-23)
(0.765387 -0.000763966 3.79608e-22)
(0.79724 0.0710994 1.4879e-22)
(0.827988 0.0974806 1.18243e-22)
(0.832001 0.143317 -1.35777e-22)
(0.831993 0.127931 1.84467e-23)
(0.79894 0.171406 -5.57494e-23)
(0.762363 0.133639 8.69603e-23)
(0.733519 0.286685 -5.19905e-22)
(0.758959 0.333677 -2.02898e-23)
(0.778116 0.349448 3.29334e-22)
(0.781123 0.352383 2.2488e-22)
(0.755657 0.363432 -3.42887e-22)
(0.707084 0.380935 1.88134e-22)
(0.662801 0.374401 8.30379e-22)
(0.646073 0.317556 -5.74556e-22)
(0.66259 0.211775 -3.94939e-22)
(0.701008 0.0835945 -3.14797e-22)
(0.750166 -0.03745 1.02373e-21)
(0.795564 -0.133748 -3.94827e-22)
(0.829455 -0.197914 4.79559e-22)
(0.849359 -0.234521 1.15475e-22)
(0.862231 -0.239768 -5.05467e-22)
(0.866977 -0.231596 5.28888e-22)
(0.852023 -0.217617 1.37146e-22)
(0.81158 -0.222078 -1.33376e-23)
(0.757678 -0.219155 1.12803e-22)
(0.718493 -0.203334 -1.24957e-22)
(0.709387 -0.148985 -3.36619e-22)
(0.729468 -0.0744724 4.60674e-22)
(0.763065 -0.00227214 -1.73355e-22)
(0.794552 0.0697005 2.89483e-22)
(0.825314 0.0967239 1.34022e-22)
(0.828426 0.143233 1.02535e-22)
(0.828678 0.128619 3.20697e-23)
(0.794522 0.172833 -8.8316e-24)
(0.759997 0.134357 3.3921e-24)
(0.730832 0.284535 -6.00564e-22)
(0.756823 0.332155 5.47544e-22)
(0.776434 0.348732 7.03272e-22)
(0.779208 0.353028 1.5214e-22)
(0.753217 0.365548 -7.5055e-22)
(0.7047 0.383579 -1.83332e-22)
(0.661411 0.376216 -1.21751e-22)
(0.646031 0.317799 2.53238e-22)
(0.663724 0.2106 -7.68935e-22)
(0.703003 0.0815649 1.21381e-21)
(0.75271 -0.0396921 2.94048e-22)
(0.798421 -0.135638 2.13677e-21)
(0.832316 -0.199188 7.62833e-22)
(0.851858 -0.235302 1.07434e-22)
(0.864103 -0.240211 3.74984e-22)
(0.868871 -0.231379 -3.05311e-22)
(0.854489 -0.216303 -3.76259e-22)
(0.81485 -0.219826 8.16579e-23)
(0.76057 -0.216955 1.317e-22)
(0.720182 -0.202214 3.73811e-22)
(0.709103 -0.149268 2.24022e-23)
(0.727955 -0.0757306 -3.5409e-22)
(0.760774 -0.00376037 2.4977e-22)
(0.791867 0.0683066 -5.53877e-22)
(0.822613 0.0959846 -2.58597e-22)
(0.824814 0.143161 6.61826e-23)
(0.825335 0.129323 -1.30934e-22)
(0.790126 0.174241 2.55682e-23)
(0.75772 0.135033 -4.97367e-23)
(0.7282 0.282335 9.67529e-22)
(0.754741 0.330589 -9.06701e-22)
(0.774775 0.348001 -3.51479e-22)
(0.777293 0.353686 -1.10876e-21)
(0.750792 0.367665 1.21057e-21)
(0.702371 0.386188 -5.124e-22)
(0.660095 0.377977 -5.79018e-22)
(0.646053 0.318004 3.17856e-22)
(0.66491 0.20941 6.49599e-22)
(0.705041 0.079537 -1.92481e-22)
(0.755283 -0.0419255 -5.06928e-22)
(0.801293 -0.137515 -2.09954e-21)
(0.835193 -0.200441 -1.99148e-21)
(0.854385 -0.236055 -5.94372e-22)
(0.865989 -0.24064 -4.05383e-22)
(0.870744 -0.231181 -9.82711e-23)
(0.856916 -0.215027 -2.41196e-22)
(0.818107 -0.217588 2.75538e-22)
(0.763511 -0.214722 4.56762e-24)
(0.721961 -0.201025 -8.44351e-23)
(0.708909 -0.149483 1.82111e-22)
(0.7265 -0.0769488 1.41369e-22)
(0.758513 -0.00522732 3.33732e-23)
(0.789182 0.0669192 4.18489e-22)
(0.819883 0.0952633 3.16327e-23)
(0.821167 0.143103 -7.04377e-24)
(0.821969 0.130042 1.47428e-22)
(0.785757 0.175625 -2.24635e-23)
(0.755538 0.135665 6.1961e-23)
(0.725624 0.280088 5.0432e-22)
(0.75271 0.328978 -3.00791e-22)
(0.773137 0.347258 1.28587e-21)
(0.775378 0.354356 3.41325e-22)
(0.748384 0.369781 -3.47284e-22)
(0.700097 0.38876 1.17902e-21)
(0.658851 0.379686 1.93865e-21)
(0.646137 0.318172 -3.74116e-22)
(0.666146 0.208207 -1.27826e-21)
(0.707124 0.0775119 -8.29102e-22)
(0.757886 -0.0441493 -1.27622e-21)
(0.804179 -0.139379 1.76604e-21)
(0.838085 -0.201674 1.90377e-21)
(0.856938 -0.236778 -9.26033e-22)
(0.867892 -0.241052 1.00894e-21)
(0.872596 -0.231 -1.16772e-22)
(0.859305 -0.213789 2.29351e-22)
(0.82135 -0.215367 -2.82168e-22)
(0.766499 -0.212457 -1.62894e-22)
(0.723829 -0.199766 -1.1243e-22)
(0.708808 -0.149629 -2.61266e-22)
(0.725106 -0.0781255 -2.17003e-22)
(0.756282 -0.00667162 -1.26124e-22)
(0.786498 0.0655395 -1.31481e-22)
(0.817125 0.0945607 2.24022e-22)
(0.817485 0.143057 -1.20943e-22)
(0.818582 0.130774 6.06309e-23)
(0.78142 0.176984 1.3999e-22)
(0.753451 0.136252 -5.44245e-23)
(0.723105 0.277791 -1.31625e-21)
(0.750732 0.327323 8.6519e-24)
(0.77152 0.346502 -1.43233e-21)
(0.773464 0.355037 -2.55393e-22)
(0.745996 0.371893 6.61721e-22)
(0.697879 0.391293 -2.0651e-21)
(0.657679 0.381343 -2.21875e-21)
(0.646283 0.318305 -1.79665e-22)
(0.667434 0.206991 5.66817e-22)
(0.709251 0.0754906 1.29069e-21)
(0.76052 -0.0463625 8.91816e-22)
(0.807079 -0.141231 -9.89763e-22)
(0.84099 -0.202888 -4.53136e-23)
(0.859515 -0.237472 1.3917e-21)
(0.869811 -0.241448 -7.87876e-22)
(0.874428 -0.230834 -1.89031e-22)
(0.861655 -0.21259 9.32717e-23)
(0.824576 -0.213164 3.26251e-22)
(0.76953 -0.210163 2.78827e-23)
(0.725786 -0.19844 2.00624e-22)
(0.7088 -0.149705 5.13881e-23)
(0.723773 -0.0792591 1.33999e-22)
(0.75408 -0.00809186 -2.00995e-22)
(0.783814 0.0641687 -1.12031e-22)
(0.814336 0.0938776 -3.417e-22)
(0.813771 0.143023 2.04006e-22)
(0.815177 0.131518 -1.7144e-22)
(0.77712 0.178316 -3.16375e-22)
(0.751464 0.136792 1.18438e-22)
(0.720647 0.275444 -7.15227e-22)
(0.748805 0.325624 -8.41036e-22)
(0.769922 0.345734 -1.55329e-21)
(0.771552 0.355727 -2.14509e-22)
(0.743628 0.373998 7.85694e-22)
(0.695718 0.393787 1.26742e-21)
(0.656578 0.382948 3.87662e-22)
(0.646491 0.318403 -8.72783e-23)
(0.668773 0.205765 -3.97682e-23)
(0.711423 0.0734741 -1.26749e-21)
(0.763185 -0.0485642 -1.16328e-21)
(0.809993 -0.143069 1.36986e-21)
(0.843906 -0.204083 -1.10899e-21)
(0.862115 -0.238137 -3.25605e-22)
(0.871746 -0.241826 3.48263e-22)
(0.876243 -0.230684 7.54085e-22)
(0.863965 -0.21143 1.06733e-22)
(0.827782 -0.210982 -3.95618e-22)
(0.772601 -0.207843 -4.42856e-23)
(0.72783 -0.197048 -1.35756e-22)
(0.708887 -0.149711 -1.21721e-22)
(0.722502 -0.0803481 2.01698e-23)
(0.751909 -0.00948658 -1.03034e-22)
(0.781129 0.0628082 1.86497e-22)
(0.811519 0.0932144 3.92264e-22)
(0.810027 0.143001 2.77176e-22)
(0.811758 0.132272 -1.69619e-23)
(0.772863 0.179618 4.29423e-22)
(0.749579 0.137286 -2.30361e-23)
(0.718248 0.273049 2.29461e-21)
(0.746928 0.323884 1.27359e-21)
(0.768343 0.344955 1.99331e-21)
(0.769641 0.356425 1.10173e-21)
(0.741282 0.376095 7.96417e-23)
(0.693615 0.39624 9.15289e-22)
(0.655547 0.384503 -1.63819e-22)
(0.646758 0.318468 8.81485e-23)
(0.670163 0.204528 1.84409e-21)
(0.713641 0.0714634 2.10922e-21)
(0.765881 -0.0507534 9.74775e-22)
(0.81292 -0.144893 -4.20975e-22)
(0.846831 -0.205259 7.63624e-22)
(0.864738 -0.238775 1.40452e-22)
(0.8737 -0.242186 5.72248e-22)
(0.87804 -0.230548 -3.1432e-22)
(0.866235 -0.210309 1.42214e-22)
(0.830967 -0.208823 6.28286e-23)
(0.775711 -0.2055 -3.62283e-23)
(0.729961 -0.19559 9.96958e-23)
(0.709071 -0.149645 5.03146e-22)
(0.721296 -0.0813908 2.26681e-22)
(0.749769 -0.0108543 -2.65391e-22)
(0.778442 0.0614593 -3.47385e-22)
(0.808672 0.0925718 -1.07758e-22)
(0.806256 0.142991 -8.71844e-22)
(0.808329 0.133035 1.97534e-22)
(0.768653 0.180887 -3.67144e-22)
(0.747798 0.137731 -1.21392e-22)
(0.715911 0.270604 3.42494e-22)
(0.745102 0.322101 -2.02797e-21)
(0.766782 0.344165 -2.52027e-22)
(0.767732 0.35713 -3.93107e-21)
(0.73896 0.378181 -1.33561e-21)
(0.691571 0.398651 -4.38673e-23)
(0.654585 0.386008 9.90205e-22)
(0.647085 0.318503 -1.8488e-21)
(0.671604 0.203282 -1.66482e-21)
(0.715906 0.0694593 -9.54719e-23)
(0.768611 -0.0529292 -1.01885e-21)
(0.815861 -0.146703 -2.44393e-21)
(0.849765 -0.206418 -3.97236e-22)
(0.86738 -0.239384 6.23246e-22)
(0.875671 -0.242526 -4.12968e-22)
(0.879822 -0.230423 8.01579e-23)
(0.868465 -0.209228 -2.85703e-22)
(0.834128 -0.20669 3.08095e-22)
(0.778856 -0.203137 -6.34301e-23)
(0.732177 -0.194068 -3.15093e-22)
(0.709353 -0.149508 -5.41378e-23)
(0.720155 -0.0823854 -2.1994e-22)
(0.74766 -0.0121934 2.04777e-22)
(0.775755 0.0601233 -2.46605e-22)
(0.805797 0.0919501 -1.11259e-22)
(0.80246 0.142992 5.22042e-22)
(0.804893 0.133806 -3.07468e-22)
(0.764497 0.182121 1.74441e-22)
(0.746125 0.138126 6.58206e-23)
(0.713637 0.268109 -6.04872e-22)
(0.743325 0.320278 2.3515e-21)
(0.765237 0.343363 7.95826e-23)
(0.765827 0.357841 8.39596e-22)
(0.736664 0.380254 8.35701e-22)
(0.689586 0.401019 -1.72212e-21)
(0.653692 0.387464 1.59265e-22)
(0.64747 0.318507 7.45829e-22)
(0.673096 0.202029 -1.26343e-21)
(0.718217 0.0674628 -2.15799e-21)
(0.771374 -0.0550906 2.74504e-21)
(0.818815 -0.148498 3.26928e-22)
(0.852705 -0.207559 -1.18807e-21)
(0.870041 -0.239967 9.38972e-23)
(0.877661 -0.242846 -6.49867e-22)
(0.881588 -0.23031 -2.67022e-22)
(0.870656 -0.208186 9.49686e-23)
(0.837263 -0.204585 3.07755e-23)
(0.782032 -0.200755 -1.5771e-23)
(0.734477 -0.192484 4.44349e-22)
(0.709734 -0.149298 2.07335e-23)
(0.719083 -0.0833305 -1.27566e-22)
(0.745584 -0.0135024 1.80029e-22)
(0.773066 0.0588015 7.42366e-22)
(0.802894 0.0913498 -6.13492e-23)
(0.798642 0.143003 -7.65114e-23)
(0.801454 0.134582 8.81756e-23)
(0.7604 0.183318 -1.05978e-22)
(0.744563 0.13847 -1.45367e-23)
(0.711427 0.265565 -6.8482e-22)
(0.741596 0.318415 -1.24214e-21)
(0.763709 0.342552 5.47071e-22)
(0.763925 0.358555 1.69016e-21)
(0.734393 0.38231 1.48883e-21)
(0.68766 0.403342 -1.05487e-22)
(0.652867 0.388872 1.97182e-21)
(0.647912 0.318483 -6.38042e-22)
(0.674638 0.200769 2.06773e-21)
(0.720576 0.0654747 -1.11812e-21)
(0.77417 -0.0572365 -4.4182e-22)
(0.821782 -0.150278 -6.00567e-22)
(0.85565 -0.208682 2.16124e-21)
(0.87272 -0.240522 1.28348e-22)
(0.879669 -0.243145 5.46124e-22)
(0.883342 -0.230207 5.17332e-22)
(0.872806 -0.207183 -2.52699e-22)
(0.84037 -0.202509 -1.38454e-22)
(0.785238 -0.198359 -1.4546e-22)
(0.736859 -0.190839 -9.87533e-23)
(0.710215 -0.149015 -6.1096e-22)
(0.718079 -0.0842242 5.25043e-22)
(0.743541 -0.0147796 -4.78346e-23)
(0.770377 0.0574952 -6.2773e-22)
(0.799964 0.0907712 -3.30752e-22)
(0.794805 0.143024 -1.17508e-22)
(0.798016 0.135361 9.47345e-23)
(0.756367 0.184476 -1.01794e-22)
(0.743112 0.138762 -2.50393e-23)
(0.709281 0.262971 2.75426e-22)
(0.739915 0.316513 -4.94588e-22)
(0.762195 0.34173 2.64844e-22)
(0.762027 0.359271 -3.03628e-21)
(0.732151 0.384349 -1.44591e-21)
(0.685795 0.40562 1.06807e-21)
(0.652108 0.390232 -2.08564e-21)
(0.648411 0.318432 7.31712e-22)
(0.676231 0.199502 -8.61308e-22)
(0.722982 0.0634958 4.57189e-21)
(0.777002 -0.0593661 -2.31754e-21)
(0.824763 -0.152041 2.50852e-21)
(0.8586 -0.209789 -1.99148e-21)
(0.875413 -0.241051 -3.67291e-22)
(0.881697 -0.243422 3.72599e-22)
(0.885083 -0.230111 -7.74657e-23)
(0.874916 -0.20622 3.56382e-22)
(0.843447 -0.200464 -4.00436e-22)
(0.78847 -0.19595 2.10193e-22)
(0.739322 -0.189135 -1.65924e-22)
(0.710799 -0.148659 6.98855e-22)
(0.717148 -0.0850651 -1.19949e-22)
(0.741532 -0.0160235 1.47682e-22)
(0.767689 0.0562057 1.07813e-21)
(0.797008 0.0902146 5.05927e-22)
(0.790952 0.143054 2.58223e-22)
(0.794584 0.136142 -1.25779e-22)
(0.752404 0.185592 1.94352e-22)
(0.741776 0.139002 3.74264e-23)
(0.7072 0.260329 1.92944e-21)
(0.73828 0.314573 5.26799e-22)
(0.760695 0.340898 -1.08161e-21)
(0.760133 0.359988 1.85179e-21)
(0.729938 0.386368 1.24191e-21)
(0.683989 0.407852 3.5776e-22)
(0.651415 0.391545 4.08185e-22)
(0.648966 0.318354 -5.71721e-22)
(0.677874 0.198231 -1.84067e-21)
(0.725436 0.0615269 -3.26639e-21)
(0.779868 -0.0614782 3.37976e-22)
(0.827757 -0.153789 6.01178e-22)
(0.861552 -0.210879 -1.13189e-21)
(0.878121 -0.241555 -3.03446e-22)
(0.883743 -0.243678 -7.19679e-22)
(0.886813 -0.230024 -7.19971e-22)
(0.876987 -0.205296 -8.60278e-22)
(0.846491 -0.198453 4.06102e-22)
(0.791725 -0.193532 -3.31485e-22)
(0.741863 -0.187373 -1.00799e-22)
(0.711485 -0.148229 1.57967e-23)
(0.71629 -0.0858513 -4.6244e-22)
(0.739559 -0.0172323 1.5632e-22)
(0.765002 0.0549344 -9.38649e-22)
(0.794029 0.0896801 -3.87821e-22)
(0.787088 0.143093 1.04168e-22)
(0.791162 0.136924 3.33013e-22)
(0.748516 0.186664 -2.54997e-22)
(0.740557 0.139188 -7.58976e-23)
(0.705185 0.257639 -8.71962e-22)
(0.73669 0.312597 -7.27923e-22)
(0.759208 0.340056 4.71331e-22)
(0.758245 0.360703 -1.37764e-21)
(0.727755 0.388364 -1.66619e-21)
(0.682244 0.410037 -3.44474e-22)
(0.650786 0.392813 8.98729e-22)
(0.649576 0.318252 -6.57475e-22)
(0.679568 0.196955 2.20002e-21)
(0.727939 0.0595687 3.76034e-21)
(0.78277 -0.063572 1.31195e-21)
(0.830765 -0.155518 -8.0029e-22)
(0.864506 -0.211953 1.27094e-21)
(0.88084 -0.242034 1.24345e-22)
(0.885808 -0.243911 -2.45952e-22)
(0.888534 -0.229941 5.16352e-22)
(0.879018 -0.20441 2.39324e-22)
(0.8495 -0.196477 4.08444e-22)
(0.795 -0.191107 2.7032e-22)
(0.744482 -0.185556 1.13155e-22)
(0.712275 -0.147726 -3.32136e-22)
(0.715509 -0.0865812 5.49679e-22)
(0.737625 -0.0184045 3.11452e-24)
(0.762317 0.0536824 6.17723e-22)
(0.791027 0.0891681 8.78899e-23)
(0.783217 0.143139 -6.80418e-22)
(0.787754 0.137704 -1.81521e-22)
(0.744708 0.18769 4.65616e-22)
(0.739457 0.13932 3.74301e-23)
(0.703235 0.2549 1.52426e-21)
(0.735145 0.310584 7.40582e-22)
(0.757733 0.339204 -1.83118e-21)
(0.756363 0.361416 1.37445e-21)
(0.725604 0.390335 2.18794e-22)
(0.680559 0.412175 -1.86102e-21)
(0.650222 0.394036 2.42761e-21)
(0.650241 0.318127 -1.35845e-21)
(0.681312 0.195676 -4.97171e-22)
(0.730489 0.0576219 -2.56538e-21)
(0.785709 -0.0656465 -3.58241e-21)
(0.833787 -0.15723 3.31978e-22)
(0.86746 -0.21301 6.20609e-23)
(0.88357 -0.242488 9.69717e-22)
(0.887891 -0.244121 1.88966e-22)
(0.890246 -0.229863 -9.53906e-22)
(0.88101 -0.203563 8.11633e-22)
(0.852474 -0.194538 -1.20434e-22)
(0.798291 -0.188679 1.69634e-22)
(0.747175 -0.183686 -1.02331e-22)
(0.71317 -0.147149 2.19532e-22)
(0.714805 -0.0872534 -4.96432e-22)
(0.73573 -0.0195382 -2.6702e-22)
(0.759638 0.0524512 -5.42064e-22)
(0.788007 0.0886786 1.35676e-22)
(0.779342 0.143192 6.13169e-22)
(0.784365 0.138479 6.74672e-23)
(0.740986 0.188668 3.38135e-23)
(0.738478 0.139397 -1.73005e-23)
(0.701351 0.252115 -1.81602e-21)
(0.733641 0.308537 -1.72477e-21)
(0.75627 0.338343 1.36902e-21)
(0.754488 0.362124 1.23602e-21)
(0.723486 0.39228 3.00741e-22)
(0.678934 0.414265 7.01966e-22)
(0.64972 0.395215 -1.09317e-21)
(0.650959 0.317979 1.38849e-21)
(0.683105 0.194395 -3.5942e-23)
(0.733088 0.0556873 1.07699e-21)
(0.788683 -0.0677007 1.49207e-21)
(0.836823 -0.158922 -1.45275e-21)
(0.870414 -0.214051 9.54006e-22)
(0.886309 -0.242919 -1.51749e-21)
(0.889994 -0.244308 -3.38373e-22)
(0.891951 -0.229789 1.87522e-21)
(0.882963 -0.202753 -5.64368e-22)
(0.85541 -0.192637 -3.33289e-22)
(0.801597 -0.186249 -2.64895e-22)
(0.749941 -0.181765 2.3436e-22)
(0.714169 -0.146498 -3.11663e-22)
(0.714182 -0.0878662 1.95995e-22)
(0.733877 -0.020632 -2.31863e-22)
(0.756965 0.0512419 4.42667e-22)
(0.784969 0.0882116 -2.65934e-22)
(0.775467 0.143251 5.70976e-23)
(0.781 0.13925 -1.06359e-22)
(0.737356 0.189595 -3.5067e-22)
(0.737622 0.139418 1.12153e-22)
(0.699533 0.249283 3.01485e-21)
(0.732179 0.306456 1.62439e-21)
(0.754817 0.337471 5.39977e-22)
(0.75262 0.362826 1.54442e-21)
(0.721401 0.394196 -1.61579e-21)
(0.67737 0.416306 -2.10442e-21)
(0.64928 0.396351 -1.37605e-22)
(0.651729 0.31781 2.20307e-21)
(0.684949 0.193111 2.03461e-21)
(0.735735 0.0537654 -1.07938e-21)
(0.791694 -0.0697338 9.05867e-22)
(0.839874 -0.160595 2.0697e-22)
(0.873367 -0.215077 -1.49978e-21)
(0.889055 -0.243327 3.87674e-22)
(0.892114 -0.244471 1.15102e-21)
(0.893651 -0.229715 -1.4223e-21)
(0.884879 -0.201981 4.77098e-22)
(0.858306 -0.190776 -1.63752e-22)
(0.804913 -0.183822 -1.12324e-22)
(0.752777 -0.179794 -9.37856e-23)
(0.715275 -0.145773 2.16409e-22)
(0.713642 -0.0884182 1.57776e-22)
(0.732069 -0.021684 4.82024e-22)
(0.754302 0.0500558 2.71662e-23)
(0.781917 0.0877672 5.51589e-22)
(0.771599 0.143315 -1.29609e-22)
(0.777664 0.140012 2.0639e-22)
(0.733822 0.19047 -1.41859e-22)
(0.736891 0.139383 -2.14016e-23)
(0.69778 0.246405 -6.95688e-22)
(0.730757 0.304342 -7.00179e-22)
(0.753375 0.336589 -6.60455e-22)
(0.750759 0.363519 4.34709e-22)
(0.719351 0.396082 7.92888e-22)
(0.675866 0.418298 -8.09778e-22)
(0.6489 0.397445 -2.63644e-21)
(0.652552 0.317621 -2.20649e-21)
(0.686842 0.191826 -3.09329e-21)
(0.73843 0.0518569 -7.14303e-22)
(0.794742 -0.0717449 -1.33383e-21)
(0.84294 -0.162247 3.4446e-22)
(0.876318 -0.216086 2.88752e-21)
(0.891806 -0.243713 8.85395e-22)
(0.894252 -0.244611 -1.18172e-21)
(0.895346 -0.229643 7.25808e-24)
(0.886757 -0.201245 -4.28012e-22)
(0.861162 -0.188957 5.42408e-22)
(0.808237 -0.1814 1.6393e-22)
(0.75568 -0.177778 1.08288e-22)
(0.716486 -0.144975 1.06841e-22)
(0.713188 -0.0889078 -3.00656e-22)
(0.730307 -0.0226926 -3.43036e-23)
(0.75165 0.0488942 -5.68882e-22)
(0.778854 0.0873453 -6.62796e-22)
(0.767741 0.143383 -3.56659e-23)
(0.774361 0.140766 -5.00024e-23)
(0.73039 0.19129 3.22085e-22)
(0.736285 0.139291 -8.12515e-24)
(0.696093 0.243483 8.89808e-23)
(0.729373 0.302196 1.47018e-21)
(0.751941 0.335696 1.39512e-21)
(0.748907 0.364203 -7.31284e-23)
(0.717337 0.397936 2.26573e-21)
(0.674423 0.42024 1.91778e-22)
(0.648581 0.398498 4.0488e-21)
(0.653426 0.317412 5.82274e-22)
(0.688783 0.19054 2.32478e-22)
(0.741172 0.0499624 3.7124e-21)
(0.797827 -0.073733 3.01776e-21)
(0.84602 -0.163878 -7.48001e-22)
(0.879267 -0.21708 -3.51138e-21)
(0.894561 -0.244077 -1.87874e-21)
(0.896408 -0.244727 -8.07489e-22)
(0.897037 -0.229569 -7.51949e-22)
(0.888599 -0.200544 3.37888e-23)
(0.863974 -0.18718 1.18567e-22)
(0.811566 -0.178985 5.07382e-24)
(0.758649 -0.175717 -1.82517e-23)
(0.717804 -0.144104 -1.58234e-22)
(0.712821 -0.0893337 2.45156e-22)
(0.728596 -0.0236561 3.7464e-22)
(0.749014 0.0477583 4.65861e-23)
(0.775783 0.0869459 5.10662e-22)
(0.763899 0.143453 -7.61389e-23)
(0.771098 0.141508 5.84211e-23)
(0.727065 0.192055 5.06089e-23)
(0.735807 0.139142 -8.16678e-23)
(0.69447 0.240517 -4.50462e-22)
(0.728025 0.30002 -2.8528e-22)
(0.750515 0.334793 2.50159e-22)
(0.747064 0.364875 5.59465e-22)
(0.715359 0.399755 9.52963e-22)
(0.673039 0.422133 -3.64642e-23)
(0.64832 0.399511 -4.52332e-22)
(0.65435 0.317186 1.43165e-21)
(0.690774 0.189254 -7.18255e-22)
(0.743962 0.0480825 -4.01012e-21)
(0.800948 -0.0756973 -3.00697e-21)
(0.849115 -0.165486 9.42043e-22)
(0.882213 -0.218057 1.15606e-21)
(0.897317 -0.244421 4.10387e-21)
(0.898581 -0.244819 1.34575e-21)
(0.898726 -0.229493 -2.04272e-22)
(0.890404 -0.199879 -2.62932e-22)
(0.866743 -0.185447 -5.76347e-22)
(0.814896 -0.17658 -5.67278e-23)
(0.761681 -0.173614 -1.69851e-22)
(0.719229 -0.143161 6.05537e-23)
(0.712545 -0.0896947 1.27674e-22)
(0.726938 -0.024573 -4.01249e-22)
(0.746395 0.0466493 4.76303e-22)
(0.772709 0.0865689 2.08175e-22)
(0.760078 0.143525 4.53305e-22)
(0.767878 0.142236 -1.25704e-22)
(0.723853 0.192762 -1.65152e-22)
(0.735458 0.138936 -5.11379e-23)
(0.69291 0.237508 2.15757e-21)
(0.726712 0.297814 -1.27591e-21)
(0.749096 0.333879 -4.83678e-22)
(0.745231 0.365534 2.58979e-23)
(0.713418 0.401539 -2.11536e-21)
(0.671714 0.423976 3.7758e-22)
(0.648117 0.400485 -2.58643e-21)
(0.655325 0.316942 -5.73874e-22)
(0.692813 0.187969 -3.05927e-21)
(0.746799 0.0462176 2.34429e-21)
(0.804106 -0.077637 9.68826e-22)
(0.852226 -0.167071 -1.97309e-21)
(0.885154 -0.219019 -1.32533e-21)
(0.900074 -0.244745 -8.79579e-22)
(0.90077 -0.244888 -4.79514e-22)
(0.900415 -0.229413 -2.9109e-22)
(0.892175 -0.199247 4.403e-23)
(0.869467 -0.183758 3.59874e-23)
(0.818225 -0.174189 6.7514e-23)
(0.764772 -0.171473 1.81954e-22)
(0.720759 -0.142146 7.4088e-24)
(0.712362 -0.0899894 -3.28408e-22)
(0.725336 -0.0254415 2.20128e-23)
(0.743799 0.0455685 -5.40502e-22)
(0.769635 0.086214 -1.64328e-22)
(0.756284 0.143599 -5.60935e-22)
(0.764708 0.14295 -1.85447e-22)
(0.720758 0.193409 -2.05759e-22)
(0.73524 0.138672 6.98659e-23)
(0.691413 0.234458 -1.71792e-21)
(0.725432 0.29558 3.09833e-21)
(0.747685 0.332953 -6.09565e-22)
(0.743408 0.366177 1.81514e-21)
(0.711515 0.403284 -3.56687e-22)
(0.670449 0.425769 1.37356e-21)
(0.647971 0.40142 1.3091e-21)
(0.656348 0.316683 2.08977e-21)
(0.6949 0.186685 1.23496e-21)
(0.749683 0.0443684 1.6124e-21)
(0.8073 -0.0795514 1.91686e-22)
(0.855352 -0.168633 2.4909e-21)
(0.888092 -0.219964 1.31241e-21)
(0.90283 -0.24505 -1.5569e-21)
(0.902974 -0.244932 -5.94488e-22)
(0.902103 -0.229329 4.16372e-22)
(0.893912 -0.198647 1.52863e-22)
(0.872145 -0.182116 3.44084e-22)
(0.82155 -0.171814 -1.18641e-22)
(0.767919 -0.169295 -4.83648e-23)
(0.722396 -0.14106 -3.17003e-23)
(0.712274 -0.0902168 1.90517e-22)
(0.723794 -0.0262602 -8.77768e-23)
(0.74123 0.0445169 8.82537e-23)
(0.766566 0.0858811 -7.56806e-22)