/*--------------------------------*- C++ -*----------------------------------*\
  =========                 |
  \\      /  F ield         | OpenFOAM: The Open Source CFD Toolbox
   \\    /   O peration     | Website:  https://openfoam.org
    \\  /    A nd           | Version:  7
     \\/     M anipulation  |
\*---------------------------------------------------------------------------*/
FoamFile
{
    version     2.0;
    format      ascii;
    class       volScalarField;
    location    "280";
    object      p;
}
// * * * * * * * * * * * * * * * * * * * * * * * * * * * * * * * * * * * * * //

dimensions      [0 2 -2 0 0 0 0];

internalField   nonuniform List<scalar> 
7158
(
-0.0520497
-0.0549525
-0.0594691
-0.0630009
-0.0633025
-0.0597854
-0.0540416
-0.0477868
-0.0430388
-0.0401801
-0.0400914
-0.0413587
-0.042822
-0.0423962
-0.0403083
-0.0358369
-0.0324276
-0.028588
-0.0286121
-0.0282346
-0.0297187
-0.0272344
-0.0258115
-0.0181259
-0.0165846
-0.00945654
-0.0103184
-0.00305914
-0.00567707
-0.0523442
-0.055659
-0.0605476
-0.0643569
-0.0647663
-0.0611722
-0.0551918
-0.0486119
-0.0434984
-0.0402405
-0.039769
-0.0406697
-0.0418803
-0.0413038
-0.0392476
-0.0349377
-0.0318119
-0.0283633
-0.0287482
-0.0287954
-0.0305091
-0.0282632
-0.0267935
-0.0189864
-0.0171837
-0.00963254
-0.0102972
-0.00275702
-0.0054068
-0.0526282
-0.0563582
-0.0616233
-0.0657146
-0.0662346
-0.0625629
-0.0563423
-0.0494334
-0.0439524
-0.0402954
-0.0394434
-0.0399811
-0.0409421
-0.0402164
-0.0381901
-0.034039
-0.0311939
-0.0281349
-0.0288808
-0.0293543
-0.0312991
-0.0292932
-0.0277756
-0.0198471
-0.017781
-0.00980705
-0.0102743
-0.00245643
-0.00513641
-0.0529009
-0.057049
-0.0626951
-0.0670732
-0.0677066
-0.0639569
-0.0574928
-0.0502511
-0.0444007
-0.0403451
-0.0391151
-0.0392933
-0.040008
-0.0391343
-0.0371362
-0.0331412
-0.0305737
-0.0279029
-0.0290098
-0.0299107
-0.0320884
-0.030324
-0.0287574
-0.0207078
-0.0183765
-0.00998008
-0.01025
-0.00215751
-0.00486602
-0.0531616
-0.0577305
-0.0637619
-0.0684315
-0.0691814
-0.0653535
-0.0586429
-0.0510648
-0.0448434
-0.0403898
-0.0387845
-0.0386068
-0.0390783
-0.0380579
-0.0360863
-0.0322444
-0.0299513
-0.0276671
-0.0291349
-0.0304646
-0.0328768
-0.0313554
-0.0297387
-0.0215681
-0.0189699
-0.0101517
-0.0102242
-0.00186043
-0.00459569
-0.0534094
-0.0584016
-0.0648226
-0.0697885
-0.0706582
-0.0667523
-0.0597923
-0.0518746
-0.0452807
-0.0404299
-0.038452
-0.037922
-0.0381535
-0.0369877
-0.0350406
-0.0313489
-0.029327
-0.0274274
-0.0292559
-0.0310155
-0.0336638
-0.0323869
-0.0307192
-0.0224279
-0.0195611
-0.0103218
-0.010197
-0.00156533
-0.00432551
-0.0536436
-0.0590614
-0.0658761
-0.071143
-0.072136
-0.0681526
-0.0609407
-0.0526802
-0.0457127
-0.0404656
-0.0381179
-0.0372394
-0.037234
-0.035924
-0.0339995
-0.0304549
-0.0287006
-0.0271839
-0.0293726
-0.0315631
-0.0344492
-0.0334182
-0.0316985
-0.0232869
-0.0201502
-0.0104905
-0.0101685
-0.00127238
-0.00405556
-0.0538636
-0.0597089
-0.0669211
-0.0724939
-0.0736139
-0.0695538
-0.0620878
-0.0534816
-0.0461394
-0.0404972
-0.0377827
-0.0365594
-0.0363201
-0.0348671
-0.0329633
-0.0295627
-0.0280724
-0.0269363
-0.0294848
-0.0321072
-0.0352327
-0.0344489
-0.0326765
-0.0241448
-0.0207368
-0.0106579
-0.0101388
-0.000981715
-0.00378593
-0.0540685
-0.0603431
-0.0679565
-0.0738401
-0.075091
-0.0709553
-0.0632332
-0.0542787
-0.046561
-0.0405249
-0.0374467
-0.0358824
-0.0354124
-0.0338175
-0.0319322
-0.0286725
-0.0274424
-0.0266847
-0.0295923
-0.0326474
-0.0360139
-0.0354788
-0.0336528
-0.0250013
-0.021321
-0.0108238
-0.0101079
-0.000693497
-0.00351669
-0.0542576
-0.0609628
-0.0689812
-0.0751804
-0.0765664
-0.0723563
-0.0643766
-0.0550714
-0.0469775
-0.0405491
-0.0371102
-0.0352088
-0.0345111
-0.0327754
-0.0309066
-0.0277845
-0.0268107
-0.0264289
-0.0296949
-0.0331835
-0.0367925
-0.0365073
-0.034627
-0.0258563
-0.0219025
-0.0109884
-0.0100759
-0.000407874
-0.00324793
-0.0544302
-0.0615672
-0.0699939
-0.0765137
-0.0780389
-0.0737564
-0.0655176
-0.0558596
-0.047389
-0.0405699
-0.0367737
-0.034539
-0.0336167
-0.0317412
-0.0298867
-0.026899
-0.0261773
-0.026169
-0.0297923
-0.0337151
-0.0375683
-0.0375342
-0.035599
-0.0267094
-0.0224813
-0.0111516
-0.0100428
-0.000124994
-0.00297972
-0.0545856
-0.0621552
-0.0709935
-0.0778387
-0.0795078
-0.0751547
-0.0666561
-0.0566431
-0.0477956
-0.0405875
-0.0364375
-0.0338734
-0.0327295
-0.0307153
-0.0288729
-0.0260161
-0.0255425
-0.0259048
-0.0298844
-0.034242
-0.0383408
-0.0385592
-0.0365684
-0.0275603
-0.0230573
-0.0113135
-0.0100087
0.000154992
-0.00271215
-0.0547231
-0.0627257
-0.0719787
-0.0791542
-0.0809719
-0.0765506
-0.0677915
-0.057422
-0.0481975
-0.0406023
-0.0361018
-0.0332123
-0.0318498
-0.029698
-0.0278654
-0.0251362
-0.0249062
-0.0256363
-0.029971
-0.0347638
-0.0391098
-0.0395818
-0.037535
-0.0284089
-0.0236302
-0.0114741
-0.00997373
0.000431941
-0.00244528
-0.054842
-0.0632779
-0.0729483
-0.080459
-0.0824302
-0.0779435
-0.0689235
-0.0581961
-0.0485947
-0.0406144
-0.0357671
-0.0325562
-0.0309779
-0.0286896
-0.0268645
-0.0242594
-0.0242686
-0.0253634
-0.0300518
-0.0352803
-0.039875
-0.0406018
-0.0384983
-0.0292548
-0.0242001
-0.0116334
-0.00993789
0.00070571
-0.00217919
-0.0549416
-0.0638106
-0.0739011
-0.0817519
-0.0838817
-0.0793326
-0.0700519
-0.0589653
-0.0489872
-0.0406241
-0.0354335
-0.0319052
-0.0301143
-0.0276904
-0.0258705
-0.023386
-0.0236297
-0.025086
-0.0301267
-0.035791
-0.0406361
-0.0416187
-0.0394583
-0.0300977
-0.0247666
-0.0117914
-0.00990124
0.000976152
-0.00191395
-0.0550214
-0.064323
-0.074836
-0.0830316
-0.0853253
-0.0807172
-0.0711762
-0.0597296
-0.0493752
-0.0406316
-0.0351015
-0.0312598
-0.0292592
-0.0267008
-0.0248837
-0.0225161
-0.0229897
-0.0248041
-0.0301955
-0.0362959
-0.0413926
-0.0426322
-0.0404145
-0.0309374
-0.0253298
-0.011948
-0.00986385
0.00124313
-0.00164963
-0.0550806
-0.064814
-0.0757517
-0.0842969
-0.0867599
-0.0820966
-0.0722961
-0.0604888
-0.0497588
-0.040637
-0.0347712
-0.0306202
-0.0284129
-0.0257209
-0.0239042
-0.0216501
-0.0223485
-0.0245177
-0.0302579
-0.0367945
-0.0421444
-0.043642
-0.0413666
-0.0317737
-0.0258895
-0.0121034
-0.00982578
0.0015065
-0.00138631
-0.0551188
-0.0652827
-0.076647
-0.0855466
-0.0881846
-0.0834701
-0.0734113
-0.0612429
-0.0501381
-0.0406407
-0.0344429
-0.0299868
-0.0275757
-0.0247511
-0.0229324
-0.0207881
-0.0217064
-0.0242266
-0.0303138
-0.0372865
-0.0428911
-0.0446478
-0.0423145
-0.0326061
-0.0264455
-0.0122575
-0.00978708
0.00176614
-0.00112404
-0.0551353
-0.0657281
-0.0775208
-0.0867793
-0.0895981
-0.0848369
-0.0745213
-0.0619917
-0.0505131
-0.0406427
-0.034117
-0.0293598
-0.0267478
-0.0237917
-0.0219684
-0.0199303
-0.0210634
-0.0239309
-0.030363
-0.0377717
-0.0436325
-0.0456492
-0.0432577
-0.0334345
-0.0269977
-0.0124103
-0.00974781
0.00202189
-0.000862906
-0.0551295
-0.0661495
-0.0783718
-0.0879939
-0.0909995
-0.0861962
-0.0756258
-0.0627353
-0.0508838
-0.0406433
-0.0337936
-0.0287395
-0.0259296
-0.022843
-0.0210127
-0.019077
-0.0204196
-0.0236305
-0.0304053
-0.0382498
-0.0443681
-0.0466458
-0.0441961
-0.0342585
-0.0275459
-0.0125619
-0.00970801
0.00227364
-0.000602956
-0.0551011
-0.0665458
-0.079199
-0.0891892
-0.0923876
-0.0875474
-0.0767244
-0.0634734
-0.0512505
-0.0406427
-0.0334729
-0.0281262
-0.0251212
-0.0219051
-0.0200653
-0.0182284
-0.019775
-0.0233253
-0.0304405
-0.0387205
-0.0450977
-0.0476373
-0.0451293
-0.035078
-0.0280901
-0.0127121
-0.00966775
0.00252126
-0.000344255
-0.0550494
-0.0669163
-0.0800012
-0.0903638
-0.0937613
-0.0888895
-0.0778167
-0.0642061
-0.0516131
-0.0406409
-0.0331552
-0.02752
-0.024323
-0.0209784
-0.0191266
-0.0173847
-0.0191299
-0.0230153
-0.0304685
-0.0391834
-0.0458211
-0.0486234
-0.0460571
-0.0358925
-0.02863
-0.0128611
-0.00962706
0.0027646
-8.68673e-05
-0.0549741
-0.0672601
-0.0807774
-0.0915166
-0.0951195
-0.090222
-0.0789024
-0.0649331
-0.0519718
-0.0406383
-0.0328407
-0.0269213
-0.0235351
-0.020063
-0.0181967
-0.0165461
-0.0184842
-0.0227005
-0.030489
-0.0396384
-0.0465378
-0.0496038
-0.0469791
-0.0367019
-0.0291655
-0.0130087
-0.009586
0.00300356
0.000169148
-0.0548747
-0.0675765
-0.0815263
-0.0926464
-0.0964612
-0.0915439
-0.079981
-0.0656545
-0.0523265
-0.0406349
-0.0325296
-0.0263302
-0.0227577
-0.0191593
-0.0172759
-0.0157127
-0.0178382
-0.0223808
-0.0305019
-0.0400852
-0.0472477
-0.0505781
-0.0478951
-0.0375059
-0.0296965
-0.0131551
-0.00954461
0.00323799
0.000423732
-0.0547509
-0.0678647
-0.0822471
-0.093752
-0.0977851
-0.0928544
-0.0810521
-0.0663701
-0.0526774
-0.0406308
-0.032222
-0.0257468
-0.021991
-0.0182674
-0.0163644
-0.0148849
-0.0171918
-0.0220562
-0.0305071
-0.0405234
-0.0479504
-0.051546
-0.0488049
-0.038304
-0.0302229
-0.0133001
-0.00950292
0.0034678
0.000676833
-0.0546023
-0.0681239
-0.0829386
-0.0948322
-0.0990904
-0.0941528
-0.0821154
-0.0670799
-0.0530246
-0.0406262
-0.0319182
-0.0251715
-0.0212352
-0.0173875
-0.0154624
-0.0140628
-0.0165453
-0.0217267
-0.0305043
-0.0409528
-0.0486456
-0.0525071
-0.0497081
-0.0390962
-0.0307444
-0.0134438
-0.00946099
0.00369286
0.000928395
-0.0544287
-0.0683535
-0.0835999
-0.0958859
-0.100376
-0.0954383
-0.0831703
-0.0677836
-0.053368
-0.0406214
-0.0316182
-0.0246044
-0.0204906
-0.0165198
-0.0145701
-0.0132466
-0.0158986
-0.0213923
-0.0304935
-0.0413732
-0.0493331
-0.0534612
-0.0506045
-0.0398821
-0.031261
-0.0135862
-0.00941885
0.00391306
0.00117836
-0.0542298
-0.068553
-0.08423
-0.0969119
-0.10164
-0.0967101
-0.0842165
-0.0684813
-0.0537078
-0.0406162
-0.0313223
-0.0240456
-0.0197572
-0.0156646
-0.0136878
-0.0124366
-0.015252
-0.021053
-0.0304744
-0.0417842
-0.0500125
-0.054408
-0.0514939
-0.0406614
-0.0317724
-0.0137272
-0.00937653
0.00412828
0.00142669
-0.0540054
-0.0687215
-0.084828
-0.0979091
-0.102883
-0.0979673
-0.0852536
-0.0691728
-0.0540439
-0.040611
-0.0310305
-0.0234952
-0.0190351
-0.014822
-0.0128155
-0.0116328
-0.0146054
-0.0207087
-0.0304469
-0.0421856
-0.0506836
-0.055347
-0.0523759
-0.0414338
-0.0322786
-0.0138668
-0.00933407
0.00433841
0.00167333
-0.0537552
-0.0688588
-0.0853931
-0.0988766
-0.104102
-0.0992091
-0.086281
-0.069858
-0.0543765
-0.0406058
-0.0307429
-0.0229535
-0.0183246
-0.0139922
-0.0119535
-0.0108356
-0.0139592
-0.0203595
-0.0304109
-0.0425772
-0.0513461
-0.0562781
-0.0532503
-0.0421991
-0.0327793
-0.014005
-0.00929149
0.00454336
0.00191822
-0.0534792
-0.0689641
-0.0859243
-0.0998132
-0.105297
-0.100435
-0.0872983
-0.0705367
-0.0547056
-0.0406006
-0.0304598
-0.0224204
-0.0176258
-0.0131753
-0.011102
-0.010045
-0.0133132
-0.0200053
-0.0303663
-0.0429586
-0.0519998
-0.0572009
-0.0541169
-0.042957
-0.0332745
-0.0141417
-0.00924883
0.00474303
0.00216134
-0.0531774
-0.0690372
-0.086421
-0.100718
-0.106467
-0.101643
-0.0883052
-0.071209
-0.0550313
-0.0405957
-0.0301811
-0.0218962
-0.0169387
-0.0123715
-0.0102612
-0.00926139
-0.0126678
-0.0196462
-0.0303129
-0.0433297
-0.0526443
-0.0581151
-0.0549754
-0.0437072
-0.033764
-0.014277
-0.0092061
0.00493731
0.00240263
-0.0528496
-0.0690776
-0.0868824
-0.10159
-0.107611
-0.102834
-0.089301
-0.0718745
-0.0553535
-0.0405911
-0.0299069
-0.0213809
-0.0162634
-0.011581
-0.00943121
-0.00848483
-0.012023
-0.0192822
-0.0302506
-0.0436902
-0.0532793
-0.0590203
-0.0558255
-0.0444494
-0.0342476
-0.0144108
-0.00916333
0.00512611
0.00264205
-0.0524959
-0.0690848
-0.0873078
-0.102428
-0.108728
-0.104006
-0.0902854
-0.0725333
-0.0556723
-0.0405868
-0.0296374
-0.0208746
-0.0156001
-0.0108038
-0.00861221
-0.00771554
-0.0113788
-0.0189134
-0.0301794
-0.0440398
-0.0539047
-0.0599164
-0.0566671
-0.0451834
-0.0347251
-0.014543
-0.00912053
0.00530934
0.00287957
-0.0521163
-0.0690588
-0.0876966
-0.103232
-0.109817
-0.105159
-0.0912578
-0.0731851
-0.0559877
-0.040583
-0.0293726
-0.0203772
-0.0149488
-0.0100401
-0.00780437
-0.0069537
-0.0107355
-0.0185396
-0.030099
-0.0443784
-0.0545202
-0.0608029
-0.0574998
-0.0459088
-0.0351965
-0.0146737
-0.00907773
0.00548692
0.00311514
-0.0517109
-0.0689991
-0.0880481
-0.104
-0.110877
-0.106292
-0.0922178
-0.0738298
-0.0562998
-0.0405797
-0.0291126
-0.019889
-0.0143096
-0.00929003
-0.00700785
-0.00619951
-0.0100932
-0.018161
-0.0300094
-0.0447056
-0.0551254
-0.0616796
-0.0583234
-0.0466255
-0.0356616
-0.0148027
-0.00903494
0.00565877
0.00334874
-0.0512799
-0.0689056
-0.0883619
-0.104731
-0.111907
-0.107403
-0.0931649
-0.0744674
-0.0566087
-0.040577
-0.0288574
-0.0194099
-0.0136825
-0.00855367
-0.0062228
-0.00545315
-0.00945207
-0.0177777
-0.0299106
-0.0450213
-0.0557202
-0.0625462
-0.0591378
-0.0473331
-0.0361202
-0.0149301
-0.00899215
0.0058248
0.00358033
-0.0508235
-0.0687782
-0.0886374
-0.105426
-0.112906
-0.108493
-0.0940985
-0.0750975
-0.0569142
-0.0405749
-0.028607
-0.01894
-0.0130675
-0.00783111
-0.00544938
-0.00471479
-0.00881214
-0.0173896
-0.0298023
-0.0453252
-0.0563043
-0.0634025
-0.0599425
-0.0480315
-0.0365721
-0.0150558
-0.00894939
0.00598495
0.00380987
-0.0503419
-0.0686167
-0.0888743
-0.106083
-0.113873
-0.10956
-0.0950182
-0.0757201
-0.0572165
-0.0405736
-0.0283615
-0.0184791
-0.0124648
-0.00712245
-0.00468773
-0.00398463
-0.00817361
-0.0169968
-0.0296847
-0.0456171
-0.0568774
-0.064248
-0.0607375
-0.0487202
-0.0370173
-0.0151797
-0.00890666
0.00613914
0.00403735
-0.0498353
-0.0684212
-0.0890721
-0.106701
-0.114808
-0.110604
-0.0959235
-0.0763349
-0.0575156
-0.040573
-0.0281208
-0.0180275
-0.0118742
-0.00642776
-0.003938
-0.00326285
-0.00753663
-0.0165994
-0.0295575
-0.0458968
-0.0574392
-0.0650826
-0.0615225
-0.0493991
-0.0374556
-0.0153018
-0.00886395
0.00628732
0.00426272
-0.0493042
-0.0681917
-0.0892306
-0.107281
-0.115709
-0.111623
-0.0968137
-0.0769419
-0.0578114
-0.0405732
-0.0278851
-0.0175849
-0.0112959
-0.00574709
-0.00320031
-0.00254963
-0.00690134
-0.0161974
-0.0294208
-0.0461641
-0.0579897
-0.065906
-0.0622973
-0.050068
-0.0378868
-0.015422
-0.00882127
0.00642941
0.00448598
-0.0487489
-0.0679282
-0.0893495
-0.10782
-0.116576
-0.112618
-0.0976885
-0.0775408
-0.0581039
-0.0405743
-0.0276543
-0.0171515
-0.0107298
-0.00508054
-0.00247483
-0.00184516
-0.00626792
-0.015791
-0.0292744
-0.0464188
-0.0585284
-0.0667178
-0.0630616
-0.0507265
-0.0383109
-0.0155403
-0.00877861
0.00656536
0.00470709
-0.0481698
-0.0676308
-0.0894285
-0.10832
-0.117408
-0.113586
-0.0985472
-0.0781314
-0.0583934
-0.0405763
-0.0274285
-0.0167273
-0.010176
-0.00442823
-0.00176173
-0.00114968
-0.00563654
-0.0153802
-0.0291184
-0.0466607
-0.0590551
-0.0675178
-0.0638151
-0.0513744
-0.0387275
-0.0156567
-0.00873599
0.00669513
0.00492602
-0.0475673
-0.0672997
-0.0894674
-0.108778
-0.118205
-0.114528
-0.0993894
-0.0787138
-0.0586799
-0.0405794
-0.0272077
-0.0163121
-0.00963432
-0.00379016
-0.00106116
-0.000463402
-0.00500739
-0.014965
-0.0289527
-0.0468896
-0.0595697
-0.0683056
-0.0645578
-0.0520115
-0.0391368
-0.015771
-0.00869337
0.00681865
0.00514277
-0.0469419
-0.0669353
-0.0894664
-0.109196
-0.118965
-0.115444
-0.100215
-0.0792877
-0.0589627
-0.0405829
-0.0269911
-0.015905
-0.00910396
-0.0031656
-0.0003727
0.000213784
-0.00438054
-0.0145457
-0.0287774
-0.0471053
-0.0600719
-0.0690813
-0.0652896
-0.0526377
-0.0395383
-0.0158832
-0.00865055
0.00693592
0.00535733
-0.0462945
-0.0665386
-0.0894269
-0.109575
-0.119692
-0.116335
-0.101024
-0.0798512
-0.05924
-0.040585
-0.0267774
-0.0155051
-0.00858389
-0.00255358
0.000304394
0.000882309
-0.00375589
-0.0141222
-0.0285925
-0.0473082
-0.0605622
-0.069845
-0.0660104
-0.0532527
-0.0399317
-0.0159931
-0.00860737
0.00704698
0.00556971
-0.0456259
-0.0661098
-0.0893478
-0.109911
-0.120378
-0.117191
-0.101809
-0.0804015
-0.0595129
-0.0405889
-0.0265707
-0.0151172
-0.00807955
-0.00195921
0.000966286
0.00153967
-0.0031347
-0.013695
-0.0283981
-0.0474975
-0.0610391
-0.0705948
-0.0667183
-0.053855
-0.0403171
-0.0161002
-0.00856507
0.00715167
0.00577968
-0.0449345
-0.0656373
-0.0892064
-0.110172
-0.120986
-0.117984
-0.10256
-0.080947
-0.0597984
-0.0406115
-0.0263878
-0.014757
-0.00760793
-0.00139991
0.00159783
0.0021748
-0.00252259
-0.0132653
-0.0281912
-0.047667
-0.0614945
-0.0713233
-0.0674083
-0.0544431
-0.0406974
-0.0162051
-0.00852721
0.00724918
0.00598671
-0.0442133
-0.065105
-0.0889816
-0.110342
-0.121521
-0.118743
-0.103319
-0.0815224
-0.0601164
-0.0406609
-0.0262254
-0.0144146
-0.00715407
-0.000861617
0.00220874
0.00279271
-0.00191688
-0.0128304
-0.0279687
-0.0478131
-0.0619278
-0.0720338
-0.0680876
-0.0550244
-0.0410751
-0.0163124
-0.00849011
0.00733901
0.00619186
-0.0434817
-0.0646503
-0.0889311
-0.110776
-0.122368
-0.119774
-0.104224
-0.0821206
-0.060373
-0.0406228
-0.0259537
-0.0139497
-0.0065533
-0.000168481
0.00296052
0.00351564
-0.00125011
-0.0123731
-0.0277593
-0.0480023
-0.0624261
-0.072806
-0.0688135
-0.0556251
-0.0414327
-0.0164254
-0.00841791
0.00742657
0.00640214
-0.0643432
-0.0901557
-0.113393
-0.12579
-0.123142
-0.106641
-0.0834035
-0.0606734
-0.0402458
-0.0250348
-0.0125731
-0.00478002
0.00189167
0.00516599
0.00557692
0.000507533
-0.0112787
-0.0274167
-0.0486994
-0.0638438
-0.0747407
-0.0705413
-0.0569554
-0.0421233
-0.0166689
-0.00815951
0.00761804
0.00685474
-0.063582
-0.0903399
-0.114495
-0.127511
-0.124795
-0.108033
-0.0839654
-0.0604334
-0.0394077
-0.0237529
-0.010983
-0.00299282
0.00380106
0.0070161
0.00749415
0.00223331
-0.0101202
-0.0269369
-0.0493771
-0.0653392
-0.0769134
-0.0725658
-0.0584648
-0.0429458
-0.0169195
-0.00786308
0.00783507
0.00740164
-0.0625845
-0.0899982
-0.114926
-0.128648
-0.126197
-0.109086
-0.0842898
-0.060033
-0.0384696
-0.022438
-0.00941357
-0.00127865
0.00560203
0.00883373
0.00924951
0.0038221
-0.00901957
-0.0263968
-0.0499299
-0.0666585
-0.0789239
-0.0744553
-0.0598217
-0.043674
-0.0171166
-0.007574
0.00800903
0.00789474
-0.0613602
-0.0894854
-0.115254
-0.129659
-0.127374
-0.109871
-0.0843734
-0.0594508
-0.0374132
-0.0210674
-0.0078334
0.000421284
0.00738661
0.010654
0.0110273
0.00546415
-0.0078503
-0.0257765
-0.0504101
-0.0679255
-0.0808623
-0.0762522
-0.0610458
-0.0442975
-0.0172588
-0.00727932
0.00813551
0.00834563
-0.0599343
-0.0887628
-0.115309
-0.130259
-0.128085
-0.110251
-0.0841521
-0.0586637
-0.036233
-0.0196443
-0.00625647
0.00207336
0.00909346
0.012395
0.0127557
0.00710514
-0.00664072
-0.0250871
-0.0507915
-0.0690945
-0.0826573
-0.0779055
-0.0621007
-0.0447984
-0.0173401
-0.00697966
0.00820932
0.00874744
-0.0582875
-0.0876977
-0.114879
-0.13029
-0.128247
-0.110176
-0.0836028
-0.057663
-0.0349285
-0.0181714
-0.00468826
0.00366768
0.0107042
0.0140278
0.0143872
0.00869544
-0.00542094
-0.0243268
-0.0510369
-0.070108
-0.0842573
-0.0793828
-0.0629665
-0.0451643
-0.0173564
-0.00667351
0.00822782
0.00909606
-0.0563873
-0.08622
-0.113903
-0.129724
-0.127828
-0.109617
-0.082705
-0.0564406
-0.0334998
-0.0166512
-0.00313205
0.00520258
0.0122174
0.0155494
0.0159133
0.0102242
-0.00419599
-0.0234863
-0.0511222
-0.070935
-0.0856343
-0.08066
-0.0636275
-0.045383
-0.0173043
-0.00635836
0.00818936
0.00939002
-0.0542213
-0.0843214
-0.11238
-0.128538
-0.126791
-0.108541
-0.0814393
-0.0549898
-0.0319484
-0.0150873
-0.00159136
0.00667657
0.0136312
0.016959
0.0173329
0.0116907
-0.00296424
-0.0225591
-0.0510319
-0.0715522
-0.0867588
-0.0817092
-0.0640677
-0.0454424
-0.0171802
-0.00603177
0.00809309
0.00962833
-0.0517957
-0.0820065
-0.110295
-0.126697
-0.125102
-0.106919
-0.0797895
-0.0533061
-0.0302772
-0.0134842
-7.02751e-05
0.00808784
0.0149431
0.0182541
0.0186421
0.0130914
-0.00172716
-0.0215427
-0.0507503
-0.0719315
-0.087595
-0.0824996
-0.0642707
-0.0453309
-0.0169812
-0.00569148
0.0079391
0.00981018
-0.0491216
-0.0792722
-0.107625
-0.124171
-0.122734
-0.10473
-0.077744
-0.0513874
-0.028491
-0.0118477
0.00142656
0.00943463
0.0161513
0.0194323
0.0198361
0.0144198
-0.000488801
-0.0204349
-0.0502592
-0.0720404
-0.0881045
-0.0829979
-0.0642207
-0.0450381
-0.0167051
-0.00533559
0.00772869
0.00993516
-0.046209
-0.0761146
-0.104357
-0.120943
-0.119671
-0.101963
-0.0752966
-0.0492348
-0.0265962
-0.0101844
0.00289391
0.0107153
0.0172552
0.0204911
0.0209104
0.0156689
0.000746186
-0.0192341
-0.0495398
-0.0718459
-0.0882477
-0.0831697
-0.0639029
-0.0445547
-0.0163506
-0.00496275
0.00746441
0.0100033
-0.043071
-0.0725381
-0.100488
-0.117006
-0.115905
-0.098612
-0.0724474
-0.0468527
-0.024601
-0.00850237
0.00432597
0.0119282
0.0182548
0.0214322
0.0218618
0.016832
0.00197292
-0.0179398
-0.0485747
-0.0713153
-0.0879849
-0.0829798
-0.0633038
-0.043873
-0.0159175
-0.00457241
0.00715029
0.0100153
-0.039727
-0.0685572
-0.0960246
-0.112364
-0.111444
-0.094685
-0.069204
-0.0442494
-0.0225153
-0.00681032
0.00571633
0.0130714
0.019151
0.0222548
0.0226881
0.0179029
0.00318597
-0.0165529
-0.0473489
-0.070418
-0.0872779
-0.0823938
-0.0624114
-0.0429877
-0.0154069
-0.00416502
0.00679188
0.00997213
-0.036203
-0.0641954
-0.0909869
-0.107036
-0.106306
-0.0902004
-0.065582
-0.0414373
-0.0203509
-0.00511789
0.00705807
0.0141427
0.0199453
0.0229602
0.0233879
0.018875
0.00437905
-0.015077
-0.0458505
-0.0691264
-0.0860919
-0.0813795
-0.0612161
-0.0418958
-0.0148214
-0.00374224
0.00639629
0.00987543
-0.0325313
-0.0594847
-0.0854056
-0.101052
-0.100526
-0.0851892
-0.061606
-0.0384336
-0.0181209
-0.00343523
0.00834392
0.0151398
0.0206397
0.0235502
0.0239612
0.0197422
0.00554512
-0.0135177
-0.0440723
-0.0674184
-0.0843977
-0.0799087
-0.0597115
-0.0405973
-0.0141652
-0.00330709
0.00597216
0.00972729
-0.0287488
-0.0544668
-0.0793255
-0.0944613
-0.0941524
-0.0796955
-0.0573096
-0.0352601
-0.0158403
-0.0017728
0.00956648
0.0160597
0.0212368
0.0240275
0.024409
0.0204984
0.00667636
-0.0118833
-0.0420122
-0.0652793
-0.0821743
-0.0779594
-0.0578949
-0.0390954
-0.0134442
-0.002864
0.00552942
0.00952987
-0.0248974
-0.0491927
-0.0728049
-0.0873258
-0.0872489
-0.0737765
-0.0527354
-0.0319433
-0.0135252
-0.000141023
0.0107185
0.0168991
0.0217396
0.0243954
0.0247336
0.0211383
0.00776428
-0.0101849
-0.0396752
-0.0627038
-0.0794115
-0.0755181
-0.0557683
-0.0373971
-0.0126662
-0.00241871
0.0050791
0.00928604
-0.0210224
-0.0437228
-0.0659166
-0.0797259
-0.0798948
-0.0675024
-0.0479351
-0.0285146
-0.0111927
0.00144999
0.0117931
0.0176546
0.0221512
0.0246577
0.0249387
0.0216572
0.00879981
-0.00843646
-0.0370738
-0.0596977
-0.0761122
-0.0725823
-0.0533396
-0.0355132
-0.0118402
-0.00197809
0.004633
0.00899819
-0.0171716
-0.0381254
-0.0587466
-0.0717581
-0.0721749
-0.0609556
-0.0429678
-0.0250092
-0.00886092
0.00299079
0.0127846
0.0183226
0.0224745
0.0248186
0.025029
0.0220514
0.00977343
-0.00665475
-0.0342288
-0.0562796
-0.0722941
-0.069162
-0.0506229
-0.0334586
-0.0109769
-0.00154967
0.00420287
0.00866883
-0.0133932
-0.0324757
-0.0513943
-0.063535
-0.0641921
-0.0542289
-0.0378991
-0.0214661
-0.00654868
0.00447283
0.0136882
0.0189002
0.0227126
0.0248827
0.0250107
0.0223185
0.0106755
-0.00485911
-0.0311698
-0.0524815
-0.0679912
-0.0652816
-0.0476395
-0.0312527
-0.0100877
-0.00114112
0.00379978
0.00830056
-0.00973339
-0.026853
-0.0439698
-0.0551828
-0.0561296
-0.0474258
-0.0327991
-0.0179263
-0.0042749
0.00588871
0.014501
0.0193851
0.0228684
0.024855
0.0248909
0.0224574
0.0114966
-0.00307107
-0.0279346
-0.0483497
-0.0632545
-0.0609806
-0.0444182
-0.0289187
-0.00918448
-0.000759551
0.00343345
0.00789606
-0.00623448
-0.0213388
-0.0365914
-0.0468358
-0.0480771
-0.0406501
-0.0277397
-0.0144321
-0.00205844
0.00723226
0.0152219
0.0197765
0.0229446
0.0247408
0.0246777
0.0224691
0.0122279
-0.00131369
-0.0245687
-0.0439435
-0.0581509
-0.0563138
-0.0409958
-0.026484
-0.00827911
-0.00041076
0.00311145
0.00745806
-0.00293234
-0.0160131
-0.0293803
-0.0386376
-0.0401629
-0.0340025
-0.0227911
-0.0110248
8.24107e-05
0.00849863
0.0158519
0.0200756
0.0229443
0.0245462
0.02438
0.0223571
0.0128621
0.000389299
-0.0211241
-0.0393342
-0.052762
-0.0513512
-0.0374163
-0.0239796
-0.00738261
-9.85878e-05
0.00283856
0.00698966
0.000145644
-0.0109512
-0.0224562
-0.0307282
-0.0325173
-0.0275844
-0.0180202
-0.0077437
0.00213047
0.0096842
0.0163938
0.0202855
0.0228711
0.0242777
0.024008
0.0221278
0.0133939
0.00201455
-0.0176581
-0.0346022
-0.0471822
-0.0461757
-0.0337306
-0.0214395
-0.00650472
0.000175506
0.00261637
0.00649469
0.00298183
-0.0062192
-0.0159301
-0.0232393
-0.0252646
-0.0214909
-0.013487
-0.00462367
0.00407019
0.0107865
0.0168525
0.0204118
0.0227299
0.0239431
0.0235725
0.0217911
0.0138211
0.00354019
-0.0142306
-0.0298351
-0.0415152
-0.0408805
-0.0299948
-0.0189
-0.00565343
0.000412551
0.00244336
0.00597796
0.00556915
-0.00187034
-0.00989923
-0.0162902
-0.0185156
-0.0158021
-0.00924182
-0.00169404
0.00588826
0.011804
0.0172345
0.0204623
0.022527
0.0235514
0.0230861
0.0213615
0.0141453
0.00494701
-0.0109019
-0.0251239
-0.03587
-0.0355659
-0.0262687
-0.0163983
-0.00483474
0.000616001
0.00231499
0.00544555
0.00791152
0.00205899
-0.0044406
-0.00997807
-0.0123573
-0.0105804
-0.00532273
0.00102277
0.00757408
0.012736
0.0175471
0.0204463
0.0222707
0.0231132
0.0225636
0.020858
0.0143724
0.00621967
-0.00773061
-0.0205594
-0.0303554
-0.0303351
-0.0226133
-0.0139714
-0.00405269
0.000791294
0.00222433
0.0049049
0.0100235
0.00555161
0.000394683
-0.00437116
-0.00684974
-0.00586695
-0.00175452
0.00351186
0.0091202
0.0135825
0.0177984
0.0203742
0.0219706
0.0226406
0.0220191
0.0203034
0.0145132
0.0073474
-0.00477128
-0.0162276
-0.0250759
-0.0252885
-0.0190884
-0.0116543
-0.00330959
0.000945095
0.00216285
0.00436464
0.0119283
0.00861017
0.00458484
0.000496447
-0.00202142
-0.00168021
0.00145175
0.00576592
0.0105225
0.0143441
0.0179966
0.020257
0.0216378
0.0221457
0.0214672
0.0197236
0.0145815
0.00832429
-0.00207126
-0.0122047
-0.0201257
-0.0205045
-0.0157492
-0.0094784
-0.00260648
0.00108432
0.00212142
0.00383429
0.0136529
0.0112543
0.00813828
0.00462782
0.00213199
0.00198401
0.00429786
0.00778463
0.01178
0.0150222
0.0181492
0.0201049
0.0212834
0.0216406
0.0209211
0.0191446
0.0145933
0.00914921
0.000332023
-0.00855325
-0.0155849
-0.0161012
-0.0126447
-0.00746965
-0.00194373
0.00121511
0.00209133
0.00332367
0.0152187
0.0135137
0.0110903
0.00806153
0.00564516
0.00514934
0.00679623
0.00957361
0.0128952
0.0156185
0.018263
0.0199278
0.0209179
0.0211365
0.0203915
0.0185888
0.0145634
0.00982546
0.00241392
-0.0053171
-0.0115118
-0.0121237
-0.00981231
-0.00564727
-0.00132155
0.00134197
0.00206512
0.00284221
0.0166331
0.0154193
0.0134963
0.0108647
0.00857589
0.00785376
0.00896703
0.011143
0.0138727
0.0161356
0.0183437
0.0197337
0.0205499
0.0206423
0.0198853
0.0180725
0.014504
0.0103607
0.00416519
-0.00251829
-0.00794067
-0.00861343
-0.00727765
-0.00402247
-0.000740401
0.00146726
0.00203719
0.0023982
0.0178863
0.0169983
0.0154229
0.0131215
0.0109946
0.0101434
0.0108351
0.012506
0.0147196
0.0165771
0.0183955
0.0195295
0.0201863
0.0201647
0.0194059
0.0176041
0.0144239
0.0107677
0.00559413
-0.000155363
-0.00487961
-0.00558902
-0.00505259
-0.00259797
-0.000201219
0.00159107
0.00200409
0.0019982
0.0189601
0.0182755
0.0169402
0.01492
0.0129743
0.0120666
0.0124272
0.0136778
0.0154446
0.0169469
0.018422
0.0193205
0.0198318
0.0197082
0.0189534
0.0171848
0.0143291
0.0110645
0.00672669
0.00179584
-0.00231135
-0.00304481
-0.00313621
-0.00136794
0.000294853
0.00171155
0.00196451
0.00164656
0.0198405
0.0192783
0.0181158
0.0163423
0.0145823
0.0136688
0.01377
0.0146746
0.0160572
0.0172502
0.0184257
0.0191104
0.0194894
0.019275
0.0185262
0.0168104
0.014225
0.0112745
0.00760363
0.00337797
-0.000196882
-0.000952784
-0.00151436
-0.000319531
0.000746822
0.00182554
0.00191902
0.00134528
0.0205282
0.0200397
0.0190117
0.017458
0.0158752
0.0149031
0.0148895
0.0155131
0.0165679
0.0174923
0.0184086
0.0189021
0.0191603
0.0188662
0.0181222
0.0164748
0.0141165
0.0114231
0.00827432
0.00464474
0.00151781
0.00073387
-0.000160268
0.000564509
0.00115431
0.00192969
0.00186953
0.00109412
0.0210396
0.0205979
0.0196821
0.0183241
0.0169101
0.0159866
0.015818
0.0162103
0.016987
0.0176794
0.0183723