/*--------------------------------*- C++ -*----------------------------------*\
  =========                 |
  \\      /  F ield         | OpenFOAM: The Open Source CFD Toolbox
   \\    /   O peration     | Website:  https://openfoam.org
    \\  /    A nd           | Version:  7
     \\/     M anipulation  |
\*---------------------------------------------------------------------------*/
FoamFile
{
    version     2.0;
    format      ascii;
    class       surfaceScalarField;
    location    "100";
    object      phi;
}
// * * * * * * * * * * * * * * * * * * * * * * * * * * * * * * * * * * * * * //

dimensions      [0 3 -1 0 0 0 0];

internalField   nonuniform List<scalar> 
8923
(
0.000688835
0.00283968
-0.00302924
0.000864066
0.00550473
-0.00567997
0.00100757
0.00751536
-0.00765887
0.00110677
0.00873776
-0.00883696
0.0011611
0.00931231
-0.00936664
0.00117502
0.00946631
-0.00948022
0.001145
0.00947323
-0.00944322
0.00107099
0.00959537
-0.00952136
0.000989492
0.00967182
-0.00959032
0.000965749
0.00888379
-0.00886004
0.00103252
0.00648546
-0.00655222
0.00116542
0.0027194
-0.0028523
0.00132014
-0.00140041
0.00124569
0.00146074
-0.0049102
0.00476961
0.00156512
-0.00733799
0.0072336
0.00162541
-0.00873116
0.00867088
0.00164873
-0.009385
0.00936168
0.00164706
-0.00955274
0.0095544
0.00161998
-0.00952389
0.00955097
0.0015586
-0.00969511
0.00975649
0.00147108
-0.0101039
0.0101915
0.00139168
-0.0100192
0.0100986
-0.00844681
0.00848311
0.000649495
0.00263944
0.00083573
0.0053185
0.000989787
0.00736131
0.00109827
0.00862928
0.00116025
0.00925033
0.00117959
0.00944696
0.00115277
0.00950006
0.00108188
0.00966626
0.00100587
0.00974783
0.000988295
0.00890136
0.00105742
0.00641633
0.00118752
0.0025893
0.00133612
-0.00154902
0.00146943
-0.00504351
0.00156703
-0.00743559
0.00162172
-0.00878585
0.00164056
-0.00940383
0.00163561
-0.00954779
0.00160648
-0.00949477
0.00154369
-0.00963232
0.00145474
-0.010015
0.00137447
-0.00993891
-0.00841171
0.000610201
0.00242888
0.000807179
0.00512152
0.000971649
0.00719684
0.00108942
0.00851151
0.00115915
0.0091806
0.00118404
0.00942207
0.00116067
0.00952343
0.00109336
0.00973356
0.00102316
0.00981803
0.00101157
0.00891296
0.00108253
0.00634537
0.00120936
0.00246247
0.00135159
-0.00169125
0.0014775
-0.00516942
0.00156831
-0.0075264
0.0016175
-0.00883504
0.00163198
-0.00941832
0.00162387
-0.00953968
0.00159285
-0.00946374
0.00152885
-0.00956832
0.00143863
-0.00992475
0.00135747
-0.00985775
-0.0083776
0.000571078
0.00220847
0.00077848
0.00491412
0.000953184
0.00702213
0.00108022
0.00838447
0.00115777
0.00910305
0.00118833
0.00939151
0.00116868
0.00954308
0.00110541
0.00979684
0.0010413
0.00988214
0.00103547
0.00891879
0.00110775
0.00627309
0.00123091
0.00233931
0.00136653
-0.00182687
0.00148495
-0.00528784
0.00156897
-0.00761042
0.00161275
-0.00887882
0.00162301
-0.00942858
0.00161187
-0.00952854
0.00157911
-0.00943098
0.0015141
-0.00950331
0.00142276
-0.00983341
0.00134069
-0.00977568
-0.00834429
0.000532245
0.00197875
0.000749691
0.00469667
0.000934418
0.0068374
0.00107067
0.00824821
0.0011561
0.00901763
0.00119244
0.00935517
0.00117681
0.00955871
0.00111801
0.00985564
0.00106023
0.00993992
0.00105992
0.0089191
0.00113302
0.00619999
0.00125211
0.00222022
0.00138093
-0.00195569
0.00149177
-0.00539868
0.00156902
-0.00768768
0.0016075
-0.00891729
0.00161368
-0.00943477
0.00159963
-0.00951449
0.00156526
-0.00939661
0.00149943
-0.00943748
0.00140715
-0.00974113
0.00132415
-0.00969269
-0.00831157
0.000493818
0.00174031
0.000720872
0.00446962
0.000915372
0.0066429
0.00106078
0.00810281
0.0011541
0.0089243
0.00119634
0.00931293
0.00118501
0.00957004
0.00113111
0.00990954
0.00107987
0.00999116
0.00108481
0.00891416
0.00115826
0.00612654
0.00127294
0.00210554
0.00139477
-0.00207751
0.00149798
-0.00550189
0.00156848
-0.00775818
0.00160175
-0.00895056
0.00160399
-0.009437
0.00158715
-0.00949765
0.00155132
-0.00936079
0.00148486
-0.00937101
0.0013918
-0.00964807
0.00130787
-0.00960876
-0.00827923
0.00045591
0.0014938
0.000692082
0.00423345
0.000896069
0.00643892
0.00105052
0.00794836
0.00115177
0.00882306
0.0012
0.00926469
0.00119327
0.00957677
0.00114467
0.00995814
0.00110014
0.0100357
0.00111005
0.00890424
0.0011834
0.00605319
0.00129334
0.0019956
0.00140803
-0.0021922
0.00150358
-0.00559744
0.00156736
-0.00782197
0.00159554
-0.00897873
0.00159396
-0.00943543
0.00157445
-0.00947813
0.00153729
-0.00932363
0.00147038
-0.0093041
0.00137671
-0.0095544
0.00129185
-0.0095239
-0.00824705
0.000418621
0.00123989
0.000663373
0.0039887
0.000876527
0.00622576
0.0010399
0.00778498
0.00114905
0.00871391
0.00120339
0.00921036
0.00120155
0.0095786
0.00115865
0.010001
0.00112095
0.0100734
0.00113555
0.00888965
0.00120837
0.00598036
0.00131328
0.00189069
0.00142071
-0.00229963
0.00150856
-0.00568529
0.00156567
-0.00787908
0.00158886
-0.00900192
0.00158361
-0.00943019
0.00156154
-0.00945606
0.00152318
-0.00928527
0.001456
-0.00923692
0.0013619
-0.00946031
0.00127612
-0.00943811
-0.00821481
0.000382045
0.00097926
0.000634795
0.00373595
0.000856764
0.00600379
0.0010289
0.00761284
0.00114593
0.00859689
0.00120646
0.00914982
0.00120982
0.00957525
0.00117298
0.0100379
0.00114221
0.0101042
0.00116119
0.00887067
0.0012331
0.00590845
0.00133272
0.00179107
0.00143278
-0.00239968
0.00151294
-0.00576545
0.00156342
-0.00792956
0.00158172
-0.00902022
0.00157295
-0.00942141
0.00154843
-0.00943154
0.00150899
-0.00924583
0.00144172
-0.00916965
0.00134737
-0.00936596
0.00126068
-0.00935143
-0.00818231
0.000346259
0.000712562
0.000606394
0.00347581
0.000836793
0.0057734
0.00101752
0.00743212
0.00114235
0.00847205
0.00120918
0.009083
0.00121802
0.0095664
0.0011876
0.0100683
0.00116382
0.0101279
0.00118689
0.0088476
0.00125751
0.00583783
0.00135163
0.00169695
0.00144423
-0.00249228
0.00151671
-0.00583793
0.00156062
-0.00797347
0.00157415
-0.00903375
0.00156198
-0.00940925
0.00153513
-0.00940469
0.00149472
-0.00920542
0.00142752
-0.00910245
0.0013331
-0.00927153
0.00124555
-0.00926388
-0.00814934
0.00031132
0.000440283
0.00057821
0.00320892
0.000816623
0.00553498
0.00100571
0.00724303
0.00113829
0.00833948
0.00121149
0.0090098
0.00122612
0.00955177
0.00120243
0.010092
0.00118568
0.0101447
0.00121255
0.00882073
0.00128155
0.00576883
0.00136996
0.00160854
0.00145505
-0.00257737
0.00151988
-0.00590275
0.00155728
-0.00801087
0.00156614
-0.0090426
0.00155072
-0.00939383
0.00152165
-0.00937562
0.00148037
-0.00916414
0.00141341
-0.00903548
0.00131909
-0.00917721
0.00123072
-0.00917551
0.00119708
-0.00811569
-0.00546086
0.000277301
0.000160212
0.00055028
0.00293594
0.000796262
0.005289
0.000993481
0.00704581
0.0011337
0.00819926
0.00121336
0.00893013
0.00123406
0.00953108
0.00121741
0.0101086
0.0012077
0.0101544
0.00123807
0.00879036
0.00130515
0.00570174
0.00138769
0.001526
0.00146523
-0.00265492
0.00152244
-0.00595996
0.0015534
-0.00804183
0.0015577
-0.0090469
0.00153917
-0.00937529
0.00150798
-0.00934443
0.00146594
-0.0091221
0.00139937
-0.00896891
0.00130533
-0.00908318
0.00121621
-0.00908639
0.0011817
-0.00808119
-0.00550357
0.000244284
-0.000120193
0.000522625
0.0026576
0.000775709
0.00503592
0.00098079
0.00684073
0.00112853
0.00805152
0.00121474
0.00884392
0.00124178
0.00950405
0.00123243
0.010118
0.00122975
0.0101571
0.00126336
0.00875676
0.00132826
0.00563684
0.00140479
0.00144947
0.00147476
-0.00272489
0.00152441
-0.00600961
0.00154901
-0.00806643
0.00154885
-0.00904674
0.00152734
-0.00935378
0.00149414
-0.00931123
0.00145142
-0.00907939
0.00138539
-0.00890287
0.00129182
-0.00898962
0.00120202
-0.00899658
0.00116648
-0.00804565
-0.00554682
0.000212061
-0.000401495
0.000495272
0.00237439
0.000754963
0.00477623
0.000967611
0.00662808
0.00112275
0.00789638
0.00121557
0.0087511
0.00124922
0.0094704
0.00124744
0.0101198
0.00125175
0.0101528
0.00128832
0.00872019
0.0013508
0.00557436
0.00142122
0.00137906
0.00148362
-0.00278729
0.00152577
-0.00605177
0.00154409
-0.00808475
0.00153958
-0.00904223
0.00151523
-0.00932943
0.00148012
-0.00927613
0.00143681
-0.00903608
0.00137146
-0.00883751
0.00127854
-0.0088967
0.00118814
-0.00890618
0.00115141
-0.00800892
-0.00559027
0.000180969
-0.000683063
0.000468223
0.00208714
0.000734012
0.00451044
0.000953913
0.00640818
0.0011163
0.00773399
0.00121581
0.00865158
0.00125633
0.00942988
0.00126232
0.0101138
0.00127358
0.0101415
0.00131287
0.0086809
0.00137273
0.00551451
0.00143695
0.00131484
0.0014918
-0.00284214
0.00152654
-0.0060865
0.00153866
-0.00809687
0.0015299
-0.00903347
0.00150284
-0.00930237
0.00146593
-0.00923922
0.00142211
-0.00899226
0.00135756
-0.00877297
0.00126547
-0.00880462
0.00117458
-0.00881528
0.00113651
-0.00797085
-0.0056336
0.000150914
-0.000963546
0.000441493
0.00179656
0.000712845
0.00423908
0.000939662
0.00618136
0.00110914
0.00756452
0.00121541
0.00854531
0.00126304
0.00938225
0.001277
0.0100998
0.00129515
0.0101234
0.00133693
0.00863912
0.00139399
0.00545744
0.00145197
0.00125686
0.0014993
-0.00288947
0.0015267
-0.00611391
0.00153273
-0.0081029
0.00151981
-0.00902055
0.00149018
-0.00927274
0.00145157
-0.0092006
0.0014073
-0.00894799
0.00134368
-0.00870936
0.0012526
-0.00871353
0.00116132
-0.008724
0.00112181
-0.00793134
-0.00567649
0.000121951
-0.00124115
0.000415084
0.00150343
0.000691441
0.00396273
0.00092482
0.00594798
0.00110121
0.00738813
0.0012143
0.00843222
0.00126928
0.00932728
0.00129139
0.0100777
0.00131634
0.0100984
0.00136039
0.00859507
0.00141453
0.00540331
0.00146624
0.00120514
0.0015061
-0.00292932
0.00152627
-0.00613407
0.00152629
-0.00810293
0.00150933
-0.00900359
0.00147725
-0.00924066
0.00143703
-0.00916039
0.00139237
-0.00890332
0.0013298
-0.00864679
0.0012399
-0.00862363
0.00114837
-0.00863247
0.00110731
-0.00789029
-0.00571862
9.41719e-05
-0.00151369
0.000389003
0.00120859
0.000669779
0.00368195
0.00090935
0.00570841
0.00109248
0.00720499
0.00121245
0.00831225
0.00127498
0.00926475
0.00130538
0.0100473
0.00133707
0.0100667
0.0013832
0.00854894
0.00143429
0.00535221
0.00147974
0.0011597
0.0015122
-0.00296178
0.00152523
-0.00614711
0.00151936
-0.00809706
0.00149844
-0.00898267
0.00146404
-0.00920626
0.00142233
-0.00911868
0.00137732
-0.00885832
0.00131591
-0.00858537
0.00122735
-0.00853507
0.0011357
-0.00854082
0.00109303
-0.00784763
-0.0057597
6.77066e-05
-0.00177854
0.000363264
0.000913037
0.000647839
0.00339738
0.000893214
0.00546304
0.00108291
0.0070153
0.0012098
0.00818535
0.00128009
0.00919446
0.00131891
0.0100085
0.00135722
0.0100284
0.00140526
0.0085009
0.00145324
0.00530423
0.00149246
0.00112048
0.00151759
-0.0029869
0.00152359
-0.00615312
0.00151194
-0.0080854
0.00148716
-0.00895789
0.00145056
-0.00916966
0.00140744
-0.00907556
0.00136215
-0.00881302
0.00130197
-0.00852519
0.00121494
-0.00844804
0.00112331
-0.00844918
0.00107898
-0.0078033
-0.00579944
4.27072e-05
-0.00203263
0.0003379
0.000617844
0.000625604
0.00310967
0.000876378
0.00521226
0.00107244
0.00681924
0.00120631
0.00805149
0.00128453
0.00911623
0.00133186
0.00996115
0.00137672
0.00998354
0.00142651
0.00845112
0.00147133
0.00525941
0.00150436
0.00108744
0.00152226
-0.0030048
0.00152136
-0.00615222
0.00150403
-0.00806807
0.00147547
-0.00892933
0.00143679
-0.00913098
0.00139238
-0.00903115
0.00134683
-0.00876747
0.00128797
-0.00846634
0.00120263
-0.0083627
0.00111117
-0.00835773
0.00106516
-0.00775729
-0.00583756
1.92224e-05
-0.00227229
0.000312989
0.000324078
0.000603069
0.00281959
0.000858811
0.00495652
0.00106104
0.00661701
0.00120192
0.00791061
0.00128825
0.00902991
0.00134417
0.00990523
0.00139547
0.00993223
0.00144688
0.00839971
0.00148851
0.00521778
0.00151544
0.00106051
0.00152621
-0.00301556
0.00151852
-0.00614452
0.00149563
-0.00804518
0.0014634
-0.0088971
0.00142274
-0.00909032
0.00137714
-0.00898555
0.00133136
-0.0087217
0.00127389
-0.00840887
0.0011904
-0.0082792
0.00109927
-0.0082666
0.00105159
-0.00770961
-0.00587381
-3.98924e-06
-0.00249201
0.000288691
3.13975e-05
0.000580252
0.00252803
0.000840495
0.00469628
0.00104869
0.00640881
0.00119661
0.0077627
0.00129117
0.00893534
0.00135574
0.00984066
0.00141339
0.00987458
0.00146629
0.00834681
0.00150475
0.00517932
0.00152568
0.00103958
0.00152944
-0.00301932
0.00151508
-0.00613016
0.00148674
-0.00801684
0.00145092
-0.00886129
0.00140841
-0.00904781
0.00136171
-0.00893885
0.00131574
-0.00867573
0.00125971
-0.00835284
0.00117822
-0.00819771
0.00108759
-0.00817597
0.00103825
-0.00766026
-0.00590797
-1.79361e-05
-0.00269468
0.000265192
-0.000251731
0.000557191
0.00223603
0.000821422
0.00443205
0.00103537
0.00619486
0.00119033
0.00760773
0.00129325
0.00883242
0.00136651
0.00976741
0.0014304
0.00981069
0.0014847
0.0082925
0.00152001
0.00514402
0.00153507
0.00102452
0.00153194
-0.0030162
0.00151104
-0.00610926
0.00147738
-0.00798318
0.00143805
-0.00882196
0.00139378
-0.00900353
0.00134608
-0.00889115
0.00129994
-0.00862959
0.0012454
-0.0082983
0.00116606
-0.00811837
0.0010761
-0.00808601
0.00102515
-0.00760931
-0.00593984
-2.96761e-05
-0.00287581
0.000242715
-0.000524122
0.000533977
0.00194477
0.000801605
0.00416442
0.00102106
0.00597541
0.00118306
0.00744572
0.00129443
0.00872106
0.00137638
0.00968546
0.00144642
0.00974066
0.00150205
0.00823687
0.00153427
0.0051118
0.00154359
0.0010152
0.00153372
-0.00300632
0.0015064
-0.00608194
0.00146753
-0.00794431
0.00142479
-0.00877922
0.00137885
-0.00895759
0.00133026
-0.00884257
0.00128397
-0.0085833
0.00123094
-0.00824527
0.0011539
-0.00804134
0.00106478
-0.00799689
0.00101228
-0.00755681
-0.00596925
-3.76318e-05
0.00022177
-0.000783524
0.000510741
0.0016558
0.000781085
0.00389408
0.00100576
0.00575073
0.00117479
0.0072767
0.00129467
0.00860117
0.00138531
0.00959482
0.00146138
0.00966458
0.00151829
0.00817997
0.0015475
0.00508259
0.00155125
0.00101145
0.00153477
-0.00298984
0.00150115
-0.00604832
0.0014572
-0.00790036
0.00141113
-0.00873315
0.00136361
-0.00891007
0.00131423
-0.00879318
0.00126781
-0.00853688
0.0012163
-0.00819376
0.0011417
-0.00796673
0.0010536
-0.00790879
0.000999627
-0.00750283
-0.00599607
0.000202824
-0.00102714
0.000487702
0.00137092
0.000759933
0.00362185
0.000989511
0.00552115
0.00116549
0.00710072
0.00129391
0.00847275
0.00139321
0.00949551
0.00147523
0.00958256
0.00153336
0.00812184
0.00155967
0.00505628
0.00155804
0.00101308
0.0015351
-0.0029669
0.00149531
-0.00600853
0.0014464
-0.00785145
0.00139708
-0.00868383
0.00134806
-0.00886106
0.00129798
-0.00874311
0.00125146
-0.00849035
0.00120147
-0.00814378
0.00112943
-0.0078947
0.00104254
-0.0078219
0.000987185
-0.00744748
-0.00602019
0.000186511
-0.00125214
0.000465143
0.00109229
0.000738263
0.00334873
0.000972343
0.00528707
0.00115517
0.0069179
0.00129214
0.00833578
0.00140005
0.0093876
0.00148791
0.0094947
0.00154724
0.00806251
0.00157077
0.00503275
0.00156396
0.00101989
0.00153471
-0.00293766
0.00148887
-0.00596268
0.00143511
-0.00779769
0.00138263
-0.00863135
0.0013322
-0.00881063
0.00128152
-0.00869243
0.0012349
-0.00844373
0.00118642
-0.0080953
0.00111706
-0.00782533
0.00103156
-0.00773639
0.000974935
-0.00739086
-0.00604152
0.000173485
-0.001456
0.00044343
0.000822343
0.000716237
0.00307592
0.000954327
0.00504898
0.00114385
0.00672838
0.00128931
0.00819032
0.00140576
0.00927115
0.00149937
0.00940109
0.00155988
0.008002
0.0015808
0.00501183
0.00156902
0.00103167
0.00153362
-0.00290226
0.00148183
-0.00591089
0.00142335
-0.00773921
0.00136778
-0.00857578
0.001316
-0.00875885
0.00126483
-0.00864125
0.00121813
-0.00839704
0.00117114
-0.00804831
0.00110456
-0.00775875
0.00102064
-0.00765247
0.000962858
-0.00733308
-0.00606002
0.000164403
-0.0016369
0.000423023
0.000563724
0.000694075
0.00280487
0.000935563
0.00480749
0.00113155
0.00653239
0.00128542
0.00803645
0.00141031
0.00914627
0.00150955
0.00930184
0.00157127
0.00794028
0.00158975
0.00499335
0.00157324
0.00104817
0.00153183
-0.00286084
0.0014742
-0.00585326
0.00141111
-0.00767612
0.00135254
-0.00851721
0.00129948
-0.00870579
0.00124789
-0.00858966
0.00120115
-0.00835029
0.0011556
-0.00800276
0.00109189
-0.00769504
0.00100974
-0.00757033
0.000950933
-0.00727427
-0.00607564
0.000159955
-0.00179429
0.000404484
0.000319194
0.000672062
0.00253729
0.000916181
0.00456337
0.00111833
0.00633024
0.00128046
0.00787432
0.00141365
0.00901308
0.00151844
0.00919706
0.00158137
0.00787735
0.00159762
0.0049771
0.00157664
0.00106915
0.00152935
-0.00281355
0.00146598
-0.00578989
0.00139839
-0.00760854
0.0013369
-0.00845572
0.00128262
-0.00865151
0.00123071
-0.00853776
0.00118394
-0.00830353
0.00113979
-0.0079586
0.00107901
-0.00763426
0.00099885
-0.00749016
0.000939139
-0.00721456
-0.00608837
0.000160808
-0.00192152
0.000388477
9.15248e-05
0.000650554
0.00227521
0.000896353
0.00431757
0.00110425
0.00612234
0.00127443
0.00770414
0.00141577
0.00887174
0.00152598
0.00908684
0.00159017
0.00781315
0.00160444
0.00496283
0.00157925
0.00109434
0.00152621
-0.00276051
0.00145717
-0.00572084
0.00138519
-0.00753656
0.00132087
-0.00839139
0.00126542
-0.00859606
0.00121327
-0.00848561
0.00116651
-0.00825676
0.00112369
-0.00791578
0.00106591
-0.00757648
0.000987924
-0.00741218
0.000927455
-0.00715409
-0.0060982
0.00016732
-0.00202114
0.000375611
-0.000116767
0.000629971
0.00202085
0.000876297
0.00407125
0.00108941
0.00590923
0.00126736
0.00752619
0.00141664
0.00872246
0.00153216
0.00897132
0.00159767
0.00774764
0.00161024
0.00495027
0.00158111
0.00112346
0.00152242
-0.00270181
0.00144777
-0.0056462
0.00137152
-0.00746031
0.00130443
-0.0083243
0.00124786
-0.00853949
0.00119557
-0.00843332
0.00114884
-0.00821003
0.00110729
-0.00787423
0.00105253
-0.00752173
0.000976932
-0.00733658
0.000915858
-0.00709302
-0.00610515
0.000179698
-0.00209462
0.000366379
-0.000303447
0.00061082
0.00177641
0.000856281
0.00382579
0.00107392
0.00569159
0.00125926
0.00734085
0.00141626
0.00856546
0.00153696
0.00885061
0.00160388
0.00768073
0.00161507
0.00493908
0.00158229
0.00115624
0.00151801
-0.00263753
0.0014378
-0.00556598
0.00135736
-0.00737988
0.0012876
-0.00825454
0.00122995
-0.00848184
0.00117758
-0.00838095
0.00113092
-0.00816337
0.00109057
-0.00783388
0.00103886
-0.00747002
0.00096584
-0.00726356
0.000904328
-0.00703151
-0.00610922
0.000197589
-0.00214378
0.000361541
-0.0004674
0.000593661
0.00154429
0.000836642
0.00358281
0.00105794
0.00547029
0.00125021
0.00714858
0.00141462
0.00840105
0.00154037
0.00872487
0.00160882
0.00761227
0.00161903
0.00492887
0.00158287
0.00119241
0.00151301
-0.00256768
0.00142725
-0.00548022
0.00134272
-0.00729535
0.00127037
-0.00818219
0.00121168
-0.00842314
0.0011593
-0.00832857
0.00111276
-0.00811683
0.00107353
-0.00779465
0.00102486
-0.00742135
0.000954616
-0.00719331
0.000892848
-0.00696974
-0.00611042
0.000220755
-0.0021711
0.000361484
-0.000608128
0.000579143
0.00132663
0.000817803
0.00334414
0.00104169
0.00524641
0.00124027
0.00695
0.00141176
0.00822956
0.00154239
0.00859424
0.00161257
0.00754209
0.00162226
0.00491918
0.00158294
0.00123173
0.00150745
-0.00249219
0.00141614
-0.00538891
0.00132763
-0.00720685
0.00125278
-0.00810733
0.00119307
-0.00836344
0.00114076
-0.00827625
0.00109436
-0.00807043
0.00105616
-0.00775646
0.00101051
-0.0073757
0.000943231
-0.00712603
0.000881401
-0.00690791
-0.00610876
0.000248738
-0.00217966
0.000366549
-0.000725939
0.000567935
0.00112525
0.000800296
0.00311178
0.00102545
0.00502125
0.00122959
0.00674586
0.00140771
0.00805145
0.00154305
0.00845889
0.00161526
0.00746989
0.00162496
0.00490948
0.00158262
0.00127406
0.00150135
-0.00241092
0.00140448
-0.00529204
0.00131211
-0.00711447
0.00123483
-0.00803005
0.00117414
-0.00830275
0.00112192
-0.00822404
0.00107572
-0.00802422
0.00103847
-0.00771922
0.000995783
-0.00733301
0.00093164
-0.00706189
0.000869959
-0.00684623
-0.00610426
0.000280519
0.000376672
-0.000822092
0.000560605
0.000941315
0.000784761
0.00288763
0.0010097
0.00479631
0.00121844
0.00653712
0.00140263
0.00786725
0.00154256
0.00831896
0.00161728
0.00739517
0.00162762
0.00489914
0.00158224
0.00131944
0.00149483
-0.00232351
0.00139224
-0.00518945
0.00129599
-0.00701822
0.00121634
-0.00795041
0.00115469
-0.0082411
0.00110266
-0.00817201
0.00105672
-0.00797828
0.00102037
-0.00768287
0.000980591
-0.00729323
0.000919761
-0.00700106
0.000858464
-0.00678493
-0.00609694
0.000391296
-0.000898754
0.000557525
0.000775086
0.000771944
0.00267321
0.000995145
0.00457311
0.00120741
0.00632486
0.00139708
0.00767758
0.0015416
0.00817445
0.00161968
0.00731708
0.00163136
0.00488747
0.00158247
0.00136833
0.00148806
-0.0022291
0.00137927
-0.00508066
0.00127903
-0.00691798
0.00119705
-0.00786843
0.00113452
-0.00817857
0.0010828
-0.00812029
0.00103725
-0.00793273
0.00100177
-0.00764739
0.00096487
-0.00725633
0.000907544
-0.00694373
0.0008469
-0.00672428
-0.0060868
0.000410648
-0.000958267
0.000559522
0.000626212
0.000763064
0.00246967
0.000983062
0.00435311
0.00119772
0.0061102
0.00139225
0.00748305
0.00154157
0.00802513
0.00162397
0.00723469
0.00163688
0.00487456
0.00158307
0.00142215
0.00148074
-0.00212677
0.00136577
-0.00496569
0.00126183
-0.00681405
0.00117772
-0.00778432
0.00111435
-0.00811519
0.00106294
-0.00806888
0.0010178
-0.00788759
0.000983082
-0.00761266
0.000948929
-0.00722218
0.000895233
-0.00689004
0.000835521
-0.00666457
-0.00607392
0.00043836
-0.00100259
0.000570298
0.000494274
0.000761875
0.00227809
0.000977077
0.00413791
0.0011927
0.00589457
0.00139101
0.00728474
0.00154468
0.00787146
0.0016307
0.00714867
0.00164209
0.00486316
0.00158115
0.00148309
0.00147213
-0.00201776
0.00135324
-0.00484679
0.00124707
-0.00670788
0.00116125
-0.0076985
0.00109676
-0.0080507
0.00104521
-0.00801733
0.00100011
-0.00784249
0.000965758
-0.00757831
0.000933987
-0.00719041
0.000883909
-0.00683996
0.000825549
-0.00660621
-0.00605868
0.00207707
-0.000614514
0.00191996
0.000651378
0.0019893
0.00220875
0.00223234
0.00389487
0.00262789
0.00549902
0.00318796
0.00672467
0.00391148
0.00714794
0.00477156
0.00628859
0.00563801
0.00399671
0.00628817
0.000832935
0.00666271
-0.0023923
0.00676361
-0.00494769
0.00665939
-0.00660366
0.00642672
-0.00746583
0.00614294
-0.00776692
0.00584847
-0.00772285
0.00555515
-0.00754917
0.0052841
-0.00730726
0.00502913
-0.00693544
0.0047358
-0.00654663
0.00438751
-0.00625792
0.00406982
-0.005741
-0.00442379
0.00271987
-0.000172515
0.00246778
0.000903462
0.00244807
0.00222847
0.00265208
0.00369086
0.00306549
0.00508562
0.00367301
0.00611714
0.00444726
0.00637369
0.00531945
0.0054164
0.00613239
0.00318377
0.00674604
0.000219285
0.00705293
-0.00269919
0.00709251
-0.00498728
0.00692812
-0.00643927
0.00664872
-0.00718644
0.00633414
-0.00745233
0.00602335
-0.00741207
0.00572051
-0.00724634
0.00543945
-0.0070262
0.00518037
-0.00667636
0.00489444
-0.00626071
0.00455496
-0.00591844
0.00423381
-0.00541985
-0.00424401
0.00344644
0.000234208
0.00315686
0.00119304
0.0030728
0.00231253
0.00323137
0.00353228
0.00363383
0.00468316
0.0042545
0.00549647
0.0050454
0.00558279
0.00590532
0.00455648
0.00667208
0.00241701
0.00720437
-0.000313008
0.00743894
-0.00293375
0.00740327
-0.00495161
0.00718245
-0.00621846
0.00686717
-0.00687115
0.00653025
-0.00711542
0.00620704
-0.00708886
0.00589609
-0.00693539
0.00560508
-0.00673519
0.00534074
-0.00641201
0.00506133
-0.0059813
0.00473072
-0.00558783
0.00440712
-0.00509625
-0.00404962
0.00418287
0.000558382
0.00392543
0.00145048
0.00382458
0.00241339
0.0039495
0.00340736
0.00432472
0.00430794
0.00493023
0.00489096
0.00570318
0.00480984
0.00651858
0.00374109
0.00721259
0.001723
0.00765655
-0.000756969
0.00780077
-0.00307798
0.00768947
-0.0048403
0.00741818
-0.00594717
0.0070739
-0.00652687
0.00671999
-0.00676151
0.00638789
-0.00675676
0.00607235
-0.00661985
0.00577425
-0.00643709
0.00550524
-0.00614301
0.00523309
-0.00570914
0.00491414
-0.00526888
0.00459079
-0.0047729
-0.00384205
0.0048752
0.000776328
0.00469998
0.00162571
0.00463534
0.00247802
0.00475603
0.00328667
0.00510482
0.00395916
0.0056742
0.00432157
0.00639628
0.00408776
0.00713733
0.00300004
0.00773708
0.00112326
0.00807709
-0.00109698
0.00812644
-0.00312732
0.00794567
-0.00465954
0.00763344
-0.00563493
0.00726916
-0.00616259
0.00690483
-0.00639718
0.00656752
-0.00641946
0.00625033
-0.00630265
0.00594775
-0.00613451
0.00567434
-0.0058696
0.00540936
-0.00544416
0.00510488
-0.00496441
0.00478559
-0.0044536
-0.00362234
0.0054879
0.000891917
0.00541591
0.0016977
0.00542601
0.00246793
0.0055767
0.00313597
0.00591325
0.00362261
0.0064376
0.00379722
0.00708695
0.00343841
0.00773169
0.0023553
0.00821877
0.000636176
0.00844613
-0.00132434
0.00840571
-0.0030869
0.00816806
-0.00442189
0.00782757
-0.00529445
0.00745309
-0.00578811
0.00708492
-0.00602902
0.0067459
-0.00608043
0.00642968
-0.00598643
0.00612546
-0.00583029
0.00584818
-0.00559233
0.00558969
-0.00518567
0.00530202
-0.00467673
0.00499103
-0.00414261
-0.00339172
0.00601038
0.000927478
0.00603347
0.00167461
0.00612985
0.00237155
0.00633249
0.00293333
0.00667358
0.00328153
0.00715588
0.00331492
0.00772479
0.00286949
0.00826119
0.0018189
0.00862831
0.000269057
0.00874818
-0.00144421
0.00863356
-0.00297227
0.00835689
-0.00414522
0.00800225
-0.00493982
0.00762695
-0.00541281
0.00726098
-0.00566304
0.00692336
-0.00574282
0.00661026
-0.00567333
0.00630722
-0.00552725
0.00602703
-0.00531213
0.00577377
-0.00493241
0.00550431
-0.00440726
0.00520621
-0.00384452
-0.00315236
0.00645183
0.000909259
0.00654424
0.00158219
0.00671282
0.00220297
0.00696763
0.00267852
0.00732102
0.00292814
0.0077683
0.00286764
0.00825929
0.0023785
0.00868904
0.00138916
0.00894573
1.23665e-05
0.00897777
-0.00147626
0.00881209
-0.0028066
0.00851612
-0.00384925
0.00816065
-0.00458435
0.00779251
-0.00504466
0.00743382
-0.00530435
0.00710036
-0.00540935
0.00679197
-0.00536493
0.00649277
-0.00522806
0.00621115
-0.00503051
0.00596151
-0.00468278
0.00571042
-0.00415617
0.00542988
-0.00356397
-0.0029078
0.00683048
0.000859487
0.00696312
0.00144955
0.00717651
0.00198958
0.00746609
0.00238894
0.00782652
0.00256771
0.00824197
0.00245219
0.00866292
0.00195755
0.00900048
0.0010516
0.00916956
-0.000156714
0.00914182
-0.00144851
0.00894991
-0.00261469
0.00865241
-0.00355175
0.00830687
-0.00423881
0.00795185
-0.00468964
0.00760436
-0.00495686
0.00727739
-0.00508239
0.00697481
-0.00506235
0.00668174
-0.00493498
0.00640075
-0.00474951
0.00615315
-0.00443518
0.00591912
-0.00392215
0.00566024
-0.0033051
-0.00266328
0.00716471
0.000793653
0.00731421
0.00130005
0.00754505
0.00175874
0.00784582
0.00208818
0.00819982
0.00221371
0.00858168
0.00207032
0.00894201
0.00159722
0.00920774
0.000785871
0.00931688
-0.000265853
0.00925663
-0.00138827
0.00905924
-0.00241729
0.00877334
-0.00326585
0.00844507
-0.00391055
0.00810699
-0.00435156
0.0077734
-0.00462326
0.00745494
-0.00476394
0.00715892
-0.00476633
0.00687367
-0.00464973
0.00659585
-0.00447169
0.0063492
-0.00418853
0.00612949
-0.00370244
0.00589507
-0.00307067
-0.00242556
0.00746897
0.000721347
0.00762017
0.00114885
0.00784841
0.00153051
0.00814028
0.00179631
0.00847399
0.00187999
0.00881884
0.00172547
0.00912748
0.00128858
0.00934068
0.000572673
0.00941361
-0.000338783
0.00934141
-0.00131607
0.00915232
-0.00222821
0.00888578
-0.0029993
0.00857886
-0.00360362
0.00825972
-0.00403242
0.00794165
-0.00430519
0.00763341
-0.0044557
0.00734454
-0.00447746
0.00706812
-0.00437331
0.0067962
-0.00419977
0.00655036
-0.00394269
0.00634121
-0.00349329
0.0061319
-0.00286136
-0.00220215
0.00775318
0.000648106
0.00789771
0.00100432
0.00811174
0.00131647
0.00838213
0.00152592
0.00868611
0.00157602
0.00899209
0.00141949
0.0092567
0.00102397
0.0094318
0.000397573
0.00948466
-0.000391648
0.00941272
-0.00124413
0.009239
-0.00205449
0.00899508
-0.00275538
0.00871099
-0.00331954
0.00841148
-0.00373291
0.00810972
-0.00400343
0.00781312
-0.0041591
0.00753201
-0.00419635
0.0072648
-0.0041061
0.00700127
-0.00393624
0.00675729
-0.00369872
0.00655467
-0.00329066
0.00636855
-0.00267524
-0.00199996
0.00802358