/*--------------------------------*- C++ -*----------------------------------*\
  =========                 |
  \\      /  F ield         | OpenFOAM: The Open Source CFD Toolbox
   \\    /   O peration     | Website:  https://openfoam.org
    \\  /    A nd           | Version:  7
     \\/     M anipulation  |
\*---------------------------------------------------------------------------*/
FoamFile
{
    version     2.0;
    format      ascii;
    class       surfaceScalarField;
    location    "300";
    object      phi;
}
// * * * * * * * * * * * * * * * * * * * * * * * * * * * * * * * * * * * * * //

dimensions      [0 3 -1 0 0 0 0];

internalField   nonuniform List<scalar> 
8923
(
0.000565053
0.0091632
-0.00919339
0.000546624
0.0095017
-0.00948327
0.000512979
0.00964121
-0.00960756
0.000531297
0.00915949
-0.00917781
0.000643116
0.00743371
-0.00754553
0.000822876
0.00440437
-0.00458414
0.00102361
0.000685886
-0.000886624
0.00121169
-0.00294651
0.00275844
0.00136504
-0.00588553
0.00573217
0.00147257
-0.00785327
0.00774575
0.00153256
-0.0089301
0.00887011
0.00155315
-0.00939405
0.00937346
0.00154733
-0.00947867
0.00948449
0.00151642
-0.00939632
0.00942723
0.00145068
-0.0094696
0.00953535
0.00135803
-0.0097737
0.00986635
0.00127889
-0.00965864
0.00973778
0.00125629
-0.00812171
0.0081443
0.00130066
-0.00485011
0.00480574
0.0013921
-0.00061042
0.000518981
0.0014983
0.00342659
-0.00353278
0.00158948
0.00648713
-0.00657831
0.00839373
-0.00845635
0.000555125
0.00912666
0.000544273
0.00951255
0.000522691
0.00966279
0.000556136
0.00912604
0.000678164
0.00731168
0.000858876
0.00422366
0.00105413
0.000490632
0.00123371
-0.00312609
0.00137779
-0.00602961
0.00147687
-0.00795235
0.00153009
-0.00898333
0.00154542
-0.00940937
0.00153572
-0.00946897
0.00150253
-0.00936313
0.00143544
-0.00940251
0.00134116
-0.00967943
0.00126027
-0.00957774
0.00123773
-0.00809917
0.0012851
-0.00489749
0.00138147
-0.000706791
0.00149304
0.00331502
0.00158925
0.00639092
0.00832667
0.000546063
0.00908347
0.000543562
0.00951505
0.000534843
0.00967151
0.000583293
0.00907759
0.000714481
0.0071805
0.000895155
0.00404299
0.00108433
0.00030146
0.00125512
-0.00329688
0.00138983
-0.00616432
0.00148049
-0.00804301
0.00152707
-0.0090299
0.0015373
-0.0094196
0.00152389
-0.00945557
0.00148857
-0.00932781
0.00142037
-0.00933431
0.00132469
-0.00958375
0.00124204
-0.0094951
0.00121933
-0.00807646
0.00126939
-0.00494755
0.00137045
-0.000807853
0.00148725
0.00319822
0.00158847
0.00628971
0.00825511
0.000537947
0.00903328
0.00054457
0.00950843
0.000549403
0.00966668
0.000612587
0.00901441
0.000751861
0.00704122
0.000931571
0.00386328
0.00111412
0.000118907
0.00127588
-0.00345864
0.00140116
-0.0062896
0.00148345
-0.0081253
0.0015235
-0.00906995
0.00152882
-0.00942492
0.00151185
-0.00943861
0.00147458
-0.00929053
0.0014055
-0.00926523
0.00130863
-0.00948688
0.00122424
-0.00941071
0.0012011
-0.00805331
0.00125353
-0.00499998
0.00135903
-0.000913353
0.00148093
0.00307633
0.00158713
0.00618351
0.00817902
0.000530858
0.00897571
0.00054736
0.00949193
0.000566311
0.00964773
0.00064382
0.0089369
0.000790099
0.00689494
0.000967986
0.00368539
0.00114344
-5.65474e-05
0.00129595
-0.00361116
0.00141177
-0.00640542
0.00148574
-0.00819927
0.00151941
-0.00910362
0.00151999
-0.0094255
0.00149963
-0.00941825
0.00146055
-0.00925145
0.00139081
-0.00919549
0.00129299
-0.00938906
0.00120689
-0.00932461
0.00118307
-0.00802949
0.00123753
-0.00505444
0.0013472
-0.00102303
0.00147405
0.00294948
0.00158521
0.00607235
0.00809835
0.000524873
0.00891036
0.000551978
0.00946482
0.000585478
0.00961423
0.000676777
0.0088456
0.000828989
0.00674273
0.00100426
0.00351012
0.0011722
-0.000224483
0.00131531
-0.00375426
0.00142166
-0.00651177
0.00148739
-0.008265
0.00151481
-0.00913104
0.00151084
-0.00942153
0.00148724
-0.00939464
0.0014465
-0.00921071
0.00137632
-0.00912532
0.00127778
-0.00929051
0.00119
-0.00923683
0.00116525
-0.00800474
0.00122139
-0.00511058
0.00133496
-0.0011366
0.00146661
0.00281782
0.0015827
0.00595627
0.00801306
0.000520066
0.0088368
0.000558449
0.00942644
0.00060679
0.00956588
0.000711233
0.00874116
0.00086833
0.00658564
0.00104026
0.00333818
0.00120032
-0.00038454
0.0013339
-0.00388785
0.00143081
-0.00660867
0.00148839
-0.00832258
0.00150972
-0.00915237
0.00150138
-0.0094132
0.00147469
-0.00936795
0.00143243
-0.00916845
0.00136202
-0.00905491
0.001263
-0.00919149
0.00117359
-0.00914743
0.00114766
-0.00797882
0.00120511
-0.00516803
0.0013223
-0.00125378
0.0014586
0.00268151
0.00157958
0.00583529
0.00792313
0.000516506
0.0087546
0.000566777
0.00937617
0.00063011
0.00950255
0.000746956
0.00862431
0.000907919
0.00642467
0.00107586
0.00317024
0.00122774
-0.000536416
0.00135171
-0.00401182
0.00143923
-0.00669618
0.00148876
-0.00837212
0.00150413
-0.00916774
0.00149162
-0.00940068
0.00146199
-0.00933832
0.00141835
-0.0091248
0.0013479
-0.00898446
0.00124864
-0.00909222
0.00115768
-0.00905647
0.00113034
-0.00795147
0.00118871
-0.00522641
0.00130921
-0.00137427
0.00145
0.00254072
0.00157583
0.00570946
0.00782852
0.000514257
0.00866336
0.00057695
0.00931347
0.000655279
0.00942422
0.000783706
0.00849589
0.000947562
0.00626081
0.00111093
0.00300687
0.00125438
-0.000679868
0.00136871
-0.00412615
0.0014469
-0.00677437
0.00148851
-0.00841374
0.00149808
-0.0091773
0.00148156
-0.00938417
0.00144915
-0.00930591
0.00140425
-0.00907989
0.00133396
-0.00891418
0.0012347
-0.00899296
0.00114228
-0.00896405
0.00111328
-0.00792247
0.0011722
-0.00528532
0.00129569
-0.00149776
0.0014408
0.0023956
0.00157144
0.00557882
0.00772921
0.000513381
0.00856268
0.000588932
0.00923792
0.000682119
0.00933104
0.000821242
0.00835676
0.000987066
0.00609499
0.00114534
0.00284859
0.00128019
-0.000814711
0.00138485
-0.00423082
0.00145381
-0.00684333
0.00148763
-0.00844756
0.00149155
-0.00918122
0.00147122
-0.00936384
0.00143618
-0.00927087
0.00139013
-0.00903384
0.00132017
-0.00884422
0.00122116
-0.00889394
0.00112739
-0.00887029
0.00109652
-0.0078916
0.00115557
-0.00534437
0.00128173
-0.00162393
0.00143099
0.00224634
0.00156638
0.00544344
0.00762518
0.000513931
0.0084522
0.000602671
0.00914918
0.000710438
0.00922327
0.000859325
0.00820788
0.00102624
0.00592807
0.00117898
0.00269585
0.00130509
-0.000940815
0.00140013
-0.00432585
0.00145997
-0.00690318
0.00148615
-0.00847373
0.00148456
-0.00917964
0.00146061
-0.00933989
0.00142308
-0.00923334
0.00137599
-0.00898675
0.00130654
-0.00877477
0.00120801
-0.00879541
0.00111302
-0.00877529
0.00108007
-0.00785866
0.00113885
-0.00540315
0.00126734
-0.00175242
0.00142056
0.00209312
0.00156064
0.00530336
0.00166941
0.00751642
0.00875385
0.000515957
0.00833161
0.000618096
0.00904704
0.000740032
0.00910133
0.000897717
0.00805019
0.00106491
0.00576088
0.00121174
0.00254902
0.00132903
-0.00105811
0.00141451
-0.00441133
0.00146537
-0.00695404
0.00148405
-0.00849242
0.00147712
-0.00917271
0.00144971
-0.00931248
0.00140986
-0.00919348
0.00136182
-0.00893871
0.00129303
-0.00870597
0.00119523
-0.00869762
0.00109916
-0.00867922
0.00106396
-0.00782347
0.00112204
-0.00546123
0.00125252
-0.00188289
0.00140951
0.00193613
0.00155421
0.00515866
0.00166772
0.00740291
0.00867547
0.0005195
0.0082007
0.000635118
0.00893143
0.000770688
0.00896576
0.000936184
0.0078847
0.0011029
0.00559416
0.00124351
0.00240842
0.00135197
-0.00116657
0.00142797
-0.00448732
0.00146999
-0.00699606
0.00148135
-0.00850377
0.00146923
-0.0091606
0.00143855
-0.00928179
0.0013965
-0.00915144
0.00134762
-0.00888983
0.00127962
-0.00863797
0.00118279
-0.00860078
0.00108581
-0.00858224
0.00104821
-0.00778586
0.00110518
-0.00551819
0.00123726
-0.00201498
0.00139781
0.00177558
0.00154707
0.0050094
0.00166532
0.00728465
0.00859276
0.000524595
0.00805932
0.000653635
0.00880239
0.000802185
0.00881721
0.000974502
0.00771238
0.00114005
0.00542861
0.00127419
0.00227428
0.00137384
-0.00126622
0.00144049
-0.00455397
0.00147384
-0.00702941
0.00147804
-0.00850798
0.0014609
-0.00914345
0.00142711
-0.009248
0.00138303
-0.00910736
0.00133338
-0.00884019
0.0012663
-0.0085709
0.00117066
-0.00850514
0.00107296
-0.00848454
0.00103282
-0.00774572
0.00108826
-0.00557364
0.00122157
-0.00214828
0.00138547
0.00161168
0.0015392
0.00485567
0.0016622
0.00716165
0.00850567
0.00053127
0.00790743
0.000673532
0.00866013
0.000834302
0.00865644
0.00101245
0.00753423
0.00117619
0.00526487
0.00130368
0.00214679
0.00139461
-0.00135715
0.00145206
-0.00461142
0.00147691
-0.00705426
0.00147414
-0.00850521
0.00145212
-0.00912143
0.00141539
-0.00921127
0.00136942
-0.00906139
0.00131909
-0.00878985
0.00125305
-0.00850486
0.00115883
-0.00841092
0.0010606
-0.00838631
0.00101783
-0.00770295
0.00107133
-0.00562714
0.00120546
-0.0022824
0.00137248
0.00144465
0.00153059
0.00469756
0.00165833
0.00703392
0.00841415
0.000539543
0.00774513
0.00069468
0.00850499
0.000866817
0.00848431
0.00104983
0.00735122
0.00121119
0.00510351
0.00133192
0.00202606
0.00141424
-0.00143948
0.00146265
-0.00465983
0.00147919
-0.0070708
0.00146964
-0.00849566
0.0014429
-0.0090947
0.0014034
-0.00917176
0.00135569
-0.00901368
0.00130473
-0.0087389
0.00123983
-0.00843996
0.00114724
-0.00831833
0.00104871
-0.00828777
0.00100324
-0.00765749
0.00105441
-0.00567831
0.00118894
-0.00241692
0.00135884
0.00127475
0.00152123
0.00453516
0.00165368
0.00690147
0.00831818
0.000549423
0.00757263
0.000716944
0.00833747
0.000899511
0.00830174
0.00108643
0.0071643
0.00124491
0.00494503
0.00135881
0.00191216
0.00143269
-0.00151336
0.00147226
-0.00469941
0.00148069
-0.00707922
0.00146455
-0.00847952
0.00143325
-0.0090634
0.00139113
-0.00912964
0.00134181
-0.00896436
0.0012903
-0.00868739
0.00122662
-0.00837628
0.00113588
-0.00822758
0.00103726
-0.00818915
0.000989073
-0.0076093
0.00103753
-0.00572677
0.00117202
-0.00255141
0.00134454
0.00110223
0.00151111
0.0043686
0.00164825
0.00676433
0.00821771
0.000560905
0.00739029
0.000740178
0.00815819
0.000932172
0.00810975
0.00112207
0.00697441
0.00127722
0.00478988
0.00138429
0.00180508
0.00144993
-0.00157899
0.00148088
-0.00473036
0.00148139
-0.00707973
0.00145886
-0.008457
0.00142316
-0.00902769
0.00137856
-0.00908505
0.00132779
-0.00891359
0.00127579
-0.00863538
0.0012134
-0.0083139
0.00112469
-0.00813887
0.00102623
-0.00809069
0.000975333
-0.00755841
0.00102072
-0.00577216
0.00115473
-0.00268543
0.0013296
0.000927363
0.00150021
0.00419799
0.00164201
0.00662253
0.00811272
0.000573977
0.00719858
0.000764235
0.00796794
0.000964594
0.00790939
0.00115658
0.00678242
0.00130801
0.00463845
0.00140832
0.00170478
0.00146594
-0.00163661
0.00148849
-0.00475291
0.00148129
-0.00707253
0.00145258
-0.00842829
0.00141263
-0.00898774
0.00136571
-0.00903813
0.00131362
-0.0088615
0.00126118
-0.00858294
0.00120013
-0.00825286
0.00111365
-0.00805238
0.00101559
-0.00799264
0.000962028
-0.00750485
0.00100402
-0.00581415
0.0011371
-0.00281851
0.00131401
0.000750454
0.00148853
0.00402347
0.00163494
0.00647611
0.00800319
0.000588609
0.00699815
0.000788958
0.00776759
0.000996582
0.00770176
0.0011898
0.0065892
0.00133719
0.00449105
0.00143083
0.00161115
0.0014807
-0.00168648
0.00149508
-0.00476729
0.00148039
-0.00705783
0.00144571
-0.00839361
0.00140166
-0.00894369
0.00135256
-0.00898903
0.00129929
-0.00880824
0.00124646
-0.0085301
0.0011868
-0.0081932
0.0011027
-0.00796829
0.0010053
-0.00789524
0.00094916
-0.0074487
0.000987454
-0.00585244
0.00111914
-0.00295019
0.00129778
0.000571818
0.00147606
0.00384518
0.00162704
0.00632513
0.00788911
0.000604758
0.00678976
0.000814192
0.00755815
0.00102795
0.00748801
0.00122159
0.00639556
0.00136468
0.00434796
0.00145179
0.00152403
0.00149419
-0.00172888
0.00150066
-0.00477377
0.00147869
-0.00703586
0.00143824
-0.00835315
0.00139026
-0.00889571
0.00133909
-0.00893786
0.00128479
-0.00875393
0.00123161
-0.00847693
0.00117336
-0.00813494
0.00109182
-0.00788676
0.000995335
-0.00779875
0.000936724
-0.00739009
0.000971071
-0.00588679
0.0011009
-0.00308003
0.00128093
0.000391794
0.0014628
0.00366331
0.00161828
0.00616966
0.00777048
0.000622365
0.00657431
0.000839778
0.00734074
0.00105852
0.00726926
0.00125181
0.00620227
0.00139039
0.00420938
0.00147119
0.00144324
0.00150641
-0.00176411
0.00150522
-0.00477257
0.00147619
-0.00700683
0.00143017
-0.00830714
0.00137842
-0.00884396
0.00132531
-0.00888476
0.0012701
-0.00869871
0.00121664
-0.00842347
0.00115979
-0.0080781
0.00108096
-0.00780792
0.000985643
-0.00770344
0.000924714
-0.00732916
0.0009549
-0.00591697
0.00108242
-0.00320754
0.00126347
0.000210745
0.00144875
0.00347802
0.00160865
0.00600975
0.00764731
0.000641353
0.00635282
0.000865559
0.00711653
0.00108813
0.00704669
0.00128035
0.00601006
0.00141429
0.00407544
0.00148899
0.00136854
0.00151735
-0.00179247
0.00150875
-0.00476397
0.00147287
-0.00697095
0.00142152
-0.00825579
0.00136614
-0.00878858
0.00131121
-0.00882983
0.00125522
-0.00864272
0.00120152
-0.00836977
0.00114607
-0.00802265
0.00107007
-0.00773192
0.000976187
-0.00760956
0.000913115
-0.00726609
0.000938975
-0.00594283
0.00106374
-0.0033323
0.00124543
2.90511e-05
0.00143391
0.00328954
0.00159815
0.00584552
0.00751959
0.000661628
0.00612639
0.00089138
0.00688678
0.00111664
0.00682143
0.00130711
0.00581958
0.00143631
0.00394625
0.00150519
0.00129966
0.00152702
-0.00181431
0.00151126
-0.00474821
0.00146875
-0.00692844
0.00141226
-0.00819929
0.00135342
-0.00872974
0.00129678
-0.00877319
0.00124013
-0.00858607
0.00118624
-0.00831588
0.00113217
-0.00796858
0.00105911
-0.00765885
0.000966923
-0.00751737
0.00090191
-0.00720108
0.000923325
-0.00596425
0.0010449
-0.00345388
0.00122683
-0.000152883
0.00141828
0.00309809
0.00158676
0.00567704
0.00738738
0.000683074
0.000917082
0.00665277
0.00114391
0.0065946
0.00133201
0.00563148
0.00145644
0.00382182
0.0015198
0.00123629
0.00153542
-0.00182992
0.00151274
-0.00472553
0.00146383
-0.00687953
0.00140241
-0.00813787
0.00134026
-0.00866758
0.001282
-0.00871494
0.00122482
-0.00852888
0.00117079
-0.00826185
0.00111806
-0.00791586
0.00104804
-0.00758883
0.000957805
-0.00742714
0.000891074
-0.00713435
0.000907974
-0.00598115
0.00102599
-0.00357189
0.00120768
-0.000334575
0.00140188
0.00290388
0.00157447
0.00550445
0.00725068
0.000942515
0.00641581
0.0011698
0.00636732
0.00135498
0.0054463
0.00147466
0.00370214
0.00153284
0.00117812
0.00154256
-0.00183964
0.00151321
-0.00469618
0.0014581
-0.00682441
0.00139196
-0.00807173
0.00132665
-0.00860228
0.00126688
-0.00865516
0.00120927
-0.00847128
0.00115516
-0.00820773
0.00110373
-0.00786443
0.00103681
-0.00752191
0.000948787
-0.00733912
0.00088058
-0.00706614
0.000892941
-0.00599351
0.001007
-0.00368595
0.00118807
-0.000515649
0.00138472
0.00270724
0.00156129
0.00532788
0.00710957
0.000967523
0.0061772
0.00119422
0.00614062
0.00137596
0.00526455
0.00149099
0.00358711
0.00154433
0.00112478
0.00154846
-0.00184378
0.00151266
-0.00466038
0.00145156
-0.00676331
0.0013809
-0.00800108
0.0013126
-0.00853398
0.00125139
-0.00859395
0.00119347
-0.00841335
0.00113933
-0.0081536
0.00108914
-0.00781425
0.00102539
-0.00745815
0.000939822
-0.00725356
0.000870396
-0.00699671
0.000878232
-0.00600134
0.000987996
-0.00379571
0.001168
-0.000695655
0.0013668
0.00250844
0.00154722
0.00514746
0.00696408
0.000991958
0.0059382
0.00121705
0.00591553
0.00139493
0.00508667
0.00150544
0.00347661
0.0015543
0.00107592
0.00155314
-0.00184261
0.0015111
-0.00461835
0.00144421
-0.00669642
0.00136925
-0.00792612
0.00129811
-0.00846283
0.00123554
-0.00853139
0.0011774
-0.00835521
0.0011233
-0.0080995
0.00107429
-0.00776524
0.00101372
-0.00739758
0.000930863
-0.0071707
0.000860486
-0.00692634
0.000863857
-0.00600472
0.000969042
-0.0039009
0.00114755
-0.000874161
0.00134817
0.00230781
0.00153225
0.00496339
0.0068143
0.00101567
0.00570003
0.00123822
0.00569298
0.00141187
0.00491303
0.00151805
0.00337043
0.00156281
0.00103116
0.00155662
-0.00183641
0.00150854
-0.00457027
0.00143606
-0.00662394
0.001357
-0.00784705
0.00128316
-0.00838899
0.00121932
-0.00846755
0.00116105
-0.00829694
0.00110705
-0.0080455
0.00105915
-0.00771733
0.00100177
-0.0073402
0.000921861
-0.00709079
0.000850814
-0.00685529
0.000849808
-0.00600371
0.000950179
-0.00400127
0.00112675
-0.00105073
0.00132885
0.00210571
0.00151639
0.00477584
0.00666032
0.00103852
0.00546383
0.00125766
0.00547383
0.00142678
0.00474391
0.00152889
0.00326831
0.00156993
0.00099012
0.00155893
-0.00182541
0.00150498
-0.00451633
0.00142712
-0.00654607
0.00134414
-0.00776408
0.00126777
-0.00831262
0.00120273
-0.00840251
0.00114441
-0.00823862
0.00109058
-0.00799167
0.00104371
-0.00767046
0.000989497
-0.00728599
0.000912766
-0.00701406
0.000841342
-0.00678387
0.000836078
-0.00599845
0.000931454
-0.00409664
0.00110567
-0.00122495
0.00130887
0.00190252
0.00149967
0.00458505
0.00650223
0.00106037
0.00523067
0.00127533
0.00525888
0.00143971
0.00457953
0.00153805
0.00316997
0.00157572
0.000952457
0.0015601
-0.00180979
0.00150044
-0.00445668
0.00141737
-0.006463
0.00133069
-0.00767739
0.00125192
-0.00823385
0.00118574
-0.00833633
0.00112745
-0.00818033
0.00107386
-0.00793808
0.00102795
-0.00762455
0.000976865
-0.0072349
0.000903529
-0.00694072
0.000832032
-0.00671237
0.000822649
-0.00598906
0.000912896
-0.00418689
0.00108438
-0.00139644
0.00128828
0.00169862
0.00148208
0.00439124
0.00634017
0.00108112
0.0050015
0.0012912
0.0050488
0.00145073
0.00442
0.00154565
0.00307504
0.00158027
0.000917838
0.00156017
-0.00178969
0.00149492
-0.00439142
0.00140684
-0.00637492
0.00131663
-0.00758719
0.00123562
-0.00815285
0.00116837
-0.00826908
0.00111017
-0.00812213
0.00105689
-0.0078848
0.00101187
-0.00757953
0.000963836
-0.00718686
0.000894098
-0.00687099
0.000822842
-0.00664111
0.000809499
-0.00597572
0.000894526
-0.00427192
0.00106294
-0.00156485
0.00126714
0.00149442
0.00146367
0.00419471
0.00617426
0.00110069
0.0047772
0.0013053
0.00484419
0.00145996
0.00426534
0.00155185
0.00298315
0.00158371
0.000885983
0.00155918
-0.00176516
0.00148843
-0.00432067
0.00139551
-0.006282
0.00130196
-0.00749364
0.00121886
-0.00806975
0.0011506
-0.00820082
0.00109254
-0.00806407
0.00103966
-0.00783192
0.000995451
-0.00753532
0.000950377
-0.00714179
0.00088442
-0.00680503
0.000813735
-0.00657043
0.000796601
-0.00595859
0.000876352
-0.00435167
0.00104141
-0.00172991
0.00124551
0.00129032
0.00144447
0.00399575
0.0060047
0.00111908
0.00455856
0.00131775
0.00464553
0.0014676
0.00411548
0.00155686
0.00289389
0.00158615
0.000856697
0.00155717
-0.00173618
0.00148097
-0.00424448
0.00138339
-0.00618442
0.0012867
-0.00739695
0.00120164
-0.0079847
0.00113243
-0.0081316
0.00107456
-0.00800619
0.00102214
-0.00777951
0.000978692
-0.00749187
0.000936461
-0.00709956
0.000874447
-0.00674301
0.000804673
-0.00650065
0.000783931
-0.00593784
0.000858373
-0.00442611
0.00101984
-0.00189138
0.00122347
0.0010867
0.00142454
0.00379467
0.00583167
0.0011364
0.00434627
0.00132873
0.00445319
0.00147393
0.00397028
0.00156096
0.00280686
0.00158774
0.000829912
0.00155415
-0.00170259
0.00147256
-0.00416289
0.00137052
-0.00608237
0.00127088
-0.00729731
0.00118402
-0.00789784
0.0011139
-0.00806148
0.00105624
-0.00794854
0.00100437
-0.00772763
0.000961608
-0.00744911
0.000922078
-0.00706003
0.000864138
-0.00668507
0.000795623
-0.00643214
0.000771469
-0.00591369
0.000840586
-0.00449523
0.000998297
-0.00204909
0.00120111
0.000883884
0.00140394
0.00359184
0.00565542
0.00115291
0.004141
0.00133862
0.00426749
0.00147938
0.00382951
0.00156446
0.00272179
0.00158862
0.00080575
0.00155016
-0.00166413
0.0014632
-0.00407593
0.00135692
-0.00597608
0.00125452
-0.00719492
0.00116599
-0.0078093
0.00109501
-0.0079905
0.00103759
-0.00789111
0.000986311
-0.00767636
0.000944189
-0.00740699
0.0009072
-0.00702304
0.000853433
-0.00663131
0.000786533
-0.00636524
0.000759177
-0.00588633
0.000822963
-0.00455901
0.000976814
-0.00220294
0.00117855
0.000682145
0.0013828
0.00338759
0.00547621
0.00116928
0.00134813
0.00408863
0.00148468
0.00369296
0.00156793
0.00263854
0.00158908
0.000784603
0.00154531
-0.00162036
0.00145289
-0.00398351
0.00134244
-0.00586563
0.0012374
-0.00708989
0.00114731
-0.00771921
0.00107553
-0.00791873
0.00101838
-0.00783396
0.000967814
-0.00762579
0.000926319
-0.0073655
0.000891719
-0.00698844
0.000842211
-0.0065818
0.000777302
-0.00630033
0.000746977
-0.00585601
0.000805409
-0.00461744
0.000955353
-0.00235288
0.00115588
0.000481621
0.00136126
0.00318221
0.00529436
0.00135872
0.00391672
0.00149127
0.00356042
0.00157252
0.00255729
0.00158979
0.000767337
0.0015399
-0.00157048
0.0014416
-0.00388521
0.00132685
-0.00575088
0.00121915
-0.00698219
0.0011276
-0.00762765
0.00105515
-0.00784628
0.000998396
-0.00777721
0.000948698
-0.00757609
0.000907884
-0.00732468
0.000875551
-0.00695611
0.000830393
-0.00653664
0.000767885
-0.00623782
0.000734849
-0.00582297
0.000787843
-0.00467044
0.00093379
-0.00249883
0.00113308
0.000282332
0.00133944
0.00297585
0.00511013
0.00137182
0.0037519
0.00150018
0.00343206
0.0015785
0.00247897
0.00159038
0.000755465
0.0015335
-0.0015136
0.00142944
-0.00378114
0.00131082
-0.00563227
0.00120082
-0.0068722
0.00110799
-0.00753482
0.0010349
-0.00777319
0.000978467
-0.00772078
0.000929641
-0.00752726
0.00088944
-0.00728448
0.000859147
-0.00692581
0.000818328
-0.00649582
0.000758601
-0.0061781
0.000723176
-0.00578755
0.000770655
-0.00471792
0.000912404
-0.00264058
0.00111039
8.43481e-05
0.00131769
0.00276855
0.00492383
0.00138763
0.0035954
0.00151016
0.00330953
0.00158302
0.00240611
0.0015878
0.000750677
0.0015251
-0.00145089
0.00141776
-0.00367381
0.00129748
-0.00551199
0.00118626
-0.00676098
0.00109225
-0.00744081
0.00101805
-0.00769898
0.000961306
-0.00766404
0.000912844
-0.0074788
0.000872856
-0.00724449
0.000844129
-0.00689709
0.000807426
-0.00645912
0.000750884
-0.00612155
0.000713706
-0.00575037
0.000755928
-0.00476014
0.000893662
-0.00277831
0.00109009
-0.000112079
0.00129767
0.00256096
0.00473603
0.00454092
0.00299123
0.00520674
0.00264371
0.00588666
0.00172619
0.00645522
0.000182119
0.00684332
-0.001839
0.00699745
-0.00382794
0.0069442
-0.00545874
0.00673762
-0.0065544
0.00644003
-0.00714322
0.00610967
-0.00736862
0.00578647
-0.00734084
0.00547365
-0.00716598
0.00517502
-0.00694586
0.00490497
-0.00662704
0.00462654
-0.00618069
0.00428536
-0.00578037
0.00392596
-0.00539098
0.00368438
-0.00451855
0.00365379
-0.00274772
0.00383376
-0.000292052
0.00413537
0.00225935
0.00448595
0.00438546
0.00615044
0.00525214
0.00245546
0.00584737
0.00204848
0.00644227
0.00113129
0.0069509
-0.000326504
0.00726018
-0.00214829
0.00734918
-0.00391693
0.00723115
-0.00534072
0.00696975
-0.00629299
0.00663622
-0.00680969
0.00628544
-0.00701784
0.00595199
-0.00700739
0.00563644
-0.00685043
0.00533371
-0.00664313
0.00505809
-0.00635142
0.00478656
-0.00590915
0.00446241
-0.00545623
0.00410774
-0.00503631
0.00384826
-0.00425908
0.00379439
-0.00269385
0.00394786
-0.000445522
0.00425548
0.00195173
0.00461148
0.00402946
0.00583835
0.00598249
0.00198953
0.00650594
0.00152503
0.00702095
0.000616272
0.00743897
-0.000744517
0.00766302
-0.00237234
0.00766928
-0.00392319
0.00748641
-0.00515785
0.00718476
-0.00599134
0.00683155
-0.00645648
0.00647087
-0.00665716
0.00613101
-0.00666753
0.00581284
-0.00653226
0.00550577
-0.00633606
0.00522306
-0.00606871
0.00495536
-0.00564145
0.00464722
-0.00514808
0.00429974
-0.00468883
0.00402493
-0.00398427
0.00394497
-0.00261389
0.00408405
-0.000584603
0.00438541
0.00165037
0.00474394
0.00367093
0.00551879
0.00670724
0.00158946
0.00715149
0.00108077
0.00757504
0.00019273
0.00789025
-0.00105973
0.00801689
-0.00249898
0.0079422
-0.00384849
0.00770625
-0.00492191
0.00737666
-0.00566176
0.00701243
-0.00609224
0.00664799
-0.00629272
0.00630574
-0.00632528
0.00598796
-0.00621447
0.00568045
-0.00602855
0.00539284
-0.0057811
0.00512833
-0.00537694
0.00483766
-0.00485742
0.0045023
-0.00435346
0.0042166
-0.00369857
0.00411168
-0.00250898
0.00423225
-0.000705167
0.0045243
0.00135832
0.00488205
0.00331318
0.00519259
0.00736687
0.00124844
0.0077311
0.000716546
0.00805879
-0.000134964
0.00826961
-0.00127055
0.00830454
-0.00253391
0.00816419
-0.00370815
0.00789239
-0.0046501
0.00754879
-0.00531815
0.0071829
-0.00572635
0.00682099
-0.00593081
0.00647999
-0.00598428
0.00616436
-0.00589885
0.00585909
-0.00572329
0.00556847
-0.00549047
0.00530575
-0.00511422
0.00503291
-0.00458458
0.00471525
-0.0040358
0.00442406
-0.00340738
0.00429387
-0.00237878
0.00439046
-0.000801756
0.00466913
0.00107964
0.00502344
0.00295888
0.00485985
0.00790947
0.000957114
0.00820116
0.000424855
0.00843958
-0.000373381
0.00855993
-0.0013909
0.00852291
-0.00249688
0.00833884
-0.00352408
0.00804959
-0.00436085
0.00770479
-0.00497335
0.00734495
-0.00536651
0.0069905
-0.00557636
0.00665388
-0.00564767
0.00634186
-0.00558682
0.00604116
-0.00542259
0.00575004
-0.00519934
0.00548788
-0.00485206
0.00523182
-0.00432853
0.00493683
-0.00374081
0.0046466
-0.00311715
0.00449132
-0.0022235
0.00455793
-0.000868372
0.00481748
0.000820093
0.00516585
0.0026105
0.00452006
0.00831676
0.000707704
0.00854746
0.000194154
0.00871325
-0.000539162
0.00876614
-0.00144379
0.00868226
-0.00241301
0.00847648
-0.00331831
0.00818561
-0.00406997
0.00784952
-0.00463727
0.00750126
-0.00501825
0.00715774
-0.00523284
0.00682809
-0.00531803
0.00652076
-0.00527949
0.00622633
-0.00512816
0.00593754
-0.00491055
0.00567526
-0.00458978
0.00543347
-0.00408674
0.00516462
-0.00347197
0.00488307
-0.0028356
0.00470457
-0.002045
0.00473493
-0.000898732
0.00496791
0.000587114
0.00530733
0.00227108
0.00417249
0.00860509
0.000494879
0.00878683
1.24129e-05
0.0088995
-0.000651831
0.00890851
-0.0014528
0.00880023
-0.00230472
0.00858993
-0.00310801
0.00830839
-0.00378843
0.00798737
-0.00431625
0.00765409
-0.00468497
0.00732368
-0.00490244
0.00700311
-0.00499745
0.00670142
-0.0049778
0.00641424
-0.00484097
0.00613069
-0.004627
0.00586854
-0.00432764
0.00563744
-0.00385563
0.005396
-0.00323052
0.00513141
-0.00257101
0.00493463
-0.00184822
0.00492334
-0.000887444
0.00512075
0.000389704
0.00544652
0.00194532
0.00381697
0.00880835
0.000314671
0.00895188
-0.000131123
0.00902804
-0.000727982
0.00901161
-0.00143638
0.00889467
-0.00218778
0.00869062
-0.00290396
0.00842454
-0.00352236
0.00812191
-0.00401362
0.00780536
-0.00436842
0.00748921
-0.00458629
0.0071793
-0.00468754
0.00688423
-0.00468273
0.0066047
-0.00456144
0.00632892
-0.00435123
0.00606835
-0.00406707
0.00584407
-0.00363135
0.00562844
-0.00301489
0.00538852
-0.0023311
0.00518192
-0.00164162
0.00512685
-0.000832376
0.00527881
0.000237744
0.00558348
0.00164064
0.00345508
0.00896099
0.000163486
0.00907469
-0.000244827
0.00912603
-0.000779324
0.00909604
-0.00140638
0.00897947
-0.00207121
0.00878704
-0.00271152
0.00853889
-0.00327422
0.00825573
-0.00373046
0.00795653
-0.00406921
0.00765505
-0.00428481
0.00735693
-0.00438942
0.00706953
-0.00439533
0.00679767
-0.00428959
0.00653149
-0.00408504
0.00627496
-0.00381054
0.00605436
-0.00341075
0.00586017
-0.0028207
0.00565024
-0.00212116
0.00544545
-0.00143683
0.00534991
-0.000736838
0.00544774
0.000139916
0.00572085
0.00136754
0.00309156
0.00908882
3.81881e-05
0.00917881
-0.000334822
0.00921273
-0.000813242
0.00917572
-0.00136938
0.00906367
-0.00195916
0.00888461
-0.00253246
0.00865457
-0.00304418
0.0083906
-0.00346649
0.00810865
-0.00378726
0.00782184
-0.003998
0.00753618
-0.00410375
0.00725758
-0.00411673
0.00699335
-0.00402536
0.00673762
-0.00382931
0.00648811
-0.00356103
0.00626971
-0.00319235
0.00609072
-0.00264171
0.00591215
-0.00194259
0.00572193
-0.00124661
0.00559594
-0.000610847
0.00563531
0.000100543
0.00586445
0.0011384
0.00273566
0.00920808
-6.45762e-05
0.00927857
-0.00040531
0.00929946
-0.000834127
0.0092586
-0.00132852
0.00915234
-0.00185289
0.00898642
-0.00236654
0.00877347
-0.00283123
0.00852769
-0.0032207
0.00826252
-0.0035221
0.00799016
-0.00372563
0.00771724
-0.00383084
0.00744853
-0.00384802
0.00719208
-0.0037689
0.00694678
-0.003584
0.006707
-0.00332125
0.00649138
-0.00297673
0.00632112
-0.00247145
0.00617063
-0.0017921
0.00600581
-0.00108179
0.00586533
-0.00047037
0.00584947
0.000116401
0.00602296
0.000964914
0.00240172
0.00932731
-0.000147787
0.00938135
-0.000459355
0.00939181
-0.000844585
0.00934847
-0.00128518
0.00924788
-0.0017523
0.009094
-0.00221266
0.00889668
-0.00263392
0.00866778
-0.0029918
0.00841872
-0.00327303
0.00816049
-0.00346741
0.00790033
-0.00357068
0.00764239
-0.00359008
0.00739418
-0.0035207
0.00715877
-0.00334859
0.00693048
-0.00309296
0.00671991
-0.00276616
0.00655356
-0.0023051
0.00642405
-0.00166259
0.00629039
-0.000948135
0.00615415
-0.000334129
0.00609541
0.000175143
0.00620605
0.000854274
0.00210818
0.00945027
-0.000214022
0.0094903
-0.000499381
0.00949203
-0.000846318
0.00944678
-0.00123993
0.00935124
-0.00165677
0.00920804
-0.00206946
0.00902482
-0.0024507
0.00881146
-0.00277843
0.00857769
-0.00303927
0.00833328
-0.00322299
0.00808572
-0.00332313
0.00783912
-0.00334347
0.00759988
-0.00328147
0.00737377
-0.00312248
0.00715749
-0.00287667
0.00695486
-0.00256354
0.0067905
-0.00214074
0.00667341
-0.0015455
0.00656997
-0.000844693
0.0064544
-0.000218559
0.00637268
0.000256861
0.00642166
0.000805295
0.00187407
0.00957839
-0.000265587
0.00960639
-0.000527381
0.00960067
-0.000840593
0.00955378
-0.00119304
0.00946261
-0.0015656
0.00932881
-0.00193567
0.00915826
-0.00228014
0.00895914
-0.00257931
0.00873983
-0.00281997
0.00850889
-0.00299204
0.00827372
-0.00308796
0.00803871
-0.00310846
0.00780922
-0.00305198
0.00759213
-0.00290538
0.0073874
-0.00267195
0.00719505
-0.00237119
0.00703354
-0.00197923
0.00692182
-0.00143377
0.00684185
-0.000764727
0.00675626
-0.000132966
0.00667392
0.0003392
0.00667274
0.000806475
0.00171306
0.00971201
-0.000304537
0.0097297
-0.000545072
0.00971759
-0.000828473
0.00966928
-0.00114473
0.00958189
-0.00147821
0.00945637
-0.00181015
0.00929722
-0.00212099
0.00911118
-0.00239328
0.0089055
-0.00261429
0.00868764
-0.00277418
0.00846465
-0.00286498
0.00824125
-0.00288506
0.00802212
-0.00283285
0.00781414
-0.0026974
0.00762009
-0.0024779
0.00743911
-0.00219021
0.00728291
-0.00182304
0.00717292
-0.00132378
0.00710733
-0.000699134
0.00705179
-7.74288e-05
0.00698664
0.000404354
0.00695501
0.000838108
0.00162652
0.00985109
-0.000332697
0.00985999
-0.000553969
0.00984243
-0.00081091
0.00979295
-0.00109526
0.00970889
-0.00139415
0.00959071
-0.00169197