/*--------------------------------*- C++ -*----------------------------------*\
  =========                 |
  \\      /  F ield         | OpenFOAM: The Open Source CFD Toolbox
   \\    /   O peration     | Website:  https://openfoam.org
    \\  /    A nd           | Version:  7
     \\/     M anipulation  |
\*---------------------------------------------------------------------------*/
FoamFile
{
    version     2.0;
    format      ascii;
    class       volScalarField;
    location    "120";
    object      p;
}
// * * * * * * * * * * * * * * * * * * * * * * * * * * * * * * * * * * * * * //

dimensions      [0 2 -2 0 0 0 0];

internalField   nonuniform List<scalar> 
36600
(
-0.39013
-0.390981
-0.391449
-0.391789
-0.392058
-0.39232
-0.392652
-0.393122
-0.393786
-0.394684
-0.395849
-0.397309
-0.399093
-0.401238
-0.40379
-0.406808
-0.410365
-0.414566
-0.419419
-0.425008
-0.388794
-0.38987
-0.390459
-0.390895
-0.391243
-0.391565
-0.391943
-0.392442
-0.393116
-0.394001
-0.395127
-0.396517
-0.398195
-0.400193
-0.402549
-0.405315
-0.408556
-0.412365
-0.416738
-0.421761
-0.387482
-0.38878
-0.389488
-0.390018
-0.390442
-0.390824
-0.391245
-0.39177
-0.39245
-0.393319
-0.3944
-0.395713
-0.397277
-0.399117
-0.401264
-0.403761
-0.406665
-0.410058
-0.41392
-0.418335
-0.386211
-0.387727
-0.38855
-0.389172
-0.389671
-0.390111
-0.390573
-0.391122
-0.391806
-0.392654
-0.393686
-0.394917
-0.39636
-0.398032
-0.399958
-0.402172
-0.404721
-0.407678
-0.411003
-0.414774
-0.384999
-0.386727
-0.387662
-0.388373
-0.388944
-0.38944
-0.389942
-0.390513
-0.391198
-0.392023
-0.393003
-0.394148
-0.395463
-0.39696
-0.398656
-0.400575
-0.402755
-0.405259
-0.408024
-0.411123
-0.383864
-0.385796
-0.386839
-0.387635
-0.388277
-0.388826
-0.389367
-0.389959
-0.390643
-0.391443
-0.392369
-0.393423
-0.394607
-0.395924
-0.397382
-0.398996
-0.400796
-0.402834
-0.405022
-0.407427
-0.382826
-0.384951
-0.386096
-0.386974
-0.387684
-0.388285
-0.388863
-0.389474
-0.390157
-0.390931
-0.3918
-0.392762
-0.393811
-0.394943
-0.396158
-0.39746
-0.398871
-0.400434
-0.402033
-0.403727
-0.3819
-0.384208
-0.385449
-0.386405
-0.387179
-0.387831
-0.388444
-0.389074
-0.389756
-0.390502
-0.391314
-0.392182
-0.393094
-0.394038
-0.395005
-0.395991
-0.397007
-0.398089
-0.399092
-0.400065
-0.381105
-0.383581
-0.384913
-0.385942
-0.386777
-0.387477
-0.388125
-0.388773
-0.389452
-0.390171
-0.390925
-0.391699
-0.392473
-0.393227
-0.393945
-0.394611
-0.395228
-0.395826
-0.39623
-0.39648
-0.380456
-0.383086
-0.384499
-0.385597
-0.38649
-0.387237
-0.387918
-0.388584
-0.38926
-0.389952
-0.390648
-0.391328
-0.391964
-0.392528
-0.392994
-0.393339
-0.393556
-0.393671
-0.393477
-0.393005
-0.379968
-0.382734
-0.384222
-0.385383
-0.38633
-0.387121
-0.387835
-0.388518
-0.389192
-0.389857
-0.390497
-0.391083
-0.391582
-0.391956
-0.392171
-0.392194
-0.392011
-0.391646
-0.390857
-0.389669
-0.379654
-0.382539
-0.384092
-0.38531
-0.386308
-0.387141
-0.387886
-0.388586
-0.389258
-0.389898
-0.390482
-0.390977
-0.39134
-0.391525
-0.39149
-0.391191
-0.39061
-0.389769
-0.388392
-0.386498
-0.379525
-0.382509
-0.384119
-0.385388
-0.386432
-0.387305
-0.38808
-0.388796
-0.389468
-0.390083
-0.390614
-0.391019
-0.391248
-0.391247
-0.390963
-0.390345
-0.389368
-0.388055
-0.3861
-0.383509
-0.379591
-0.382654
-0.384312
-0.385624
-0.38671
-0.387619
-0.388424
-0.389157
-0.389828
-0.390421
-0.390901
-0.391219
-0.391317
-0.391132
-0.390602
-0.389666
-0.388295
-0.386517
-0.383992
-0.380716
-0.37986
-0.382981
-0.384674
-0.386024
-0.387148
-0.388091
-0.388923
-0.389673
-0.390345
-0.390917
-0.391348
-0.391583
-0.391553
-0.391188
-0.390414
-0.389164
-0.387401
-0.385163
-0.382078
-0.378127
-0.380336
-0.383492
-0.385212
-0.386592
-0.387748
-0.388722
-0.38958
-0.390347
-0.391021
-0.391575
-0.391961
-0.392115
-0.391962
-0.39142
-0.390407
-0.388844
-0.386692
-0.383998
-0.380363
-0.375742
-0.381023
-0.384191
-0.385927
-0.387329
-0.388512
-0.389514
-0.390397
-0.391181
-0.391858
-0.392395
-0.392739
-0.392818
-0.392547
-0.391833
-0.390584
-0.388713
-0.386173
-0.383025
-0.378849
-0.373558
-0.38192
-0.385078
-0.386818
-0.388234
-0.38944
-0.390466
-0.391372
-0.392172
-0.392854
-0.393378
-0.393684
-0.393692
-0.393307
-0.392427
-0.390948
-0.388771
-0.385845
-0.382245
-0.377534
-0.371566
-0.383026
-0.38615
-0.387883
-0.389306
-0.390527
-0.391575
-0.392502
-0.393318
-0.394006
-0.394519
-0.394791
-0.394733
-0.394242
-0.393201
-0.391498
-0.38902
-0.385709
-0.381656
-0.376416
-0.369753
-0.384336
-0.387403
-0.389118
-0.390538
-0.391769
-0.392834
-0.39378
-0.394613
-0.395307
-0.395812
-0.396054
-0.395936
-0.395344
-0.394151
-0.39223
-0.389456
-0.385762
-0.381255
-0.375489
-0.368101
-0.385843
-0.38883
-0.390515
-0.391925
-0.39316
-0.394238
-0.395199
-0.396047
-0.396748
-0.397248
-0.397464
-0.397292
-0.396607
-0.395269
-0.393138
-0.390076
-0.386
-0.381034
-0.37475
-0.366591
-0.387538
-0.390423
-0.392067
-0.393458
-0.394688
-0.395774
-0.396749
-0.39761
-0.398319
-0.398815
-0.399009
-0.398788
-0.398017
-0.396544
-0.394213
-0.39087
-0.386417
-0.380988
-0.374195
-0.3652
-0.389409
-0.392172
-0.393763
-0.395125
-0.396345
-0.397433
-0.398418
-0.399289
-0.400005
-0.400498
-0.400673
-0.400409
-0.399559
-0.39796
-0.395439
-0.391827
-0.387001
-0.381105
-0.37382
-0.363912
-0.391442
-0.394063
-0.395592
-0.396916
-0.398117
-0.399201
-0.40019
-0.401069
-0.401791
-0.402281
-0.402439
-0.402135
-0.401214
-0.399497
-0.396798
-0.392929
-0.387738
-0.381368
-0.373614
-0.362681
-0.393624
-0.396085
-0.397539
-0.398817
-0.39999
-0.401064
-0.402051
-0.402933
-0.403657
-0.404144
-0.404286
-0.403945
-0.402958
-0.401133
-0.398267
-0.394155
-0.38861
-0.381759
-0.373561
-0.361339
-0.395937
-0.398221
-0.399592
-0.400813
-0.401951
-0.403005
-0.403985
-0.404864
-0.405586
-0.406066
-0.40619
-0.405814
-0.404765
-0.402839
-0.399819
-0.395478
-0.389597
-0.382279
-0.373717
-0.359728
-0.398365
-0.400459
-0.401735
-0.402891
-0.403983
-0.405009
-0.405973
-0.406842
-0.407556
-0.408024
-0.408127
-0.407715
-0.406605
-0.404584
-0.401419
-0.396867
-0.390673
-0.382923
-0.374144
-0.35882
-0.40089
-0.402781
-0.403955
-0.405035
-0.406072
-0.40706
-0.407998
-0.408848
-0.409546
-0.409995
-0.410072
-0.40962
-0.408449
-0.406336
-0.403034
-0.398284
-0.391806
-0.383634
-0.374221
-0.358373
-0.403494
-0.405174
-0.406236
-0.407231
-0.408202
-0.409142
-0.410043
-0.410864
-0.411535
-0.411957
-0.412
-0.411501
-0.410265
-0.408059
-0.404624
-0.399688
-0.39295
-0.384408
-0.374442
-0.357797
-0.40616
-0.407622
-0.408565
-0.409465
-0.410359
-0.411239
-0.412091
-0.41287
-0.413503
-0.413886
-0.413885
-0.413331
-0.412022
-0.409719
-0.406154
-0.401039
-0.394057
-0.385161
-0.374785
-0.357126
-0.408873
-0.410111
-0.410928
-0.411724
-0.41253
-0.413337
-0.414127
-0.414851
-0.415433
-0.415763
-0.415705
-0.415084
-0.413693
-0.411286
-0.407586
-0.402298
-0.395086
-0.385845
-0.375149
-0.356406
-0.411616
-0.412629
-0.413313
-0.413996
-0.414703
-0.415424
-0.416137
-0.416792
-0.417306
-0.41757
-0.417439
-0.416738
-0.415252
-0.412732
-0.408892
-0.40343
-0.395997
-0.386425
-0.37547
-0.355633
-0.414376
-0.415164
-0.41571
-0.41627
-0.416867
-0.417488
-0.418111
-0.41868
-0.419111
-0.419291
-0.419073
-0.418275
-0.416681
-0.414034
-0.410045
-0.404408
-0.396761
-0.386871
-0.375697
-0.354796
-0.417142
-0.417707
-0.418111
-0.41854
-0.419014
-0.419522
-0.420038
-0.420505
-0.420837
-0.420916
-0.420593
-0.419683
-0.417964
-0.415178
-0.411031
-0.405213
-0.397354
-0.387166
-0.375784
-0.353899
-0.419904
-0.420251
-0.420508
-0.420798
-0.421138
-0.421519
-0.421913
-0.422261
-0.422475
-0.422436
-0.421991
-0.420952
-0.419094
-0.416156
-0.411839
-0.405836
-0.397766
-0.387308
-0.375702
-0.35298
-0.422657
-0.42279
-0.422897
-0.423041
-0.423235
-0.423475
-0.423731
-0.423945
-0.424025
-0.42385
-0.423265
-0.422081
-0.420069
-0.416965
-0.412471
-0.406281
-0.397999
-0.387313
-0.37544
-0.352111
-0.425395
-0.425321
-0.425277
-0.425267
-0.425305
-0.425391
-0.425494
-0.425556
-0.425484
-0.425157
-0.424417
-0.423071
-0.420891
-0.417611
-0.412934
-0.406557
-0.398064
-0.387206
-0.374945
-0.351234
-0.428118
-0.427844
-0.427646
-0.427475
-0.427348
-0.427267
-0.427203
-0.427097
-0.426859
-0.426363
-0.425451
-0.42393
-0.421568
-0.418103
-0.413241
-0.406687
-0.398003
-0.38706
-0.374091
-0.349898
-0.430826
-0.430361
-0.430006
-0.42967
-0.429368
-0.429108
-0.428863
-0.428576
-0.428155
-0.427476
-0.426379
-0.424667
-0.422113
-0.418456
-0.41341
-0.4067
-0.397888
-0.387047
-0.373031
-0.348306
-0.433525
-0.432874
-0.432363
-0.431854
-0.43137
-0.430921
-0.430483
-0.430001
-0.429384
-0.428508
-0.427211
-0.425297
-0.42254
-0.418683
-0.413455
-0.406615
-0.397767
-0.387307
-0.372768
-0.351518
-0.436219
-0.43539
-0.434721
-0.434036
-0.433361
-0.432713
-0.432071
-0.431383
-0.430558
-0.429472
-0.427963
-0.425836
-0.422864
-0.418799
-0.413387
-0.406428
-0.397592
-0.387598
-0.373966
-0.368277
-0.438919
-0.437917
-0.437088
-0.436223
-0.435351
-0.434496
-0.433641
-0.432735
-0.431691
-0.430384
-0.428652
-0.426299
-0.423101
-0.418818
-0.413212
-0.406125
-0.397293
-0.387669
-0.374719
-0.372373
-0.441635
-0.440464
-0.439475
-0.438425
-0.43735
-0.436281
-0.435205
-0.434073
-0.4328
-0.431261
-0.429295
-0.426704
-0.423267
-0.41875
-0.412935
-0.405695
-0.396818
-0.387347
-0.374717
-0.37239
-0.444379
-0.443041
-0.44189
-0.440653
-0.439371
-0.438082
-0.436777
-0.435412
-0.433901
-0.432122
-0.42991
-0.427068
-0.423376
-0.418609
-0.41256
-0.40513
-0.396143
-0.386628
-0.374093
-0.370793
-0.447164
-0.445661
-0.444345
-0.442918
-0.441425
-0.439912
-0.438373
-0.436768
-0.435012
-0.432982
-0.430513
-0.427406
-0.423443
-0.418403
-0.412092
-0.404429
-0.395264
-0.38555
-0.372943
-0.368208
-0.450006
-0.448335
-0.446853
-0.445232
-0.443525
-0.441784
-0.440008
-0.438157
-0.436149
-0.43386
-0.431121
-0.427734
-0.423478
-0.418141
-0.411536
-0.403595
-0.394186
-0.384159
-0.371371
-0.365083
-0.452918
-0.451076
-0.449426
-0.447609
-0.445685
-0.443713
-0.441696
-0.439594
-0.437328
-0.434769
-0.431748
-0.428062
-0.423493
-0.417829
-0.410896
-0.402632
-0.392922
-0.382507
-0.369474
-0.361704
-0.455917
-0.453897
-0.452075
-0.450059
-0.447917
-0.445713
-0.443451
-0.441095
-0.438563
-0.435725
-0.432406
-0.428402
-0.423493
-0.417474
-0.410178
-0.401551
-0.391493
-0.380645
-0.367336
-0.358237
-0.459015
-0.45681
-0.454812
-0.452596
-0.450234
-0.447795
-0.445287
-0.442672
-0.439867
-0.436737
-0.433104
-0.42876
-0.423485
-0.417079
-0.409386
-0.400358
-0.389917
-0.378615
-0.365023
-0.354778
-0.462226
-0.459826
-0.457649
-0.455231
-0.452646
-0.449972
-0.447215
-0.444337
-0.44125
-0.437815
-0.433849
-0.42914
-0.423471
-0.416647
-0.408524
-0.399065
-0.388214
-0.376455
-0.362587
-0.351377
-0.465563
-0.462958
-0.460596
-0.457973
-0.455165
-0.452254
-0.449245
-0.446098
-0.44272
-0.438965
-0.434645
-0.429546
-0.423452
-0.416178
-0.407594
-0.397679
-0.386402
-0.374195
-0.360063
-0.348057
-0.469037
-0.466213
-0.463663
-0.460832
-0.4578
-0.454651
-0.451387
-0.447964
-0.444283
-0.440191
-0.435495
-0.429977
-0.423426
-0.415671
-0.4066
-0.396209
-0.384497
-0.371858
-0.357481
-0.344824
-0.472658
-0.469602
-0.466857
-0.463816
-0.460558
-0.457168
-0.453646
-0.44994
-0.445943
-0.441495
-0.436395
-0.430428
-0.42339
-0.415124
-0.405542
-0.394661
-0.382511
-0.369461
-0.354857
-0.341673
-0.476431
-0.47313
-0.470186
-0.466931
-0.463446
-0.459814
-0.456027
-0.452028
-0.4477
-0.442873
-0.437343
-0.430896
-0.423339
-0.414534
-0.404421
-0.393041
-0.380456
-0.367017
-0.352204
-0.338597
-0.480364
-0.476803
-0.473655
-0.470184
-0.466468
-0.46259
-0.458534
-0.45423
-0.449552
-0.444322
-0.438332
-0.431372
-0.423265
-0.413897
-0.403236
-0.391353
-0.378339
-0.364534
-0.349528
-0.335579
-0.48446
-0.480625
-0.477267
-0.473577
-0.469629
-0.465501
-0.461165
-0.456543
-0.451495
-0.445835
-0.439353
-0.431848
-0.423161
-0.413207
-0.401986
-0.389598
-0.376164
-0.362016
-0.346832
-0.332608
-0.48872
-0.484597
-0.481024
-0.477113
-0.472929
-0.468545
-0.463921
-0.458964
-0.453522
-0.447402
-0.440396
-0.432312
-0.423017
-0.412458
-0.400669
-0.387778
-0.373935
-0.359464
-0.344116
-0.329666
-0.493142
-0.48872
-0.484928
-0.480791
-0.476368
-0.471721
-0.466797
-0.461486
-0.455625
-0.449013
-0.441447
-0.432753
-0.422824
-0.411642
-0.39928
-0.385892
-0.371653
-0.356878
-0.341376
-0.326738
-0.497725
-0.492991
-0.488976
-0.484611
-0.479943
-0.475026
-0.469787
-0.4641
-0.457791
-0.450653
-0.442492
-0.433156
-0.42257
-0.410754
-0.397816
-0.383939
-0.369317
-0.354255
-0.338609
-0.323812
-0.502464
-0.497406
-0.493165
-0.48857
-0.483652
-0.478454
-0.472883
-0.466796
-0.460006
-0.452307
-0.443516
-0.433507
-0.422243
-0.409784
-0.396273
-0.381916
-0.366924
-0.351591
-0.335808
-0.320872
-0.50735
-0.501961
-0.49749
-0.492661
-0.487487
-0.481996
-0.476074
-0.46956
-0.462255
-0.453957
-0.4445
-0.433791
-0.421832
-0.408724
-0.394644
-0.379819
-0.36447
-0.34888
-0.332967
-0.317906
-0.512375
-0.506647
-0.501944
-0.496878
-0.491441
-0.485643
-0.479348
-0.472375
-0.464519
-0.455585
-0.445428
-0.433993
-0.421325
-0.407566
-0.392923
-0.377642
-0.361951
-0.346117
-0.330078
-0.314902
-0.517526
-0.511453
-0.506518
-0.501211
-0.495503
-0.489383
-0.482689
-0.475224
-0.466779
-0.457169
-0.44628
-0.434096
-0.420709
-0.406299
-0.391105
-0.375381
-0.359361
-0.343293
-0.327134
-0.311849
-0.52279
-0.516369
-0.5112
-0.505649
-0.49966
-0.493199
-0.486078
-0.478086
-0.469012
-0.458688
-0.447035
-0.434084
-0.419971
-0.404916
-0.38918
-0.373029
-0.356693
-0.340402
-0.324126
-0.308736
-0.52815
-0.521379
-0.515978
-0.510179
-0.503897
-0.497074
-0.489497
-0.480939
-0.471195
-0.46012
-0.447676
-0.433941
-0.419099
-0.403406
-0.387142
-0.370577
-0.353939
-0.337435
-0.321045
-0.305553
-0.533589
-0.526468
-0.520834
-0.514784
-0.508197
-0.500989
-0.492922
-0.483759
-0.473303
-0.461441
-0.44818
-0.43365
-0.418081
-0.401759
-0.384982
-0.36802
-0.351091
-0.334383
-0.317884
-0.302291
-0.539084
-0.531617
-0.525751
-0.519445
-0.512539
-0.504921
-0.496328
-0.486518
-0.475309
-0.462627
-0.448528
-0.433196
-0.416903
-0.399966
-0.382691
-0.365347
-0.348141
-0.331238
-0.314633
-0.298941
-0.544613
-0.536803
-0.530708
-0.52414
-0.516899
-0.508844
-0.499688
-0.489189
-0.477188
-0.463654
-0.4487
-0.432561
-0.415553
-0.398015
-0.380261
-0.362551
-0.34508
-0.327991
-0.311284
-0.295493
-0.550151
-0.542005
-0.535683
-0.528847
-0.521252
-0.512729
-0.502971
-0.49174
-0.47891
-0.464498
-0.448675
-0.431731
-0.41402
-0.395898
-0.377682
-0.359622
-0.341898
-0.324632
-0.307827
-0.291941
-0.555671
-0.547196
-0.540649
-0.533538
-0.525571
-0.516548
-0.506148
-0.494144
-0.480447
-0.465133
-0.448434
-0.43069
-0.412289
-0.393602
-0.374943
-0.356551
-0.338587
-0.321153
-0.304255
-0.288274
-0.561141
-0.552349
-0.545581
-0.538187
-0.529826
-0.520269
-0.509185
-0.496367
-0.481772
-0.465538
-0.447957
-0.429422
-0.410348
-0.391117
-0.372036
-0.353327
-0.335136
-0.317543
-0.300558
-0.284487
-0.566531
-0.557433
-0.550447
-0.542761
-0.533983
-0.523858
-0.51205
-0.498379
-0.482857
-0.465687
-0.447227
-0.427913
-0.408187
-0.388433
-0.368949
-0.349941
-0.331537
-0.313795
-0.296727
-0.28057
-0.571806
-0.562416
-0.555214
-0.547227
-0.538008
-0.527279
-0.514707
-0.500147
-0.483673
-0.465559
-0.446224
-0.426149
-0.405792
-0.385538
-0.365673
-0.346384
-0.327778
-0.309898
-0.292756
-0.276517
-0.576929
-0.567263
-0.559849
-0.551549
-0.541864
-0.530495
-0.517118
-0.501637
-0.484191
-0.46513
-0.444931
-0.424114
-0.403151
-0.382422
-0.362197
-0.342644
-0.323852
-0.305845
-0.288635
-0.27232
-0.581862
-0.571938
-0.564314
-0.555689
-0.545512
-0.533467
-0.51925
-0.502817
-0.484386
-0.464378
-0.443331
-0.421794
-0.400252
-0.379073
-0.358511
-0.338712
-0.319748
-0.301625
-0.284356
-0.267973
-0.586567
-0.576403
-0.568571
-0.559609
-0.548912
-0.536156
-0.521064
-0.503657
-0.48423
-0.463283
-0.441406
-0.419177
-0.397083
-0.375481
-0.354604
-0.334579
-0.315457
-0.297232
-0.279913
-0.263469
-0.591002
-0.580618
-0.572581
-0.563268
-0.552024
-0.538523
-0.522525
-0.504123
-0.483699
-0.461824
-0.439141
-0.416249
-0.393632
-0.371635
-0.350467
-0.330234
-0.310971
-0.292656
-0.275297
-0.258801
-0.595125
-0.584543
-0.576302
-0.566624
-0.554807
-0.540528
-0.523597
-0.504187
-0.482767
-0.459982
-0.43652
-0.412996
-0.389889
-0.367524
-0.346088
-0.325669
-0.30628
-0.28789
-0.270501
-0.253965
-0.598893
-0.588135
-0.579692
-0.569635
-0.557217
-0.542132
-0.524246
-0.503819
-0.481411
-0.457739
-0.433529
-0.409407
-0.385842
-0.363138
-0.34146
-0.320873
-0.301377
-0.282927
-0.265519
-0.248953
-0.602264
-0.591352
-0.582708
-0.572257
-0.559214
-0.543295
-0.524436
-0.502991
-0.47961
-0.455077
-0.430153
-0.40547
-0.38148
-0.358467
-0.336571
-0.315839
-0.296252
-0.277758
-0.260345
-0.243761
-0.605192
-0.594151
-0.585308
-0.574448
-0.560757
-0.543981
-0.524136
-0.501676
-0.477342
-0.45198
-0.42638
-0.401172
-0.376793
-0.353501
-0.331414
-0.310558
-0.2909
-0.272378
-0.254972
-0.238384
-0.607635
-0.596489
-0.587446
-0.576164
-0.561802
-0.544151
-0.523315
-0.499849
-0.474588
-0.448434
-0.422197
-0.396505
-0.371772
-0.348232
-0.32598
-0.305023
-0.285312
-0.266779
-0.249396
-0.232817
-0.609548
-0.598322
-0.589081
-0.577362
-0.562311
-0.543771
-0.521942
-0.497488
-0.47133
-0.444422
-0.417593
-0.391456
-0.366406
-0.34265
-0.32026
-0.299225
-0.279482
-0.260957
-0.24361
-0.227056
-0.61089
-0.599608
-0.590169
-0.578002
-0.562245
-0.542807
-0.51999
-0.49457
-0.467551
-0.439934
-0.412556
-0.386018
-0.360688
-0.336748
-0.314248
-0.293158
-0.273404
-0.254906
-0.237611
-0.221099
-0.611617
-0.600305
-0.590668
-0.578042
-0.561567
-0.541226
-0.517433
-0.491075
-0.463236
-0.434956
-0.407076
-0.38018
-0.354609
-0.330518
-0.307935
-0.286816
-0.267073
-0.248621
-0.231395
-0.214941
-0.611689
-0.600372
-0.590539
-0.577444
-0.560242
-0.538999
-0.514249
-0.486986
-0.458372
-0.429479
-0.401146
-0.373936
-0.348162
-0.323954
-0.301317
-0.280193
-0.260482
-0.242098
-0.224958
-0.208579
-0.611067
-0.599769
-0.589741
-0.57617
-0.558236
-0.536099
-0.510415
-0.482287
-0.452947
-0.423493
-0.394757
-0.367278
-0.341341
-0.317049
-0.294388
-0.273285
-0.253629
-0.235332
-0.218296
-0.202011
-0.609714
-0.59846
-0.588239
-0.574187
-0.555519
-0.5325
-0.505912
-0.476964
-0.44695
-0.416989
-0.387902
-0.3602
-0.33414
-0.309798
-0.287143
-0.266086
-0.246509
-0.22832
-0.211407
-0.195236
-0.607594
-0.596408
-0.585996
-0.57146
-0.552063
-0.528181
-0.500724
-0.471004
-0.440373
-0.409962
-0.380575
-0.352697
-0.326553
-0.302196
-0.279577
-0.258594
-0.23912
-0.22106
-0.204291
-0.188257
-0.604674
-0.59358
-0.58298
-0.56796
-0.547843
-0.523121
-0.494836
-0.464398
-0.433209
-0.402405
-0.372773
-0.344765
-0.318578
-0.294242
-0.271688
-0.250805
-0.231456
-0.213548
-0.196947
-0.181074
-0.600923
-0.589945
-0.57916
-0.56366
-0.542835
-0.517304
-0.488237
-0.457138
-0.425451
-0.394315
-0.364491
-0.3364
-0.310212
-0.285931
-0.263474
-0.242718
-0.223518
-0.205782
-0.189367
-0.173654
-0.596314
-0.585474
-0.574511
-0.558535
-0.537021
-0.510715
-0.480917
-0.449218
-0.417097
-0.385688
-0.355727
-0.327602
-0.301452
-0.277262
-0.254934
-0.234333
-0.215305
-0.197762
-0.181538
-0.165924
-0.590822
-0.580142
-0.569006
-0.552565
-0.530384
-0.503343
-0.472869
-0.440634
-0.408144
-0.376524
-0.34648
-0.318368
-0.292298
-0.268235
-0.246067
-0.225648
-0.206819
-0.189496
-0.173465
-0.157865
-0.584425
-0.573926
-0.562625
-0.545732
-0.522911
-0.49518
-0.464089
-0.431384
-0.398592
-0.366823
-0.336751
-0.308699
-0.282751
-0.258851
-0.236874
-0.216666
-0.198063
-0.180986
-0.165185
-0.149787
-0.577105
-0.566808
-0.555351
-0.53802
-0.514592
-0.48622
-0.454576
-0.421469
-0.388443
-0.356586
-0.326541
-0.298597
-0.272811
-0.24911
-0.227357
-0.207389
-0.189039
-0.17223
-0.156652
-0.141573
-0.568846
-0.558772
-0.547168
-0.52942
-0.50542
-0.476461
-0.444328
-0.410891
-0.377698
-0.345817
-0.315853
-0.288064
-0.262482
-0.239016
-0.217518
-0.197819
-0.179749
-0.16323
-0.147908
-0.133153
-0.559637
-0.549805
-0.538067
-0.519923
-0.495391
-0.465902
-0.43335
-0.399653
-0.366364
-0.334519
-0.304691
-0.277104
-0.251767
-0.228572
-0.207362
-0.18796
-0.170196
-0.153989
-0.138952
-0.124518
-0.549469
-0.539898
-0.528039
-0.509524
-0.484505
-0.454547
-0.421646
-0.387763
-0.354445
-0.322699
-0.293061
-0.265723
-0.24067
-0.217782
-0.196892
-0.177816
-0.160383
-0.144514
-0.129785
-0.115676
-0.538339
-0.529046
-0.51708
-0.498224
-0.472765
-0.442402
-0.409224
-0.375229
-0.341951
-0.310365
-0.280969
-0.253925
-0.229199
-0.206653
-0.186113
-0.167392
-0.150316
-0.134807
-0.120406
-0.106634
-0.526245
-0.517248
-0.505192
-0.486025
-0.460176
-0.429474
-0.396094
-0.362059
-0.32889
-0.297524
-0.268423
-0.24172
-0.217359
-0.19519
-0.175033
-0.156694
-0.140001
-0.124876
-0.110821
-0.0974
-0.513189
-0.504504
-0.492376
-0.472933
-0.446748
-0.415775
-0.382267
-0.348267
-0.315274
-0.284188
-0.255434
-0.229116
-0.205159
-0.183402
-0.163658
-0.14573
-0.129443
-0.114724
-0.101035
-0.0879801
-0.499177
-0.490822
-0.478639
-0.458958
-0.432493
-0.401318
-0.367758
-0.333866
-0.301115
-0.270368
-0.242011
-0.216123
-0.192608
-0.171297
-0.151997
-0.134506
-0.118652
-0.104361
-0.0910542
-0.0783816
-0.48422
-0.476209
-0.463993
-0.444111
-0.417425
-0.386119
-0.352582
-0.318872
-0.286429
-0.256076
-0.228167
-0.202751
-0.179717
-0.158886
-0.140059
-0.123033
-0.107635
-0.093793
-0.0808866
-0.0686122
-0.468331
-0.460678
-0.448451
-0.428409
-0.401561
-0.370197
-0.336759
-0.3033
-0.271229
-0.241329
-0.213915
-0.189013
-0.166497
-0.146179
-0.127855
-0.111319
-0.0964011
-0.0830296
-0.0705406
-0.0586801
-0.451526
-0.444244
-0.432029
-0.41187
-0.384923
-0.353573
-0.320309
-0.28717
-0.255535
-0.22614
-0.199269
-0.174922
-0.15296
-0.133187
-0.115396
-0.0993763
-0.0849616
-0.0720806
-0.0600258
-0.0485943
-0.433824
-0.426928
-0.414748
-0.394515
-0.367531
-0.336271
-0.303255
-0.2705
-0.239363
-0.210528
-0.184244
-0.160493
-0.13912
-0.119924
-0.102693
-0.0872157
-0.0733274
-0.0609569
-0.0493528
-0.0383651
-0.41525
-0.408751
-0.396631
-0.376369
-0.349412
-0.318315
-0.285612
-0.253319
-0.222734
-0.194509
-0.168858
-0.145741
-0.124992
-0.106403
-0.0897603
-0.07485
-0.0615107
-0.0496702
-0.0385334
-0.0280041
-0.395828
-0.389739
-0.377704
-0.357463
-0.330608
-0.299715
-0.267413
-0.235643
-0.20567
-0.178104
-0.153128
-0.130682
-0.11059
-0.0926385
-0.0766109
-0.0622923
-0.0495245
-0.0382333
-0.0275804
-0.0175245
-0.375588
-0.369919
-0.357996
-0.337831
-0.311165
-0.280482
-0.248677
-0.2175
-0.188193
-0.161334
-0.137074
-0.115334
-0.0959309
-0.0786455
-0.0632594
-0.0495565
-0.0373825
-0.0266599
-0.0165083
-0.00694225
-0.354561
-0.349324
-0.33754
-0.317495
-0.291001
-0.260753
-0.229444
-0.198914
-0.170327
-0.144219
-0.120713
-0.0997152
-0.0810312
-0.0644397
-0.0497206
-0.0366572
-0.0250992
-0.0149646
-0.00533255
0.00372453
-0.332779
-0.327989
-0.316371
-0.296489
-0.270251
-0.240471
-0.209741
-0.179915
-0.152097
-0.126782
-0.104068
-0.083844
-0.0659085
-0.0500375
-0.0360098
-0.0236091
-0.0126895
-0.00316241
0.00592977
0.0144546
-0.310278
-0.30595
-0.294527
-0.274835
-0.248949
-0.219678
-0.189598
-0.160529
-0.133529
-0.109048
-0.0871603
-0.0677403
-0.0505808
-0.0354555
-0.0221426
-0.0104273
-0.000168648
0.00873114
0.0172603
0.0252214
-0.287095
-0.283247
-0.272029
-0.252603
-0.227117
-0.198415
-0.169045
-0.140788
-0.114648
-0.0910399
-0.0700114
-0.0514245
-0.0350668
-0.0207107
-0.00813491
0.00287312
0.0124486
0.0207008
0.0286386
0.0359895
-0.263265
-0.259926
-0.248933
-0.229822
-0.204793
-0.176719
-0.148118
-0.120721
-0.095484
-0.0727835
-0.0526447
-0.0349177
-0.0193857
-0.00582071
0.00599773
0.0162778
0.0251481
0.0327322
0.0400431
0.0467167
-0.238821
-0.236044
-0.225287
-0.206532
-0.182018
-0.154629
-0.12685
-0.10036
-0.0760647
-0.054305
-0.0350841
-0.0182417
-0.00355719
0.00919702
0.0202397
0.0297727
0.0379167
0.0448136
0.0514576
0.0573691
-0.213842
-0.211626
-0.201137
-0.182777
-0.158833
-0.132184
-0.105276
-0.0797366
-0.0564199
-0.0356314
-0.0173543
-0.00141868
0.0123986
0.0243246
0.0345755
0.0433442
0.0507422
0.0569379
0.0628786
0.0679182
-0.188431
-0.186671
-0.176524
-0.158603
-0.135279
-0.109422
-0.0834345
-0.0588851
-0.03658
-0.0167904
0.000519454
0.0155282
0.0284609
0.0395438
0.0489899
0.056979
0.063615
0.0691073
0.0743026
0.0782603
-0.162569
-0.161274
-0.151495
-0.134055
-0.111402
-0.0863855
-0.0613615
-0.0378393
-0.0165762
0.00218943
0.0185111
0.0325751
0.0446083
0.0548361
0.0634672
0.0706658
0.0765358
0.0813426
0.0856929
0.0881176
-0.136301
-0.13549
-0.1261
-0.109182
-0.0872446
-0.0631154
-0.0390953
-0.016634
0.00355994
0.0212791
0.036594
0.0496977
0.0608187
0.0701819
0.0779908
0.0843956
0.0895203
0.0936867
0.0970071
0.0972428
-0.109685
-0.109371
-0.100388
-0.0840295
-0.0628535
-0.0396539
-0.0166746
0.00469568
0.0237959
0.0404488
0.0547406
0.0668707
0.077069
0.0855598
0.092542
0.0981588
0.102581
0.106153
0.108283
0.106321
-0.0827767
-0.0829664
-0.074411
-0.0586486
-0.0382748
-0.0160437
0.00586142
0.0261137
0.0440989
0.0596684
0.0729231
0.0840682
0.0933349
0.100947
0.107099
0.111937
0.115687
0.11863
0.119463
0.118155
-0.0556286
-0.0563284
-0.0482204
-0.0330882
-0.0135548
0.00767208
0.0284732
0.0475838
0.0644354
0.078907
0.091113
0.101264
0.109591
0.116319
0.121638
0.125703
0.128767
0.131027
0.131116
0.130556
-0.028297
-0.0295108
-0.0218691
-0.00739884
0.0112592
0.0314499
0.0511208
0.0690694
0.0847719
0.0981335
0.109281
0.11843
0.125813
0.131651
0.136136
0.139428
0.141787
0.143344
0.142841
0.142364
-0.000837916
-0.00256821
0.0045895
0.0183686
0.0361197
0.055246
0.073764
0.0905336
0.105074
0.117317
0.127399
0.135541
0.141974
0.14692
0.150568
0.153084
0.154727
0.155588
0.154539
0.153843
0.0266924
0.0244446
0.0311018
0.0441632
0.0609792
0.0790164
0.0963625
0.111939
0.125309
0.136425
0.145437
0.152568
0.158049
0.162101
0.164911
0.166648
0.167566
0.167734
0.166135
0.165077
0.0542375
0.0514723
0.0576139
0.0699338
0.0857899
0.102717
0.118876
0.13325
0.145441
0.155427
0.163366
0.169484
0.174012
0.177169
0.17914
0.180097
0.180285
0.17976
0.177593
0.176091
0.0817409
0.0784594
0.0840719
0.0956293
0.110504
0.126304
0.141264
0.154427
0.165437
0.174291
0.181157
0.186262
0.189839
0.192101
0.193234
0.193408
0.192863
0.191645
0.188894
0.186899
0.109146
0.10535
0.110422
0.121199
0.135075
0.149734
0.163487
0.175436
0.185263
0.192986
0.198781
0.202876
0.205502
0.206872
0.20717
0.206563
0.205283
0.203369
0.200024
0.197506
0.136396
0.13209
0.13661
0.146591
0.159454
0.172963
0.185504
0.196238
0.204885
0.211481
0.216208
0.219298
0.220979
0.221461
0.220926
0.21954
0.217527
0.214918
0.210973
0.207912
0.163436
0.158622
0.162584
0.171756
0.183596
0.195949
0.207276
0.216798
0.224269
0.229744
0.233411
0.235502
0.236244
0.235844
0.234481
0.23232
0.229578
0.226276
0.221729
0.218114
0.190208
0.184893
0.188289
0.196644
0.207453
0.218647
0.228763
0.23708
0.243383
0.247745
0.25036
0.251461
0.251272
0.249999
0.247816
0.244886
0.241419
0.237429
0.232283
0.228105
0.216659
0.210848
0.213675
0.221205
0.23098
0.241017
0.249928
0.257047
0.262193
0.265454
0.267029
0.267151
0.266042
0.263904
0.260909
0.257218
0.253033
0.248363
0.242622
0.237877
0.242734
0.236433
0.238688
0.24539
0.254132
0.263017
0.270732
0.276665
0.280668
0.282841
0.283389
0.282544
0.280528
0.277537
0.273742
0.2693
0.264405
0.259063
0.252736
0.247423
0.268378
0.261596
0.263278
0.269153
0.276864
0.284605
0.291137
0.2959
0.298775
0.299876
0.299414
0.297618
0.294707
0.290877
0.286295
0.281113
0.27552
0.269516
0.262612
0.256732
0.293538
0.286284
0.287396
0.292445
0.299133
0.305742
0.311106
0.314717
0.316483
0.316531
0.315076
0.312347
0.308559
0.303905
0.298548
0.29264
0.286361
0.279709
0.272239
0.265796
0.318164
0.310447
0.310991
0.31522
0.320896
0.326388
0.330604
0.333083
0.333762
0.332779
0.330351
0.326706
0.322059
0.316598
0.310484
0.303865
0.296914
0.289628
0.281604
0.274603
0.342204
0.334034
0.334017
0.337435
0.342111
0.346506
0.349595
0.350966
0.350581
0.34859
0.345212
0.340674
0.335188
0.328939
0.322085
0.314771
0.307163
0.299259
0.290696
0.283143
0.365608
0.356998
0.356426
0.359044
0.362738
0.366057
0.368045
0.368334
0.366912
0.363938
0.359634
0.354226
0.347923
0.340906
0.333332
0.325342
0.317095
0.308589
0.299502
0.291407
0.388328
0.37929
0.378173
0.380005
0.382738
0.385006
0.38592
0.385157
0.382727
0.378798
0.373595
0.367342
0.360244
0.352483
0.344209
0.335562
0.326694
0.317605
0.30801
0.299383
0.410317
0.400864
0.399214
0.400277
0.402071
0.403317
0.403188
0.401405
0.397997
0.393144
0.387069
0.379998
0.372132
0.363649
0.354699
0.345416
0.335948
0.326295
0.316208
0.307063
0.431531
0.421677
0.419506
0.419819
0.420702
0.420956
0.419818
0.417048
0.412697
0.406951
0.400036
0.392175
0.383568
0.374389
0.364785
0.354889
0.344841
0.334645
0.324086
0.314435
0.451925
0.441684
0.439008
0.438594
0.438594
0.43789
0.43578
0.43206
0.426801
0.420195
0.412472
0.403852
0.394532
0.384683
0.374452
0.363966
0.353361
0.342645
0.331631
0.32149
0.471456
0.460846
0.45768
0.456565
0.455714
0.454089
0.451044
0.446413
0.440283
0.432855
0.424357
0.415009
0.405006
0.394517
0.383684
0.372634
0.361496
0.350281
0.338832
0.328219
0.490086
0.479122
0.475486
0.473695
0.472028
0.469521
0.465584
0.460082
0.453121
0.444908
0.435671
0.425629
0.414975
0.403875
0.392468
0.38088
0.369233
0.357543
0.34568
0.334613
0.507775
0.496475
0.492388
0.489952
0.487506
0.484158
0.479371
0.473042
0.465292
0.456333
0.446395
0.435694
0.424421
0.41274
0.400789
0.38869
0.376559
0.364419
0.352165
0.340662
0.524487
0.512868
0.508353
0.505303
0.502117
0.497974
0.492383
0.485271
0.476775
0.467111
0.45651
0.445186
0.433329
0.4211
0.408634
0.396052
0.383465
0.3709
0.358275
0.346359
0.540188
0.528269
0.523348
0.519717
0.515835
0.510941
0.504593
0.496747
0.487549
0.477223
0.465998
0.45409
0.441684
0.428939
0.415991
0.402954
0.389939
0.376975
0.364003
0.351696
0.554844
0.542645
0.537343
0.533168
0.528631
0.523036
0.515982
0.507448
0.497595
0.486651
0.474845
0.462391
0.449472
0.436247
0.422847
0.409387
0.395972
0.382636
0.369339
0.356665
0.568426
0.555966
0.55031
0.545627
0.540483
0.534237
0.526526
0.517355
0.506896
0.495379
0.483034
0.470074
0.45668
0.443009
0.429192
0.415339
0.401553
0.387873
0.374276
0.36126
0.580905
0.568205
0.562221
0.55707
0.551367
0.544521
0.536208
0.526452
0.515435
0.503391
0.490552
0.477127
0.463297
0.449217
0.435015
0.420802
0.406675
0.392678
0.378805
0.365473
0.592255