/*--------------------------------*- C++ -*----------------------------------*\
  =========                 |
  \\      /  F ield         | OpenFOAM: The Open Source CFD Toolbox
   \\    /   O peration     | Website:  https://openfoam.org
    \\  /    A nd           | Version:  7
     \\/     M anipulation  |
\*---------------------------------------------------------------------------*/
FoamFile
{
    version     2.0;
    format      ascii;
    class       surfaceScalarField;
    location    "140";
    object      phi;
}
// * * * * * * * * * * * * * * * * * * * * * * * * * * * * * * * * * * * * * //

dimensions      [0 3 -1 0 0 0 0];

internalField   nonuniform List<scalar> 
8899
(
-2.00118e-05
-0.000221378
0.000229807
-3.04311e-05
-0.000249127
0.000259546
-4.26761e-05
-0.000264846
0.000277091
-5.66018e-05
-0.00027061
0.000284536
-7.20889e-05
-0.000268465
0.000283952
-8.90462e-05
-0.000260266
0.000277223
-0.000107411
-0.000247542
0.000265907
-0.000127148
-0.000231392
0.000251129
-0.000148249
-0.00021243
0.000233531
-0.00017073
-0.000190776
0.000213258
-0.000194642
-0.000166083
0.000189995
-0.000220066
-0.000137589
0.000163013
-0.000247122
-0.000104166
0.000131221
-0.000275965
-6.43554e-05
9.31988e-05
-0.000306783
-1.63987e-05
4.72162e-05
-0.000339763
4.17386e-05
-8.75838e-06
0.000112603
-7.72583e-05
-0.000375108
-2.0785e-05
-0.000212684
-3.14697e-05
-0.000238442
-4.39634e-05
-0.000252352
-5.81137e-05
-0.00025646
-7.38006e-05
-0.000252778
-9.09376e-05
-0.000243129
-0.00010947
-0.00022901
-0.000129371
-0.000211491
-0.000150641
-0.000191161
-0.000173304
-0.000168113
-0.000197414
-0.000141973
-0.000223053
-0.000111951
-0.000250334
-7.68846e-05
-0.000279401
-3.5288e-05
-0.000310421
1.46213e-05
-0.000343553
7.48706e-05
0.000148
-0.00037895
-2.14128e-05
-0.000203781
-3.22924e-05
-0.000227563
-4.49521e-05
-0.000239693
-5.92307e-05
-0.000242181
-7.5006e-05
-0.000237003
-9.21931e-05
-0.000225942
-0.000110741
-0.000210462
-0.000130629
-0.000191603
-0.00015186
-0.000169929
-0.000174462
-0.000145511
-0.000198483
-0.000117952
-0.000223998
-8.6435e-05
-0.000251109
-4.97739e-05
-0.00027994
-6.45755e-06
-0.000310629
4.53108e-05
-0.000343302
0.000107543
0.000182753
-0.000378056
-2.19012e-05
-0.000194725
-3.29088e-05
-0.000216555
-4.56556e-05
-0.000226946
-5.9971e-05
-0.000227866
-7.57279e-05
-0.000221246
-9.28404e-05
-0.000208829
-0.000111258
-0.000192044
-0.000130961
-0.000171901
-0.000151951
-0.00014894
-0.00017425
-0.000123212
-0.000197901
-9.4302e-05
-0.000222962
-6.13736e-05
-0.000249515
-2.32211e-05
-0.000277657
2.16844e-05
-0.000307494
7.51484e-05
-0.000339112
0.000139161
0.00021619
-0.000372548
-2.22583e-05
-0.000185569
-3.33311e-05
-0.000205482
-4.60915e-05
-0.000214186
-6.03579e-05
-0.000213599
-7.59961e-05
-0.000205607
-9.29161e-05
-0.000191909
-0.000111065
-0.000173895
-0.000130417
-0.000152548
-0.000150971
-0.000128386
-0.000172738
-0.000101444
-0.000195746
-7.12945e-05
-0.000220033
-3.70863e-05
-0.000245654
2.39959e-06
-0.000272672
4.87031e-05
-0.000301157
0.000103633
-0.000331149
0.000169153
0.000247665
-0.000362624
-2.24943e-05
-0.00017636
-3.35749e-05
-0.000194402
-4.62815e-05
-0.000201479
-6.04199e-05
-0.000199461
-7.58468e-05
-0.00019018
-9.24648e-05
-0.000175291
-0.000110214
-0.000156146
-0.000129062
-0.0001337
-0.000148996
-0.000108452
-0.000170013
-8.0427e-05
-0.00019212
-4.91875e-05
-0.00021533
-1.38762e-05
-0.000239664
2.67337e-05
-0.000265149
7.41873e-05
-0.000291807
0.000130292
-0.000319637
0.000196982
0.000276578
-0.000348549
-2.2621e-05
-0.000167142
-3.3658e-05
-0.000183365
-4.62504e-05
-0.000188887
-6.01901e-05
-0.000185521
-7.53221e-05
-0.000175048
-9.15386e-05
-0.000159075
-0.00010877
-0.000138915
-0.000126971
-0.000115498
-0.000146115
-8.93084e-05
-0.00016618
-6.0362e-05
-0.000187147
-2.82204e-05
-0.000208998
7.97503e-06
-0.000231717
4.94519e-05
-0.000255285
9.77553e-05
-0.00027968
0.000154688
-0.000304853
0.000222155
0.000302379
-0.000330655
-2.26518e-05
-3.36003e-05
-0.000172416
-4.60262e-05
-0.000176461
-5.97054e-05
-0.000171842
-7.4469e-05
-0.000160285
-9.01962e-05
-0.000143348
-0.000106803
-0.000122308
-0.000124231
-9.80709e-05
-0.000142432
-7.11073e-05
-0.000161361
-4.14322e-05
-0.000180971
-8.61042e-06
-0.000201207
2.8211e-05
-0.00022201
7.02547e-05
-0.000243315
0.000119061
-0.000265053
0.000176425
-0.000287125
0.000244226
0.000324582
-0.000309328
-3.34239e-05
-0.000161594
-4.5639e-05
-0.000164246
-5.90056e-05
-0.000158476
-7.33386e-05
-0.000145952
-8.85012e-05
-0.000128185
-0.000104393
-0.000106416
-0.000120936
-8.15281e-05
-0.00013806
-5.39832e-05
-0.000155693
-2.37988e-05
-0.000173754
9.45022e-06
-0.000192148
4.66047e-05
-0.00021077
8.88766e-05
-0.000229506
0.000137797
-0.000248236
0.000195156
-0.000266819
0.000262809
0.000342767
-0.000285004
-3.31518e-05
-0.000150927
-4.51209e-05
-0.000152276
-5.81329e-05
-0.000145464
-7.19847e-05
-0.0001321
-8.65213e-05
-0.000113648
-0.000101623
-9.13152e-05
-0.000117188
-6.59625e-05
-0.000133123
-3.80486e-05
-0.000149323
-7.5983e-06
-0.000165671
2.57978e-05
-0.000182028
6.29621e-05
-0.000198242
0.00010509
-0.000214147
0.000153702
-0.000229573
0.000210582
-0.000244339
0.000277576
0.000356584
-0.000258157
-3.28076e-05
-0.000140439
-4.45042e-05
-0.00014058
-5.71301e-05
-0.000132838
-7.04626e-05
-0.000118767
-8.43262e-05
-9.97849e-05
-9.85784e-05
-7.7063e-05
-0.000113094
-5.14467e-05
-0.000127749
-2.33934e-05
-0.000142407
7.05942e-06
-0.000156909
4.02994e-05
-0.000171071
7.71243e-05
-0.000184689
0.000118709
-0.000197547
0.000166559
-0.000209426
0.000222461
-0.000220111
0.000288262
0.00036576
-0.000229287
-3.24143e-05
-0.000130144
-4.38209e-05
-0.000129173
-5.60399e-05
-0.000120619
-6.88276e-05
-0.00010598
-8.1986e-05
-8.66266e-05
-9.53482e-05
-6.37007e-05
-0.000108762
-3.80329e-05
-0.000122072
-1.00833e-05
-0.000135105
2.00925e-05
-0.00014766
5.28546e-05
-0.000159506
8.897e-05
-0.000170386
0.000129588
-0.000180029
0.000176203
-0.000188173
0.000230604
-0.000194577
0.000294666
0.000370093
-0.000198911
-3.19941e-05
-0.00012005
-4.3102e-05
-0.000118065
-5.49037e-05
-0.000108817
-6.71333e-05
-9.37501e-05
-7.9569e-05
-7.41909e-05
-9.2018e-05
-5.12517e-05
-0.000104299
-2.5752e-05
-0.000116223
1.84087e-06
-0.000127579
3.14484e-05
-0.000138121
6.33968e-05
-0.000147568
9.84167e-05
-0.000155608
0.000137629
-0.00016192
0.000182514
-0.000166197
0.000234882
-0.000168185
0.000296655
0.000369457
-0.000167548
-3.15673e-05
-0.000110159
-4.2376e-05
-0.000107257
-5.37598e-05
-9.74332e-05
-6.543e-05
-8.20799e-05
-7.714e-05
-6.24809e-05
-8.86697e-05
-3.9722e-05
-9.98072e-05
-1.46145e-05
-0.000110329
1.2363e-05
-0.000119984
4.11036e-05
-0.000128481
7.18936e-05
-0.000135486
0.000105421
-0.000140632
0.000142775
-0.000143544
0.000185426
-0.000143878
0.000235216
-0.000141376
0.000294152
0.000363792
-0.000135712
-3.11523e-05
-0.000100464
-4.16684e-05
-9.67404e-05
-5.26427e-05
-8.64589e-05
-6.37631e-05
-7.09596e-05
-7.47575e-05
-5.14865e-05
-8.53781e-05
-2.91014e-05
-9.53816e-05
-4.61095e-06
-0.000104509
2.14908e-05
-0.000112469
4.90633e-05
-0.000118922
7.83465e-05
-0.00012348
0.00010998
-0.00012572
0.000145015
-0.000125213
0.000184918
-0.000121579
0.000231583
-0.000114571
0.000287145
0.000353115
-0.000103894
-3.07645e-05
-4.10009e-05
-8.6504e-05
-5.15816e-05
-7.58782e-05
-6.21711e-05
-6.03701e-05
-7.2472e-05
-4.11856e-05
-8.22081e-05
-1.93652e-05
-9.11052e-05
4.28609e-06
-9.88687e-05
2.92544e-05
-0.000105165
5.53597e-05
-0.000109607
8.27886e-05
-0.000111752
0.000112125
-0.000111116
0.000144379
-0.000107214
0.000181016
-9.96361e-05
0.000224005
-8.81611e-05
0.00027567
0.000337518
-7.2564e-05
-4.03903e-05
-7.65295e-05
-5.05994e-05
-6.56691e-05
-6.06845e-05
-5.0285e-05
-7.03232e-05
-3.15469e-05
-7.92119e-05
-1.04765e-05
-8.70453e-05
1.21194e-05
-9.34937e-05
3.57028e-05
-9.81824e-05
6.00484e-05
-0.000100676
8.52821e-05
-0.000100474
0.000111923
-9.70294e-05
0.000140934
-8.97982e-05
0.000173785
-7.83361e-05
0.000212543
-6.24813e-05
0.000259815
0.00031723
-4.21938e-05
-3.98474e-05
-6.67965e-05
-4.97109e-05
-5.58057e-05
-5.93234e-05
-4.06724e-05
-6.83384e-05
-2.25319e-05
-7.64256e-05
-2.38934e-06
-8.32498e-05
1.89436e-05
-8.84474e-05
4.09005e-05
-9.16036e-05
6.32046e-05
-9.22346e-05
8.5913e-05
-8.97816e-05
0.00010947
-8.36289e-05
0.000134781
-7.31634e-05
0.000163319
-5.78857e-05
0.000197265
-3.77227e-05
0.000239652
0.000293052
-1.35451e-05
-3.93772e-05
-5.72829e-05
-4.89224e-05
-4.62605e-05
-5.80966e-05
-3.14982e-05
-6.65299e-05
-1.40987e-05
-7.38666e-05
4.94739e-06
-7.97434e-05
2.48204e-05
-8.37644e-05
4.49215e-05
-8.54765e-05
6.49167e-05
-8.43486e-05
8.47852e-05
-7.97627e-05
0.000104884
-7.10293e-05
0.000126048
-5.74528e-05
0.000149743
-3.84383e-05
0.00017825
-1.36358e-05
0.000214849
0.000263995
1.54214e-05
-3.89768e-05
-4.82307e-05
-3.70065e-05
-5.70004e-05
-2.27285e-05
-6.48938e-05
-6.2052e-06
-7.15318e-05
1.15853e-05
-7.65245e-05
2.98131e-05
-7.94462e-05
4.78431e-05
-7.98079e-05
6.52784e-05
-7.70336e-05
8.20109e-05
-7.04466e-05
9.82967e-05
-5.928e-05
0.000114881
-4.27405e-05
0.000133203
-2.01554e-05
0.000155665
8.75656e-06
0.000185937
0.000229675
4.30769e-05
-4.76224e-05
-2.80205e-05
-5.60174e-05
-1.43336e-05
-6.34086e-05
1.18607e-06
-6.93948e-05
1.75715e-05
-7.35619e-05
3.39803e-05
-7.54568e-05
4.9738e-05
-7.45579e-05
6.43795e-05
-7.02473e-05
7.77003e-05
-6.17915e-05
8.98409e-05
-4.83452e-05
0.000101435
-2.90116e-05
0.00011387
-3.03291e-06
0.000129687
2.99066e-05
0.000152998
0.000190476
6.91054e-05
-4.70739e-05
-1.92852e-05
-5.51165e-05
-6.29091e-06
-6.20344e-05
8.10399e-06
-6.74055e-05
2.29426e-05
-7.07936e-05
3.73684e-05
-7.17207e-05
5.06651e-05
-6.96359e-05
6.22946e-05
-6.38832e-05
7.19477e-05
-5.36759e-05
7.96336e-05
-3.80904e-05
8.58496e-05
-1.61152e-05
9.18946e-05
1.31666e-05
0.000100405
5.01078e-05
0.000116057
0.000146618
9.39659e-05
-4.65513e-05
-1.07924e-05
-5.42531e-05
1.41081e-06
-6.07132e-05
1.45641e-05
-6.54898e-05
2.77192e-05
-6.81261e-05
4.00046e-05
-6.81212e-05
5.06603e-05
-6.4898e-05
5.90714e-05
-5.7767e-05
6.48167e-05
-4.58928e-05
6.77593e-05
-2.82762e-05
6.8233e-05
-3.78824e-06
6.74066e-05
2.86451e-05
6.79715e-05
6.95479e-05
7.51537e-05
9.80788e-05
0.000118087
-4.60115e-05
-5.33693e-05
8.76864e-06
-5.93694e-05
2.05642e-05
-6.35504e-05
3.19003e-05
-6.54351e-05
4.18893e-05
-6.45013e-05
4.97265e-05
-6.0148e-05
5.47181e-05
-5.16562e-05
5.63249e-05
-3.81477e-05
5.42508e-05
-1.85543e-05
4.86396e-05
8.36874e-06
4.04836e-05
4.38778e-05
3.24624e-05
8.87124e-05
3.03192e-05
4.47333e-05
0.000142058
-5.23959e-05
1.57619e-05
-5.79119e-05
2.60802e-05
-6.1469e-05
3.54573e-05
-6.25688e-05
4.29891e-05
-6.06675e-05
4.78252e-05
-5.51412e-05
4.91919e-05
-4.52447e-05
4.64284e-05
-3.00635e-05
3.90696e-05
-8.46861e-06
2.70448e-05
2.08923e-05
1.11226e-05
5.94679e-05
-6.11319e-06
0.000108263
-1.84755e-05
-1.36269e-05
0.000166623
-5.1254e-05
2.23497e-05
-5.62366e-05
3.10628e-05
-5.91098e-05
3.83306e-05
-5.93518e-05
4.32311e-05
-5.63951e-05
4.48684e-05
-4.95921e-05
4.23889e-05
-3.81728e-05
3.5009e-05
-2.11926e-05
2.20894e-05
2.52545e-06
3.32674e-06
3.44304e-05
-2.07823e-05
7.61573e-05
-4.78401e-05
0.000129013
-7.1331e-05
-7.72762e-05
0.000192662
-4.98578e-05
-5.42298e-05
3.54347e-05
-5.63243e-05
4.04251e-05
-5.5592e-05
4.24988e-05
-5.14374e-05
4.07138e-05
-4.31857e-05
3.41372e-05
-3.00419e-05
2.18651e-05
-1.10358e-05
3.08337e-06
1.5044e-05
-2.27531e-05
4.97199e-05
-5.54582e-05
9.47947e-05
-9.29148e-05
0.000151894
-0.00012843
-0.000146534
0.000221151
-5.17722e-05
3.90896e-05
-5.29568e-05
4.16097e-05
-5.10879e-05
4.063e-05
-4.55358e-05
3.51617e-05
-3.55928e-05
2.41943e-05
-2.04351e-05
6.70741e-06
9.2977e-07
-1.82815e-05
2.97342e-05
-5.15575e-05
6.75426e-05
-9.32666e-05
0.000116288
-0.00014166
0.000177899
-0.000190041
-0.000221738
0.000253103
-4.87443e-05
4.18917e-05
-4.88509e-05
4.17163e-05
-4.5638e-05
3.74171e-05
-3.84328e-05
2.79565e-05
-2.64865e-05
1.2248e-05
-8.94063e-06
-1.08385e-05
1.52194e-05
-4.24416e-05
4.72333e-05
-8.35713e-05
8.86718e-05
-0.000134705
0.000141539
-0.000194527
0.000208019
-0.000256522
-0.000303209
0.000289491
-4.50304e-05
-4.38566e-05
4.05425e-05
-3.90498e-05
3.26104e-05
-2.98846e-05
1.87912e-05
-1.55606e-05
-2.07598e-06
4.82334e-06
-3.12224e-05
3.23061e-05
-6.99244e-05
6.81228e-05
-0.000119388
0.000113813
-0.000180395
0.000171374
-0.000252089
0.000243163
-0.00032831
-0.000391216
0.00033117
-3.78366e-05
3.78549e-05
-3.11494e-05
2.59232e-05
-1.96735e-05
7.31533e-06
-2.54669e-06
-1.92028e-05
2.11847e-05
-5.49538e-05
5.25876e-05
-0.000101327
9.28834e-05
-0.000159684
0.000143542
-0.000231053
0.000206469
-0.000315016
0.000284074
-0.000405915
-0.00048593
0.000378787
-3.06729e-05
-2.17893e-05
1.70396e-05
-7.61976e-06
-6.85421e-06
1.27708e-05
-3.95934e-05
4.03973e-05
-8.25803e-05
7.63595e-05
-0.00013729
0.000121858
-0.000205182
0.000178259
-0.000287455
0.000247283
-0.00038404
0.000331264
-0.000489896
-0.000587382
0.000432717
-1.08554e-05
5.62377e-06
6.41074e-06
-2.41203e-05
3.05436e-05
-6.37263e-05
6.26268e-05
-0.000114663
0.000103797
-0.000178459
0.000155227
-0.000256612
0.000218154
-0.000350382
0.000294017
-0.000459903
0.000384959
-0.000580838
-0.000695428
0.000493005
1.72882e-06
-8.67017e-06
2.25005e-05
-4.48919e-05
5.08534e-05
-9.20792e-05
8.79437e-05
-0.000151754
0.000134945
-0.000225461
0.000193
-0.000314667
0.000263193
-0.000420575
0.0003466
-0.000543311
0.000445076
-0.000679313
-0.000809708
0.000559356
1.59998e-05
4.06782e-05
-6.95704e-05
7.37097e-05
-0.000125111
0.000116323
-0.000194367
0.000169725
-0.000278863
0.00023502
-0.000379963
0.00031313
-0.000498684
0.000404702
-0.000634883
0.000511244
-0.000785855
-0.000929606
0.000631142
6.09202e-05
-9.85363e-05
9.90532e-05
-0.000163244
0.000147647
-0.000242961
0.000207938
-0.000339153
0.000280982
-0.000453007
0.000367528
-0.00058523
0.000467768
-0.000735124
0.000582837
-0.000900924
-0.00105422
0.000707451
8.31538e-05
0.000126761
-0.000206851
0.000181722
-0.000297922
0.000249285
-0.000406716
0.000330453
-0.000534176
0.000425792
-0.000680569
0.000535057
-0.000844388
0.000658965
-0.00102483
-0.00118248
0.000787223
0.000156656
-0.000256243
0.000218278
-0.000359544
0.000293378
-0.000481816
0.000382899
-0.000623697
0.000487237
-0.000784908
0.000605781
-0.000962931
0.000738457
-0.00115751
-0.00131355
0.000869529
0.000188513
0.00025699
-0.000428021
0.000339749
-0.000564574
0.000437678
-0.000721626
0.000551107
-0.000898337
0.000679381
-0.00109121
0.000820498
-0.00129862
-0.00144669
0.000953635
0.000297481
-0.000503428
0.00038785
-0.000654943
0.000493999
-0.000827775
0.000616325
-0.00102066
0.000754968
-0.00122985
0.000906837
-0.00145049
-0.00157738
0.00103753
0.000339344
0.000437084
-0.000752683
0.000550944
-0.000941634
0.000681243
-0.00115096
0.000828606
-0.00137721
0.000994869
-0.00161676
-0.0018125
0.00122998
0.00048685
0.000607615
-0.0010624
0.000744433
-0.00128778
0.000897735
-0.00153051
0.00106789
-0.00178691
-0.00202178
0.00127717
0.000663278
-0.00118909
0.000804984
-0.00142949
0.000961159
-0.00168669
0.00113015
-0.0019559
-0.00221395
0.00132232
0.000717324
0.000862353
-0.00157452
0.00101925
-0.00184358
0.00118514
-0.00212179
-0.00239261
0.00136379
0.000916085
0.00107201
-0.00199951
0.00123336
-0.00228313
-0.00255969
0.00140044
0.00111925
-0.00215301
0.00127491
-0.0024388
-0.00271618
0.00143141
0.00116075
0.00130982
-0.00258787
-0.00286252
0.00145616
0.00133808
-0.00299891
0.00147447
0.00148634
0.00368414
0.0015137
0.00143154
0.00331767
0.00358966
0.00152602
0.00131506
0.00290111
0.00143067
0.00320206
0.00348617
0.00153416
0.00130066
0.00276762
0.00142469
0.00307803
0.00337298
0.00153788
0.00114111
0.00230273
0.00128106
0.00262766
0.00141334
0.00294576
0.00324929
0.00153703
0.00096438
0.00183836
0.00111068
0.00215643
0.00125627
0.00248207
0.00139636
0.00280567
0.00311395
0.0015317
0.000928118
0.00169619
0.0010762
0.00200835
0.00122635
0.00233192
0.00137344
0.00265858
0.00296518
0.00152222
0.000749202
0.00127276
0.000889633
0.00155576
0.00103808
0.0018599
0.00119137
0.00217864
0.00134406
0.00250588
0.00279961
0.00150963
0.000586934
0.000904494
0.000712037
0.00114766
0.000849537
0.00141826
0.000996843
0.00171259
0.00115132
0.00202416
0.00130698
0.00235023
0.00261128
0.00149531
0.000554863
0.00079862
0.000675018
0.0010275
0.000808493
0.00128478
0.000953194
0.00156789
0.00110674
0.00187062
0.00126136
0.0021956
0.0024757
0.00139694
0.000423794
0.000512881
0.000524045
0.000698369
0.000638677
0.000912872
0.000767206
0.00115625
0.000908011
0.00142708
0.00105858
0.00172006
0.00121372
0.00204046
0.00233254
0.00135688
0.00040027
0.00043199
0.000494755
0.000603884
0.000603469
0.000804159
0.000726354
0.00103337
0.000862338
0.0012911
0.00100911
0.00157328
0.00116415
0.00188543
0.00218535
0.00131134
0.000302735
0.00022315
0.000378461
0.000356265
0.000467169
0.000515176
0.000569741
0.000701586
0.000686499
0.000916612
0.000816934
0.00116067
0.000959138
0.00143107
0.00111206
0.0017325
0.00203561
0.0012618
0.000287565
0.000163395
0.000358321
0.000285509
0.000441349
0.000432149
0.000537713
0.000605222
0.000648042
0.000806282
0.000772326
0.00103638
0.000909141
0.00129426
0.00105824
0.0015834
0.00188478
0.00120907
0.000217872
1.69348e-05
0.000273699
0.000107567
0.000339727
0.00021948
0.000417256
0.00035462
0.000507468
0.00051501
0.000611234
0.000702516
0.000728939
0.000918677
0.000859696
0.0011635
0.00100376
0.00143934
0.00173462
0.00115392
0.00020877
-2.70377e-05
0.000260923
5.54145e-05
0.000322488
0.000157915
0.000394756
0.000282352
0.000478977
0.00043079
0.00057619
0.000605303
0.000687084
0.000807783
0.000811311
0.00103927
0.000949459
0.00130119
0.0015868
0.00109728
0.000159046
-0.000125854
0.000200277
-6.82688e-05
0.000248994
6.69715e-06
0.000306365
0.000100545
0.000373646
0.000215071
0.000452106
0.00035233
0.000542896
0.000514512
0.000646926
0.000703753
0.000764338
0.000921863
0.000895979
0.00116955
0.00144275
0.00104003
0.000153508
-0.000158627
0.000192164
-0.000106924
0.00023766
-3.8799e-05
0.000291094
4.71104e-05
0.000353671
0.000152494
0.000426646
0.000279355
0.000511231
0.000429927
0.000608487
0.000606497
0.000718974
0.000811377
0.000843765
0.00104476
0.0013036
0.000982923
0.000148002
-0.00018948
0.000184213
-0.000143135
0.000226672
-8.12576e-05
0.000276404
-2.62173e-06
0.000334552
9.43458e-05
0.000402338
0.000211569
0.000480993
0.000351272
0.000571676
0.000515814
0.000675279
0.000707773
0.000793087
0.000926951
0.00117017
0.000926515
0.000113375
-0.000246012
0.000142362
-0.000218468
0.000176229
-0.000177002
0.0002158
-0.000120829
0.000262035
-4.88562e-05
0.000316011
4.03696e-05
0.000378901
0.000148679
0.00045193
0.000278244
0.000536313
0.000431431
0.000633197
0.000610889
0.000744059
0.00081609
0.00104304
0.000871182
0.000109299
-0.000269363
0.000136451
-0.000245619
0.000168043
-0.000208593
0.000204845
-0.000157631
0.000247754
-9.17654e-05
0.000297786
-9.66222e-06
0.000356059
9.04059e-05
0.000423771
0.000210532
0.000502171
0.000353031
0.000592587
0.000520473
0.000696656
0.000712021
0.000922571
0.000817129
0.000104835
-0.000291248
0.000130159
-0.000270943
0.000159519
-0.000237954
0.00019364
-0.000191752
0.000233365
-0.00013149
0.000279649
-5.59466e-05
0.000333558
3.64971e-05
0.000396256
0.000147833
0.000469002
0.000280285
0.000553251
0.000436224
0.000650758
0.000614514
0.000808913
0.000764416
7.95314e-05
-0.000316902
9.99178e-05
-0.000311635
0.000123404
-0.000294429
0.000150557
-0.000265107
0.000182061
-0.000223256
0.000218713
-0.000168141
0.000261416
-9.86498e-05
0.000311185
-1.3272e-05
0.000369148
8.98699e-05
0.000436565
0.000212869
0.000514965
0.000357824
0.000606176
0.000523303
0.000702101
0.000712988
7.56619e-05
-0.000333386
9.45067e-05
-0.000330479
0.000116136
-0.000316058
0.00014109
-0.000290062
0.000170022
-0.000252188
0.000203687
-0.000201807
0.000242948
-0.00013791
0.000288771
-5.90956e-05
0.000342252
3.63891e-05
0.000404641
0.00015048
0.000477506
0.000284959
0.000562691
0.000438119
0.000602079
0.000662712
7.13263e-05
-0.000348562
8.85832e-05
-0.000347736
0.000108328
-0.000335804
0.000131083
-0.000312816
0.000157472
-0.000278577
0.000188221
-0.000232556
0.000224153
-0.000173841
0.000266197
-0.00010114
0.000315416
-1.28298e-05
0.000373048
9.28476e-05
0.000440663
0.000217343
0.000520068
0.000358714
0.000508746
0.000613401
5.27184e-05
-0.000350357
6.65256e-05
-0.000362369
8.21479e-05
-0.000363359
9.99808e-05
-0.000353636
0.000120529
-0.000333365
0.000144398
-0.000302446
0.000172284
-0.000260442
0.000204981
-0.000206538
0.000243385
-0.000139544
0.00028853
-5.7975e-05
0.000341636
3.97419e-05
0.000404246
0.000154733
0.00047808
0.000284881
0.000421985
0.000564841
4.88923e-05
-0.000361444
6.12744e-05
-0.000374751
7.52186e-05
-0.000377303
9.11116e-05
-0.000369529
0.000109446
-0.000351699
0.000130809
-0.000323809
0.000155877
-0.00028551
0.000185416
-0.000236077
0.000220296
-0.000174424
0.000261523
-9.92019e-05
0.000310291
-9.02622e-06
0.000368093
9.69315e-05
0.000436513
0.00021646
0.000341687
0.000516812
4.46931e-05
-0.000371293
5.55995e-05
-0.000385657
6.78272e-05
-0.000389531
8.17566e-05
-0.000383459
9.78706e-05
-0.000367813
0.000116742
-0.000342681
0.000139029
-0.000307797
0.000165474
-0.000262522
0.000196923
-0.000205873
0.000234355
-0.000136634
0.000278929
-5.36009e-05
0.000332063
4.37977e-05
0.000395176
0.000153347
0.000267765
0.000469097
4.01496e-05
-0.000379851
4.95372e-05
-0.000395045
6.0017e-05
-0.00040001
7.19649e-05
-0.000395407
8.58552e-05
-0.000381703
0.000102248
-0.000359074
0.000121785
-0.000327333
0.000145188
-0.000285925
0.00017328
-0.000233965
0.000207008
-0.000170363
0.00024749
-9.40828e-05
0.000296045
-4.75717e-06
0.000353903
9.54899e-05
0.000200163
0.000421505
2.80756e-05
-0.000360463
3.52972e-05
-0.000387072
4.31316e-05
-0.000402879
5.18404e-05
-0.000408719
6.17957e-05
-0.000405362
7.34639e-05
-0.000393372
8.73934e-05
-0.000373003
0.000104208
-0.000344148
0.000124611
-0.000306328
0.0001494
-0.000258753
0.000179488
-0.000200451
0.000215937
-0.000130532
0.000259952
-4.87726e-05
0.000312562
4.28804e-05
0.00013885
0.000373875
2.43251e-05
-0.000366047
3.01763e-05
-0.000392924
3.64329e-05
-0.000409136
4.33567e-05
-0.000415643
5.1316e-05
-0.000413321
6.07692e-05
-0.000402825
7.22517e-05
-0.000384486
8.63708e-05
-0.000358267
0.000103808
-0.000323765
0.000125331
-0.000280276
0.000151815
-0.000226935
0.000184254
-0.00016297
0.000223728
-8.82465e-05
0.000271061
-4.45281e-06
8.38136e-05
0.000326097
2.03748e-05
-0.000370437
2.48312e-05
-0.00039738
2.94956e-05
-0.0004138
3.463e-05
-0.000420777
4.05983e-05
-0.00041929
4.78496e-05
-0.000410076
5.69052e-05
-0.000393542
6.83532e-05
-0.000369715
8.28506e-05
-0.000338263
0.000101133
-0.000298559
0.000124027
-0.000249828
0.00015245
-0.000191393
0.000187348
-0.000123145
0.000229354
-4.64584e-05
3.50496e-05
0.000278118
1.62618e-05
-0.000373611
1.93095e-05
-0.000400428
2.23776e-05
-0.000416868
2.57279e-05
-0.000424128
2.97187e-05
-0.00042328
3.47879e-05
-0.000415145
4.14405e-05
-0.000400194
5.02426e-05
-0.000378517
6.18227e-05
-0.000349843
7.6878e-05
-0.000313614
9.61797e-05
-0.00026913
0.00012056
-0.000215773
0.00015083
-0.000153415
0.000187446
-8.30744e-05
-7.45469e-06
0.00022995
1.00808e-05
-0.000337546
1.20249e-05
-0.000375555
1.36604e-05
-0.000402063
1.51387e-05
-0.000418347
1.67202e-05
-0.000425709
1.87558e-05
-0.000425316
2.16699e-05
-0.000418059
2.59483e-05
-0.000404472
3.21314e-05
-0.0003847
4.08148e-05
-0.000358526
5.26513e-05
-0.00032545
6.83495e-05
-0.000284828
8.86495e-05
-0.000236073
0.000114228
-0.000178993
0.00014539
-0.000114237
-4.37011e-05
0.000181636
6.99227e-06
-0.000338772
7.70378e-06
-0.000376267
7.93465e-06
-0.000402294
7.84009e-06
-0.000418252
7.67796e-06
-0.000425547
7.78961e-06
-0.000425428
8.58335e-06
-0.000418853
1.05223e-05
-0.000406411
1.41176e-05
-0.000388296
1.99265e-05
-0.000364335
2.8552e-05
-0.000334076
4.06339e-05
-0.00029691
5.6816e-05
-0.000252255
7.76445e-05
-0.000199821
0.000103294
-0.000139886
-7.36511e-05
0.000133244
3.85262e-06
-0.000338945
3.3391e-06
-0.000375753
2.18303e-06
-0.000401138
5.4296e-07
-0.000416612
-1.32763e-06
-0.000423676
-3.09931e-06
-0.000423656
-4.38276e-06
-0.00041757
-4.74087e-06
-0.000406053
-3.69597e-06
-0.00038934
-7.33474e-07
-0.000367297
4.694e-06
-0.000339503
1.31536e-05
-0.00030537
2.51909e-05
-0.000264293
4.12342e-05
-0.000215865
6.13313e-05
-0.000159983
-9.72818e-05
8.4962e-05
6.9242e-07
-0.000338072
-1.02872e-06
-0.000374032
-3.54359e-06
-0.000398623
-6.69162e-06
-0.000413464
-1.02257e-05
-0.000420142
-1.38305e-05
-0.000420051
-1.71387e-05
-0.000414261
-1.97424e-05
-0.00040345
-2.12013e-05
-0.000387882
-2.10476e-05
-0.000367451
-1.87933e-05
-0.000341758
-1.39479e-05
-0.000310215
-6.06351e-06
-0.000272177
5.17372e-06
-0.000227102
1.986e-05
-0.000174669
-0.000114403
3.69811e-05
-2.45821e-06
-0.00033617
-5.35953e-06
-0.000371131
-9.19526e-06
-0.000394788
-1.38039e-05
-0.000408855
-1.89465e-05
-0.000415
-2.43243e-05
-0.000414673
-2.95945e-05
-0.000408991
-3.43818e-05
-0.000398662
-3.82861e-05
-0.000383977
-4.08901e-05
-0.000364847
-4.1768e-05
-0.00034088
-4.05062e-05
-0.000311477
-3.67468e-05
-0.000275937
-3.02713e-05
-0.000233577
-2.12086e-05
-0.000183732
-0.000125391
-1.02207e-05
-5.56905e-06
-0.000333263
-9.61419e-06
-0.000367085
-1.47235e-05
-0.000389678
-2.07358e-05
-0.000402843
-2.74221e-05
-0.000408313
-3.45025e-05
-0.000407593
-4.16612e-05
-0.000401833
-4.85576e-05
-0.000391766
-5.48348e-05
-0.0003777
-6.01279e-05
-0.000359554
-6.40748e-05
-0.000336933
-6.6338e-05
-0.000309214
-6.66459e-05
-0.000275629
-6.48729e-05
-0.00023535
-6.11806e-05
-0.000187424
-0.000130585
-5.59862e-05
-8.61137e-06
-0.000329385
-1.37552e-05
-0.000361942
-2.00817e-05
-0.000383352
-2.74315e-05
-0.000395493
-3.55871e-05
-0.000400158
-4.42892e-05
-0.000398891
-5.3251e-05
-0.000392871
-6.21685e-05
-0.000382848
-7.07296e-05
-0.000369139
-7.86228e-05
-0.000351661
-8.55497e-05
-0.000330006
-9.12463e-05
-0.000303517
-9.5521e-05
-0.000271354
-9.83234e-05
-0.000232548
-9.98451e-05
-0.000185903
-0.000129921
-0.000100509
-1.15579e-05
-0.000324577
-1.77472e-05
-0.000355752
-2.52263e-05
-0.000375873
-3.38384e-05
-0.000386881
-4.33792e-05
-0.000390617
-5.36117e-05
-0.000388658
-6.42789e-05
-0.000382203
-7.51148e-05
-0.000372013
-8.58525e-05
-0.000358401
-9.62341e-05
-0.000341279
-0.000106023
-0.000320217
-0.000115025
-0.000294515
-0.000123121
-0.000263258
-0.000130326
-0.000225343
-0.000136858
-0.000179371
-0.000123639
-0.00014314
-8.69315e-06
-0.000276303
-1.43833e-05
-0.000318887
-2.15574e-05
-0.000348578
-3.01164e-05
-0.000367314
-3.99074e-05
-0.00037709
-5.07403e-05
-0.000379784
-6.24011e-05
-0.000376998
-7.46636e-05
-0.000369941
-8.72998e-05
-0.000359377
-0.000100088
-0.000345613
-0.000112821
-0.000328545
-0.000125323
-0.000307715
-0.000137464
-0.000282375
-0.00014919
-0.000251532
-0.000160569
-0.000213963
-0.000171839
-0.000168101
-0.00011206
-0.000183418
-1.05471e-05
-0.000271406
-1.70648e-05
-0.000312369
-2.51561e-05
-0.000340487
-3.47151e-05
-0.000357755
-4.55939e-05
-0.000366211
-5.76169e-05
-0.000367761
-7.05937e-05
-0.000364021
-8.4329e-05
-0.000356206
-9.86317e-05
-0.000345074
-0.000113324
-0.000330921
-0.000128248
-0.000313621
-0.000143283
-0.00029268
-0.000158356
-0.000267302
-0.000173472
-0.000236416
-0.000188743
-0.000198692
-0.000204417
-0.000152427
-9.55762e-05
-0.000220901
-1.22966e-05
-0.000265837
-1.95816e-05
-0.000305084
-2.85164e-05
-0.000331552
-3.89894e-05
-0.000347282
-5.08578e-05
-0.000354343
-6.39611e-05
-0.000354658
-7.8132e-05
-0.00034985
-9.32052e-05
-0.000341132
-0.000109026
-0.000329253
-0.000125456
-0.000314491
-0.000142385
-0.000296691
-0.000159741
-0.000275324
-0.000177503
-0.000249539
-0.000195724
-0.000218196
-0.00021455
-0.000179866
-0.000234237
-0.00013274
-7.46403e-05
-0.000255173
-1.39286e-05
-0.000259646
-2.19157e-05
-0.000297097
-3.16155e-05
-0.000321852
-4.29109e-05
-0.000335986
-5.56647e-05
-0.000341589
-6.97312e-05
-0.000340591
-8.49655e-05
-0.000334616
-0.000101231
-0.000324867
-0.000118405
-0.000312079
-0.00013639
-0.000296507
-0.000155115
-0.000277966
-0.000174551
-0.000255888
-0.000194722
-0.000229368
-0.00021572
-0.000197199
-0.000237717
-0.000157868
-0.000260971
-0.000109486
-4.97629e-05
-0.000285849
-1.54319e-05
-0.000252889
-2.40519e-05
-0.000288477
-3.44342e-05
-0.00031147
-4.64563e-05
-0.000323964
-5.99864e-05
-0.000328059
-7.48929e-05
-0.000325685
-9.10517e-05
-0.000318457
-0.000108353
-0.000307566
-0.000126705
-0.000293727
-0.000146042
-0.000277169
-0.000166332
-0.000257677
-0.000187581
-0.000234639
-0.000209849
-0.0002071
-0.000233258
-0.00017379
-0.000258001
-0.000133126
-0.000284328
-8.3158e-05
-2.15071e-05
-0.000312584
-1.67973e-05
-0.000245623
-2.59784e-05
-0.000279296
-3.69576e-05
-0.000300491
-4.96075e-05
-0.000311314
-6.3801e-05
-0.000313865
-7.94193e-05
-0.000310067
-9.63576e-05
-0.000301518
-0.00011453
-0.000289394
-0.000133871
-0.000274385
-0.000154345
-0.000256695
-0.000175949
-0.000236073
-0.000198721
-0.000211867
-0.000222746
-0.000183074
-0.000248169
-0.000148367
-0.000275191
-0.000106103
-0.000304058
-5.42915e-05
9.5179e-06
-0.000335083
-1.80182e-05
-0.000237909
-2.76865e-05
-0.000269627
-3.91754e-05
-0.000289002
-5.23521e-05
-0.000298138
-6.70934e-05
-0.000299124
-8.32918e-05
-0.000293868
-0.00010086
-0.000283951
-0.000119731
-0.000270523
-0.000139864
-0.000254252
-0.000161247
-0.000235312
-0.0001839
-0.00021342
-0.000207884
-0.000187884
-0.000233303
-0.000157655
-0.000260315
-0.000121355
-0.000289124
-7.72946e-05
-0.00031996
-2.34547e-05
4.26651e-05
-0.000353108
-1.90905e-05
-2.91714e-05
-4.10821e-05
-5.46839e-05
-6.98563e-05
-8.65012e-05
-0.000104545
-0.000123939
-0.00014466
-0.000166714
-0.000190139
-0.000215009
-0.000241443
-0.000269599
-0.000299678
-0.000331891
-0.000366484
-0.000448799
0.00082372
-0.000750029
-0.000491034
0.00197771
-0.00193547
-0.000510413
0.00329491
-0.00327553
-0.000494005
0.00483932
-0.00485572
-0.000443325
0.00622011
-0.00627079
-0.00035543
0.00720429
-0.00729218
-0.000220497
0.00753137
-0.0076663
-3.3199e-05
0.00700735
-0.00719464
0.000185847
0.0055952
-0.00581425
0.00342211
-0.00364055
-0.000451099
0.000895869
-0.000490179
0.00201679
-0.000504693
0.00330943
-0.000480499
0.00481512
-0.000419185
0.0061588
-0.000317598
0.0071027
-0.000168215
0.00738198