/*--------------------------------*- C++ -*----------------------------------*\
  =========                 |
  \\      /  F ield         | OpenFOAM: The Open Source CFD Toolbox
   \\    /   O peration     | Website:  https://openfoam.org
    \\  /    A nd           | Version:  7
     \\/     M anipulation  |
\*---------------------------------------------------------------------------*/
FoamFile
{
    version     2.0;
    format      ascii;
    class       volVectorField;
    location    "140";
    object      U;
}
// * * * * * * * * * * * * * * * * * * * * * * * * * * * * * * * * * * * * * //

dimensions      [0 1 -1 0 0 0 0];

internalField   nonuniform List<vector> 
4575
(
(-0.01281 -0.117103 1.00602e-21)
(-0.0205374 -0.127355 1.75237e-21)
(-0.0293937 -0.130899 -1.27538e-20)
(-0.0390929 -0.12938 2.157e-21)
(-0.0494023 -0.124246 -8.42255e-21)
(-0.0601352 -0.116691 -1.79933e-20)
(-0.0711465 -0.107633 1.52267e-20)
(-0.0823277 -0.0977018 4.48073e-21)
(-0.0936011 -0.0872644 -5.33088e-21)
(-0.104916 -0.0764579 6.5009e-21)
(-0.116244 -0.0652384 8.8628e-21)
(-0.127583 -0.053429 -5.56114e-21)
(-0.138946 -0.0407618 -7.4265e-21)
(-0.150371 -0.0269076 -1.77122e-20)
(-0.16193 -0.011498 -1.36573e-21)
(-0.173566 0.00585881 -2.96844e-21)
(-0.185219 0.0256326 -5.85496e-21)
(-0.0112205 -0.112906 -1.907e-20)
(-0.0189864 -0.122477 8.71754e-21)
(-0.0279835 -0.125513 5.26624e-20)
(-0.0378868 -0.123627 -3.20789e-20)
(-0.0484357 -0.118239 5.54043e-21)
(-0.0594254 -0.110518 2.56997e-20)
(-0.0707007 -0.101359 -1.10726e-22)
(-0.082149 -0.0913748 1.47999e-20)
(-0.0936933 -0.0809173 -1.9459e-20)
(-0.105286 -0.0701107 2.02257e-20)
(-0.116904 -0.0588997 -1.74609e-20)
(-0.128549 -0.0470967 -6.59986e-21)
(-0.140236 -0.0344241 3.34969e-20)
(-0.152006 -0.020545 -1.00839e-20)
(-0.163932 -0.00508794 1.61444e-21)
(-0.175939 0.0123358 -1.91071e-20)
(-0.187937 0.0321954 -1.91575e-21)
(-0.00970324 -0.108566 4.78125e-20)
(-0.0174839 -0.117468 -3.79142e-20)
(-0.026585 -0.120014 -5.85134e-20)
(-0.0366441 -0.117784 5.26413e-20)
(-0.0473737 -0.112163 -1.41202e-20)
(-0.0585508 -0.104294 -7.29172e-21)
(-0.0700097 -0.0950485 -3.53332e-20)
(-0.0816329 -0.0850213 9.2852e-21)
(-0.0933429 -0.0745497 3.44137e-20)
(-0.105094 -0.0637467 -7.35974e-21)
(-0.116866 -0.0525471 2.75511e-20)
(-0.128661 -0.0407542 -2.23188e-20)
(-0.140499 -0.028082 -7.23151e-21)
(-0.152419 -0.014188 5.27492e-20)
(-0.164495 0.00130105 -3.26937e-21)
(-0.176632 0.0187695 8.07371e-20)
(-0.188699 0.0386831 -1.86702e-20)
(-0.00826786 -0.104112 -4.42627e-20)
(-0.0160414 -0.112358 2.65952e-20)
(-0.0252114 -0.114437 -4.55586e-21)
(-0.0353798 -0.111886 -8.69799e-20)
(-0.0462331 -0.106056 -8.97301e-21)
(-0.0575303 -0.0980593 -1.87387e-20)
(-0.0690943 -0.0887432 -2.42687e-21)
(-0.0808022 -0.0786852 -3.22652e-20)
(-0.0925742 -0.068209 3.56999e-20)
(-0.104365 -0.0574173 -5.27159e-20)
(-0.116156 -0.0462362 -1.57536e-21)
(-0.12795 -0.0344614 1.42242e-20)
(-0.139767 -0.0218005 -1.07662e-19)
(-0.151643 -0.00790608 -8.57537e-20)
(-0.163654 0.00759502 4.59285e-20)
(-0.175684 0.025083 -6.23643e-20)
(-0.18755 0.0450177 2.37586e-21)
(-0.00692335 -0.0995716 -2.18523e-21)
(-0.0146699 -0.10718 1.33937e-20)
(-0.0238759 -0.108814 2.47225e-21)
(-0.0341098 -0.105968 4.41879e-20)
(-0.0450324 -0.0999534 5.13995e-20)
(-0.0563849 -0.0918511 2.14973e-20)
(-0.0679786 -0.0824837 7.61396e-20)
(-0.0796836 -0.0724107 -8.60004e-20)
(-0.0914172 -0.0619428 -1.82996e-20)
(-0.103133 -0.0511738 3.76959e-20)
(-0.114811 -0.0400228 -6.39322e-20)
(-0.126455 -0.0282791 2.88875e-20)
(-0.138082 -0.0156449 6.74234e-20)
(-0.149726 -0.0017693 1.73238e-20)
(-0.161464 0.0137201 2.146e-20)
(-0.173157 0.0311996 -3.49599e-20)
(-0.18456 0.0511218 4.35542e-21)
(-0.00567838 -0.0949721 3.7178e-20)
(-0.0133804 -0.101961 3.23568e-20)
(-0.0225925 -0.103176 1.50333e-20)
(-0.0328508 -0.100062 2.70197e-20)
(-0.0437917 -0.09389 -1.92326e-20)
(-0.0551383 -0.085707 -1.15496e-19)
(-0.0666897 -0.0763103 -1.0153e-19)
(-0.0783083 -0.0662411 -6.47082e-20)
(-0.0899069 -0.0557984 2.46323e-20)
(-0.101436 -0.0450679 -1.4005e-20)
(-0.112876 -0.0339627 1.04912e-19)
(-0.124226 -0.0222677 -3.73884e-20)
(-0.135501 -0.00968053 2.97252e-20)
(-0.14673 0.00415268 4.37789e-20)
(-0.157994 0.019603 -2.48132e-20)
(-0.169131 0.0370437 2.04197e-19)
(-0.179823 0.0569197 -7.53355e-20)
(-0.00454068 -0.090339 -2.34782e-20)
(-0.012184 -0.0967299 1.0268e-20)
(-0.0213754 -0.097552 1.56528e-20)
(-0.0316207 -0.0941996 5.16777e-20)
(-0.0425325 -0.0878993 1.10015e-20)
(-0.0538161 -0.0796629 4.71497e-21)
(-0.0652575 -0.0702617 1.81845e-19)
(-0.0767108 -0.060219 1.35058e-19)
(-0.088083 -0.0498222 -7.92229e-20)
(-0.099321 -0.0391501 -1.16849e-20)
(-0.110401 -0.0281115 -3.12303e-20)
(-0.12132 -0.0164873 3.01759e-20)
(-0.132088 -0.00397188 -1.56539e-19)
(-0.142731 0.00979113 -3.14617e-20)
(-0.15333 0.0251715 -4.82004e-20)
(-0.163705 0.0425408 -1.1493e-19)
(-0.173453 0.0623375 6.27289e-20)
(-0.00351826 -0.0856947 -3.03282e-20)
(-0.0110914 -0.0915118 -2.698e-20)
(-0.020239 -0.0919699 4.22159e-20)
(-0.0304378 -0.08841 -7.22984e-20)
(-0.0412775 -0.0820124 -1.02718e-20)
(-0.0524454 -0.0737527 1.33534e-19)
(-0.0637145 -0.0643753 -8.45225e-20)
(-0.0749292 -0.0543854 -3.44668e-20)
(-0.0859896 -0.0440594 4.08976e-20)
(-0.0968376 -0.0334702 -1.06304e-20)
(-0.107445 -0.0225232 -5.598e-21)
(-0.117804 -0.0109967 4.3165e-20)
(-0.12792 0.00141765 -1.10969e-19)
(-0.137814 0.0150786 4.03517e-20)
(-0.147571 0.030355 -2.888e-20)
(-0.156993 0.0476187 -6.37087e-20)
(-0.165584 0.0673041 2.3885e-20)
(-0.0101137 -0.0863292 9.75536e-20)
(-0.019198 -0.0864541 -1.00964e-19)
(-0.029321 -0.0827195 -4.85852e-20)
(-0.04005 -0.0762583 -8.39698e-20)
(-0.0510548 -0.0680082 -9.11792e-20)
(-0.0620947 -0.0586862 -5.88719e-20)
(-0.0730036 -0.0487792 -7.85055e-20)
(-0.083674 -0.0385532 1.42485e-19)
(-0.094041 -0.0280759 -1.63339e-20)
(-0.104071 -0.0172503 -3.17126e-20)
(-0.113751 -0.00585309 -1.64918e-19)
(-0.123081 0.00642648 9.26425e-20)
(-0.132077 0.0199497 2.40133e-20)
(-0.140827 0.0350853 5.51e-20)
(-0.149123 0.0522076 3.6307e-20)
(-0.156368 0.0717514 -9.53634e-20)
(-0.00926158 -0.0812029 8.50378e-20)
(-0.0182673 -0.0810266 -6.61486e-20)
(-0.0282893 -0.0771522 1.42673e-19)
(-0.0388738 -0.0706632 8.3574e-21)
(-0.0496734 -0.0624585 1.28615e-19)
(-0.0604333 -0.0532267 -7.34159e-20)
(-0.0709763 -0.0434368 1.18782e-19)
(-0.0811858 -0.0333443 -1.15037e-19)
(-0.0909896 -0.0230126 -1.03078e-19)
(-0.100347 -0.0123429 8.63203e-20)
(-0.10924 -0.00111121 3.01574e-19)
(-0.117662 0.0109954 -1.62708e-19)
(-0.125623 0.0243413 1.32656e-19)
(-0.133219 0.0392964 2.91818e-20)
(-0.140237 0.0562407 -1.09572e-19)
(-0.145966 0.0756151 9.10222e-20)
(-0.00854534 -0.0761502 -6.68515e-20)
(-0.0174609 -0.0757067 1.53201e-19)
(-0.0273613 -0.0717292 -2.78183e-20)
(-0.0377725 -0.0652504 3.6286e-21)
(-0.0483303 -0.0571295 -1.76722e-19)
(-0.0587658 -0.0480264 1.10973e-19)
(-0.06889 -0.0383915 2.45042e-20)
(-0.0785762 -0.0284704 -3.08274e-20)
(-0.0877438 -0.0183224 3.99443e-20)
(-0.0963446 -0.00784806 -1.56119e-19)
(-0.104354 0.00317721 -8.69219e-20)
(-0.111758 0.0150682 1.77697e-19)
(-0.118565 0.0281934 -9.73081e-20)
(-0.124874 0.042926 -1.3581e-19)
(-0.13048 0.0596545 2.48059e-19)
(-0.134552 0.0788346 -1.8939e-21)
(-0.00797458 -0.0711859 -4.25291e-20)
(-0.0167925 -0.0705107 -4.96743e-20)
(-0.0265547 -0.0664684 -2.0538e-19)
(-0.0367688 -0.06004 2.5446e-20)
(-0.047054 -0.052044 -8.49582e-20)
(-0.0571273 -0.043111 2.95311e-19)
(-0.0667871 -0.0336728 -1.69666e-19)
(-0.0758964 -0.0239651 1.04399e-19)
(-0.0843649 -0.0140437 -3.15216e-20)
(-0.0921357 -0.00380877 1.68811e-19)
(-0.0991764 0.00696427 1.32754e-20)
(-0.105469 0.0185924 -1.39191e-19)
(-0.111014 0.0314496 -2.34491e-20)
(-0.115923 0.045915 7.29627e-21)
(-0.120006 0.0623896 -1.2537e-20)
(-0.122303 0.0813532 1.57734e-19)
(-0.00755801 -0.0663221 -9.51216e-21)
(-0.0162743 -0.0654519 -8.09201e-20)
(-0.0258862 -0.0613845 1.79783e-19)
(-0.035884 -0.0550484 -1.95079e-20)
(-0.0458714 -0.0472207 2.1278e-19)
(-0.0555509 -0.0385023 -2.3512e-19)
(-0.0647087 -0.0293059 6.16947e-20)
(-0.0731961 -0.0198577 7.09988e-20)
(-0.0809126 -0.0102101 -2.31078e-21)
(-0.0877919 -0.000263353 -1.02155e-21)
(-0.0937931 0.0102069 -1.28627e-19)
(-0.0988925 0.0215202 1.83269e-20)
(-0.103087 0.0340581 1.65458e-19)
(-0.106498 0.048209 2.06663e-19)
(-0.108966 0.0643908 -2.40985e-19)
(-0.109395 0.0831187 -1.54146e-19)
(-0.00730345 -0.0615675 1.53324e-19)
(-0.0159172 -0.0605403 1.54867e-19)
(-0.0253704 -0.0564888 -6.06346e-20)
(-0.0351373 -0.0502884 2.58196e-19)
(-0.0448066 -0.0426744 -2.58989e-19)
(-0.0540673 -0.0342175 1.12933e-19)
(-0.0626926 -0.0253112 1.14158e-19)
(-0.070522 -0.0161721 -9.50598e-21)
(-0.0774438 -0.00684954 6.89528e-22)
(-0.0833815 0.00275572 1.46607e-20)
(-0.0882853 0.0128677 -9.83664e-20)
(-0.092125 0.0238094 9.53567e-20)
(-0.0948944 0.0359722 -4.91054e-20)
(-0.0967276 0.0497587 -1.07019e-19)
(-0.0975121 0.0656083 1.3398e-19)
(-0.0960023 0.0840834 2.75015e-20)
(-0.0072173 -0.0569294 -1.01343e-19)
(-0.0157307 -0.0557828 -1.05038e-19)
(-0.02502 -0.051789 1.67336e-19)
(-0.034545 -0.0457688 -8.62241e-20)
(-0.0438808 -0.0384153 6.72973e-20)
(-0.052703 -0.0302687 6.00316e-21)
(-0.0607722 -0.0217033 -1.7409e-20)
(-0.0679156 -0.012926 4.2257e-20)
(-0.0740101 -0.00398339 -8.31997e-20)
(-0.0789676 0.00522291 4.42118e-20)
(-0.0827286 0.0149166 1.35213e-19)
(-0.0852562 0.025425 -1.92485e-19)
(-0.0865412 0.0371523 -1.20254e-19)
(-0.0867319 0.0505213 1.54047e-19)
(-0.0857828 0.0659978 -8.97253e-20)
(-0.0822843 0.0842046 -1.30648e-19)
(-0.00730497 -0.0524109 -2.41099e-20)
(-0.0157218 -0.051184 -8.77977e-20)
(-0.0248444 -0.0472894 -1.65581e-19)
(-0.0341198 -0.0414944 -1.24352e-19)
(-0.0431102 -0.0344491 -2.44079e-19)
(-0.051479 -0.0266629 2.33987e-20)
(-0.0589745 -0.018491 -2.01782e-20)
(-0.0654116 -0.0101303 -1.66529e-19)
(-0.0706548 -0.00162545 1.39639e-19)
(-0.0746043 0.00712088 1.69789e-19)
(-0.0771894 0.0163319 -8.00048e-21)
(-0.0783658 0.0263402 1.00153e-19)
(-0.0781209 0.0375667 -4.94213e-20)
(-0.0766185 0.050462 6.78148e-21)
(-0.0739055 0.0655241 1.28443e-19)
(-0.0683849 0.0834531 3.04349e-19)
(-0.0158954 -0.0467449 1.20744e-19)
(-0.02485 -0.0429913 -4.28588e-20)
(-0.0338697 -0.0374662 -1.23185e-19)
(-0.0425056 -0.0307768 1.98785e-19)
(-0.0504098 -0.0234015 -5.37367e-20)
(-0.0573187 -0.0156761 3.81196e-20)
(-0.0630351 -0.00778845 1.99283e-19)
(-0.067411 0.000219099 -2.72937e-19)
(-0.0703338 0.00844182 -7.37849e-20)
(-0.0717206 0.0171021 -1.39206e-19)
(-0.0715182 0.0265389 2.77504e-19)
(-0.0697097 0.0371939 8.40121e-21)
(-0.0664746 0.0495561 1.42898e-19)
(-0.0619836 0.0641674 -5.46865e-20)
(-0.0544336 0.0818522 -2.83015e-19)
(-0.0162531 -0.0424647 7.27558e-20)
(-0.0250387 -0.0388927 -3.31181e-21)
(-0.0337975 -0.0336812 3.15689e-19)
(-0.0420711 -0.0273945 1.19226e-19)
(-0.0495014 -0.0204799 -2.15576e-19)
(-0.0558138 -0.013254 1.06282e-20)
(-0.0607995 -0.00589541 -9.13444e-21)
(-0.0642978 0.00155467 2.84349e-19)
(-0.0661825 0.00918878 -3.11297e-19)
(-0.0663573 0.0172277 8.5148e-20)
(-0.0647578 0.0260169 9.14926e-22)
(-0.0613606 0.0360236 -2.03903e-19)
(-0.0563564 0.0477857 -2.0554e-19)
(-0.0500648 0.0619129 -2.61688e-20)
(-0.0405352 0.0794925 2.80331e-19)
(-0.0167928 -0.0383406 -2.7243e-19)
(-0.0254078 -0.0349885 -7.36485e-20)
(-0.0338996 -0.0301328 -1.65232e-19)
(-0.0418027 -0.0242937 -7.66713e-20)
(-0.04875 -0.0178879 1.34235e-19)
(-0.0544572 -0.0112125 2.67639e-19)
(-0.0587041 -0.00443759 -2.93832e-19)
(-0.0613174 0.00239607 -1.07926e-19)
(-0.0621572 0.00937704 3.82211e-19)
(-0.061112 0.016723 -1.33513e-19)
(-0.0581036 0.0247852 -1.88512e-19)
(-0.0530989 0.0340588 2.3211e-19)
(-0.0462876 0.0451366 4.81628e-20)
(-0.0381049 0.0587137 4.22462e-20)
(-0.0266707 0.0763137 -1.78227e-19)
(-0.0175085 -0.034367 4.92733e-20)
(-0.0259487 -0.031272 3.15617e-19)
(-0.0341655 -0.026811 -1.9634e-19)
(-0.0416876 -0.0214617 4.60763e-20)
(-0.0481411 -0.0156094 -9.14453e-20)
(-0.0532325 -0.00953229 -3.61538e-19)
(-0.0567314 -0.00339238 2.15545e-19)
(-0.0584524 0.00276917 1.67829e-19)
(-0.0582412 0.00903523 -2.93523e-19)
(-0.05597 0.0156182 6.87772e-20)
(-0.0515441 0.022873 2.60594e-19)
(-0.0449187 0.0313216 9.65706e-20)
(-0.0362806 0.0416171 3.37768e-20)
(-0.0260894 0.0545659 -1.92532e-19)
(-0.0127202 0.0721323 -9.18481e-20)
(-0.0266472 -0.0277332 -4.40582e-20)
(-0.0345768 -0.023703 3.0018e-20)
(-0.0417033 -0.0188814 1.8131e-19)
(-0.0476473 -0.013623 2.2656e-19)
(-0.052108 -0.00818718 -9.44613e-21)
(-0.0548453 -0.00272825 -4.86331e-20)
(-0.0556622 0.00271111 -2.77469e-19)
(-0.05439 0.00820615 2.03346e-19)
(-0.0508837 0.013961 -1.77063e-20)
(-0.0450294 0.0203309 -1.15749e-19)
(-0.0367677 0.0278621 -5.5715e-19)
(-0.0262875 0.0372783 1.89894e-19)
(-0.0140323 0.0495354 1.04593e-20)
(0.00137813 0.0669157 -1.1128e-19)
(-0.0274825 -0.0243616 -2.59563e-19)
(-0.0351068 -0.0207932 1.60345e-19)
(-0.0418165 -0.0165322 -1.9033e-20)
(-0.0472283 -0.0119024 -3.56204e-19)
(-0.0510353 -0.00714441 6.79875e-20)
(-0.0529888 -0.00240514 3.67286e-20)
(-0.0528806 0.0022701 -6.21022e-20)
(-0.050528 0.00694685 1.61855e-19)
(-0.0457682 0.0118174 3.0576e-19)
(-0.0384654 0.0172325 -1.92617e-19)
(-0.0285395 0.0237585 1.55213e-19)
(-0.0161814 0.0321919 3.50205e-20)
(-0.00183737 0.0436752 1.99977e-19)
(0.0157128 0.0607871 8.62579e-20)
(-0.0284272 -0.0211451 2.94043e-19)
(-0.0357202 -0.0180642 -2.10299e-19)
(-0.041983 -0.0143909 6.235e-20)
(-0.0468297 -0.0104174 2.56432e-19)
(-0.0499485 -0.0063656 2.4049e-19)
(-0.051083 -0.0023754 9.02859e-20)
(-0.0500145 0.00150454 3.92214e-19)
(-0.0465464 0.00532797 -5.34748e-20)
(-0.0404975 0.00927136 -3.95535e-19)
(-0.0317093 0.0136746 1.8995e-19)
(-0.0200757 0.0191161 -9.60641e-20)
(-0.00577871 0.0264614 -2.21326e-19)
(0.0107089 0.0370581 -1.51173e-19)
(0.0305041 0.0538743 -1.47701e-19)
(-0.0294468 -0.0180711 -3.72597e-19)
(-0.0363729 -0.0154982 1.42356e-19)
(-0.0421473 -0.0124321 -1.28945e-19)
(-0.046383 -0.00913446 -2.13401e-19)
(-0.0487638 -0.00580792 6.93354e-21)
(-0.0490265 -0.00258507 -5.20272e-19)
(-0.0469424 0.000481548 -3.95093e-19)
(-0.0423012 0.00343219 1.20931e-19)
(-0.0349036 0.00642349 6.0141e-20)
(-0.0245671 0.00977696 -1.24176e-19)
(-0.011156 0.0140731 4.66735e-19)
(0.00516531 0.0202374 -7.04669e-20)
(0.0238888 0.0298204 1.85986e-19)
(0.0460852 0.0463027 1.60146e-19)
(-0.037012 -0.0130759 1.95073e-19)
(-0.0422429 -0.0106297 -1.17035e-20)
(-0.0458055 -0.0080184 8.88204e-20)
(-0.04738 -0.00542554 2.62475e-19)
(-0.0466962 -0.00297575 5.40387e-19)
(-0.0435156 -0.000725256 4.21226e-20)
(-0.0376147 0.00135165 -2.27906e-19)
(-0.0287761 0.00338818 4.12157e-20)
(-0.0167937 0.00567965 3.79755e-19)
(-0.0015 0.00879596 -2.49774e-19)
(0.0169658 0.0137064 2.47789e-22)
(0.0380539 0.0221522 1.76791e-19)
(0.0628713 0.0382398 -1.09874e-19)
(-0.0375766 -0.0107802 -5.06934e-20)
(-0.0421932 -0.00895713 -1.09065e-19)
(-0.0450021 -0.00703345 1.75985e-19)
(-0.0456796 -0.00517139 -2.00731e-19)
(-0.0439485 -0.00348679 -6.37658e-20)
(-0.0395602 -0.00203857 -7.00362e-21)
(-0.0322778 -0.000815657 1.58617e-19)
(-0.0218668 0.000289241 -1.39378e-19)
(-0.0080982 0.00153787 -2.55778e-19)
(0.00922724 0.00347464 -7.332e-20)
(0.0300006 0.00708989 -1.04475e-19)
(0.0536206 0.014288 -3.09359e-19)
(0.0813438 0.0299049 -8.79931e-20)
(-0.0379981 -0.00859407 -2.32878e-19)
(-0.041912 -0.00739006 1.32099e-19)
(-0.0438657 -0.00614483 -3.87383e-19)
(-0.0435308 -0.0049991 -1.91272e-19)
(-0.0406224 -0.00405778 2.72793e-21)
(-0.0348806 -0.00338074 1.61576e-19)
(-0.0260555 -0.00297024 -1.02942e-19)
(-0.0138959 -0.00274581 2.55421e-19)
(0.00184754 -0.00248522 -6.10792e-20)
(0.0214036 -0.0016853 7.82071e-20)
(0.0446954 0.00063741 2.77718e-19)
(0.0710532 0.00650309 3.58656e-20)
(0.102029 0.0215691 1.67266e-19)
(-0.0413056 -0.00590556 -2.57998e-19)
(-0.0422801 -0.00532037 7.50046e-20)
(-0.0407909 -0.00486491 7.33344e-21)
(-0.0365435 -0.00463123 -1.84685e-19)
(-0.0292659 -0.00467729 1.32072e-19)
(-0.0186941 -0.00501599 -1.01565e-19)
(-0.00456212 -0.00559249 -1.80883e-19)
(0.0133959 -0.00622767 -2.27865e-19)
(0.0354333 -0.00647363 5.50358e-20)
(0.0615033 -0.00538541 7.26865e-20)
(0.090839 -0.000896163 -6.60012e-20)
(0.125468 0.0135506 2.71092e-19)
(-0.0402742 -0.00448511 -7.24726e-20)
(-0.0401222 -0.00453154 5.9905e-19)
(-0.0373093 -0.00472956 4.28696e-20)
(-0.031529 -0.00515501 -6.31775e-20)
(-0.0224959 -0.00586039 -4.13975e-19)
(-0.00993132 -0.00686509 7.82767e-20)
(0.00644408 -0.00813634 -1.93849e-19)
(0.0269069 -0.00953843 1.25345e-19)
(0.0517256 -0.0106891 1.10539e-19)
(0.0808785 -0.0107134 -4.03358e-19)
(0.113458 -0.00758857 -1.1935e-19)
(0.152174 0.00620538 -4.04624e-19)
(-0.0387141 -0.00311356 2.53557e-20)
(-0.0372652 -0.00375522 -1.80247e-19)
(-0.0329318 -0.00455987 2.55426e-19)
(-0.0253936 -0.00558459 1.65498e-21)
(-0.0143495 -0.00687194 3.09366e-19)
(0.000493873 -0.00844238 2.05528e-19)
(0.0194266 -0.0102793 3.50071e-20)
(0.0427286 -0.0122869 4.05534e-19)
(0.0706708 -0.0141537 -3.56685e-19)
(0.103246 -0.0151011 1.61461e-19)
(0.139347 -0.0132595 1.21213e-19)
(0.18259 -9.02539e-05 1.00786e-19)
(-0.0335814 -0.00297404 -2.96985e-19)
(-0.0275052 -0.00433005 -2.2533e-19)
(-0.0179551 -0.00588471 1.04924e-19)
(-0.00461264 -0.00766585 -2.93273e-19)
(0.0128296 -0.00968864 1.9842e-20)
(0.0346689 -0.0119449 1.09524e-19)
(0.061179 -0.0143711 8.19457e-20)
(0.0926157 -0.0167252 2.3904e-19)
(0.128971 -0.0183417 4.6952e-20)
(0.168871 -0.0176251 -1.6698e-19)
(0.217045 -0.00496083 1.72964e-19)
(-0.0289458 -0.00217728 2.56019e-19)
(-0.0208816 -0.00402253 -1.30796e-19)
(-0.00904055 -0.0060303 4.06627e-21)
(0.00691362 -0.00820927 7.07946e-20)
(0.027301 -0.0105624 1.4534e-19)
(0.0524205 -0.0130808 -1.78274e-20)
(0.0825275 -0.0157225 -3.97103e-20)
(0.117842 -0.0183065 -1.9212e-19)
(0.158335 -0.0202833 -1.24396e-19)
(0.202291 -0.0204555 -1.13582e-19)
(0.255711 -0.0080561 1.74361e-19)
(-0.012922 -0.00362768 9.01803e-20)
(0.00150868 -0.00600674 3.14087e-20)
(0.0204067 -0.00848281 -1.40257e-19)
(0.0441015 -0.0110403 -3.18844e-19)
(0.0728859 -0.0136595 1.57874e-19)
(0.106983 -0.0163074 -7.48873e-20)
(0.146553 -0.018849 -1.60421e-20)
(0.191512 -0.0208392 3.01379e-19)
(0.239748 -0.0215919 3.01032e-19)
(0.298578 -0.00907321 -4.4436e-19)
(-0.00349977 -0.00314401 9.1904e-21)
(0.0138326 -0.00580897 -2.17825e-19)
(0.0360169 -0.0084795 2.85969e-19)
(0.0633864 -0.0111151 1.83058e-19)
(0.0962178 -0.0136761 -3.49129e-19)
(0.134684 -0.0161246 -2.88563e-19)
(0.17886 -0.0183512 6.46577e-20)
(0.228562 -0.0199907 3.60965e-19)
(0.281268 -0.0209537 1.59432e-19)
(0.345433 -0.00777575 8.17625e-20)
(0.00749665 -0.00257632 -4.22756e-19)
(0.0280497 -0.00544044 -3.80724e-19)
(0.0538643 -0.00820284 -3.73693e-20)
(0.0852694 -0.0107936 -2.05142e-20)
(0.122513 -0.0131448 1.22058e-19)
(0.165698 -0.0151998 7.79666e-20)
(0.214789 -0.016851 9.7664e-20)
(0.269437 -0.0177835 -4.46632e-19)
(0.326769 -0.0185383 -1.16507e-19)
(0.395873 -0.00401896 2.98325e-19)
(0.0442552 -0.00491079 1.6785e-19)
(0.0740366 -0.00766425 -1.52976e-19)
(0.109821 -0.0100925 -2.08588e-19)
(0.151811 -0.0120931 -2.53788e-20)
(0.200019 -0.0135791 2.04562e-19)
(0.254276 -0.0144161 -1.30244e-19)
(0.313981 -0.014319 4.9416e-20)
(0.376088 -0.0144132 1.05696e-19)
(0.44933 0.0022225 2.52405e-19)
(0.0625204 -0.00423361 7.66453e-20)
(0.0965893 -0.00687991 -1.03369e-19)
(0.137068 -0.00903503 2.42155e-19)
(0.184097 -0.0105578 -2.10021e-20)
(0.237575 -0.0113214 -5.21465e-20)
(0.297179 -0.0111323 -8.14708e-20)
(0.361939 -0.00973976 1.23417e-19)
(0.428973 -0.00866673 -3.00322e-19)
(0.505029 0.0109318 -3.86182e-19)
(0.121547 -0.00586734 3.85166e-19)
(0.166997 -0.00764632 -3.44961e-20)
(0.219305 -0.00857987 -7.27061e-20)
(0.278233 -0.00849502 -8.94684e-21)
(0.343294 -0.00710254 1.74445e-19)
(0.413002 -0.00422528 2.98268e-19)
(0.485074 -0.0012812 -8.12023e-20)
(0.561743 0.0223603 2.84021e-19)
(0.148903 -0.00464195 -1.30584e-19)
(0.199556 -0.00595003 -9.47736e-20)
(0.257318 -0.0062015 -3.04645e-19)
(0.321801 -0.00517805 -7.97764e-20)
(0.392362 -0.00246769 6.78415e-21)
(0.466927 0.0019745 -2.04169e-19)
(0.544237 0.00791057 9.90697e-20)
(0.61797 0.0368036 -2.00557e-19)
(0.234651 -0.0039635 -1.53299e-19)
(0.297962 -0.00346017 3.68923e-19)
(0.368007 -0.00145586 2.20904e-19)
(0.444019 0.00257453 5.31638e-20)
(0.523504 0.00849491 -2.24501e-19)
(0.606981 0.0187201 -1.33518e-20)
(0.674925 0.0514271 -3.38269e-19)
(0.272155 -0.00169255 -7.22338e-20)
(0.341014 -0.000379174 6.70685e-20)
(0.416489 0.00260146 -1.16552e-19)
(0.497693 0.00782395 -1.31164e-19)
(0.581996 0.0149101 2.68937e-19)
(0.67273 0.0294655 -8.29586e-20)
(0.740556 0.0565662 6.28109e-21)
(0.386202 0.00304253 -1.46171e-19)
(0.466819 0.00697455 4.0552e-20)
(0.552691 0.0132102 -5.19202e-20)
(0.641031 0.0209195 -2.60413e-20)
(0.735827 0.0363255 6.08105e-20)
(0.809959 0.0503357 6.30062e-19)
(0.518548 0.0116949 5.04969e-21)
(0.608349 0.0187956 -2.72224e-19)
(0.69966 0.0268575 -7.12316e-20)
(0.79585 0.0419023 3.31437e-19)
(0.872464 0.0490304 -3.65682e-19)
(0.571225 0.016818 2.81128e-19)
(0.664089 0.0246935 8.70427e-20)
(0.757201 0.0330734 4.85225e-19)
(0.852911 0.0475189 -3.01786e-19)
(0.929352 0.0514239 4.91723e-19)
(0.719383 0.0309928 1.10046e-19)
(0.813116 0.0397169 6.48028e-20)
(0.906914 0.0535124 -5.22951e-19)
(0.981744 0.0559585 -2.88708e-19)
(0.866939 0.0468276 8.99174e-20)
(0.957661 0.0599835 4.09806e-19)
(1.02976 0.0619403 -2.78604e-19)
(0.918255 0.0543854 -3.13058e-19)
(1.00495 0.0669248 1.97637e-19)
(1.07341 0.0688848 8.90437e-20)
(1.04859 0.0742623 -3.10984e-19)
(1.11269 0.0764196 4.30661e-19)
(1.14766 0.0842667 -2.15917e-19)
(1.31932 0.00584008 -2.83365e-19)
(1.25567 0.00520847 -8.79415e-19)
(1.3002 0.0132908 5.04005e-19)
(1.15689 0.0116593 -5.91484e-19)
(1.22741 0.0113852 4.65564e-19)
(1.27779 0.0204297 -1.50421e-19)
(1.11852 0.0169779 -3.40738e-19)
(1.19569 0.0170181 1.01046e-18)
(1.25184 0.027072 -2.29897e-19)
(0.984116 0.0183498 1.33521e-20)
(1.07698 0.0215768 -9.51006e-20)
(1.16048 0.0219952 -9.87439e-19)
(1.22211 0.032961 -5.24073e-19)
(0.832127 0.0177437 -5.0536e-20)
(0.936012 0.0210277 1.50036e-19)
(1.03249 0.0253632 6.1119e-19)
(1.12177 0.0262307 -2.14048e-19)
(1.18839 0.0377378 6.1701e-19)
(0.7816 0.0181638 3.19559e-19)
(0.886277 0.0227667 -3.17455e-19)
(0.985345 0.0282659 -5.6309e-19)
(1.07964 0.0297072 9.5349e-19)
(1.15046 0.0408919 -6.03151e-19)
(0.62726 0.0109046 -4.49247e-20)
(0.731025 0.0175508 -5.70451e-19)
(0.835428 0.023559 2.14323e-19)
(0.935956 0.0302553 3.88138e-19)
(1.03419 0.0325691 8.45361e-21)
(1.10753 0.0414693 8.08831e-19)
(0.483695 -0.000260054 5.36028e-19)
(0.580053 0.00786676 -1.35911e-19)
(0.680956 0.0159207 -3.93755e-19)
(0.784038 0.0234288 -9.83704e-20)
(0.884877 0.0313708 6.32616e-19)
(0.985457 0.0355482 2.02737e-20)
(1.05906 0.0371384 -2.75585e-19)
(0.442743 -0.00545866 1.22501e-19)
(0.534604 0.00387459 3.89534e-19)
(0.631937 0.0133087 2.05664e-19)
(0.732734 0.0224049 2.38082e-19)
(0.832877 0.0316585 -7.19506e-19)
(0.932969 0.0400579 1.61928e-19)
(1.01486 0.0348646 -6.05239e-19)
(0.324643 -0.0214255 3.30291e-20)
(0.404234 -0.0114526 -2.99595e-19)
(0.491271 -0.000998869 -1.37638e-19)
(0.584469 0.00976439 -3.139e-19)
(0.68216 0.0204963 -1.36724e-19)
(0.780896 0.0310952 5.15935e-20)
(0.879579 0.0437676 -3.19368e-19)
(0.97156 0.038359 -2.75225e-20)
(0.29384 -0.0288876 4.65521e-19)
(0.368313 -0.0181371 4.39594e-20)
(0.450335 -0.00666336 2.11654e-19)
(0.538984 0.00534836 -3.16361e-19)
(0.632916 0.0176777 4.96327e-19)
(0.729602 0.0296892 1.32e-19)
(0.826222 0.0456545 1.89296e-19)
(0.92585 0.0426288 6.76335e-19)
(0.20381 -0.0470589 3.58176e-19)
(0.265593 -0.0368151 3.648e-20)
(0.335041 -0.0253929 1.57323e-19)
(0.411977 -0.0130108 2.18271e-19)
(0.495806 0.000142991 -9.6861e-20)
(0.585476 0.0139533 -3.8804e-19)
(0.679396 0.0274359 1.92777e-19)
(0.773226 0.0457822 -2.52774e-19)
(0.877144 0.0456911 -7.22196e-19)
(0.182522 -0.0556878 3.74584e-19)
(0.239808 -0.0450801 -1.19321e-19)
(0.304399 -0.0330887 -1.3147e-19)
(0.376285 -0.0199155 -4.32202e-19)
(0.455148 -0.00574174 6.01217e-19)
(0.540195 0.00939166 -1.7384e-19)
(0.630656 0.0243541 -1.14841e-19)
(0.721129 0.0444832 1.67531e-19)
(0.826558 0.0474526 5.38254e-19)
(0.116885 -0.0735674 7.90971e-19)
(0.163276 -0.0644486 -5.92319e-19)
(0.216339 -0.0535499 -4.56687e-19)
(0.276292 -0.041085 -3.11218e-19)
(0.343252 -0.0272373 6.80952e-19)
(0.417117 -0.012173 -3.75141e-21)
(0.497327 0.00411317 1.84865e-19)
(0.583763 0.0205027 -6.99849e-19)
(0.670493 0.0420116 4.47104e-20)
(0.775236 0.0480057 3.38451e-19)
(0.102941 -0.0824211 -6.18161e-20)
(0.145874 -0.0732202 -1.59947e-19)
(0.194998 -0.0620915 2.57029e-19)
(0.250569 -0.0492391 3.36165e-19)
(0.312791 -0.0348284 -8.32156e-19)
(0.381726 -0.0190042 -3.342e-19)
(0.457017 -0.00173515 3.36888e-19)
(0.539023 0.0159713 4.17648e-19)
(0.621741 0.0385425 4.64037e-19)
(0.724044 0.047337 2.62219e-20)
(0.056112 -0.0981041 -1.30307e-19)
(0.0903604 -0.0911449 -8.70118e-20)
(0.130103 -0.0818861 4.58682e-19)
(0.17557 -0.0705759 -4.73584e-19)
(0.227032 -0.0574111 -2.74362e-19)
(0.284748 -0.04254 1.25668e-19)
(0.348898 -0.0260829 2.26677e-19)
(0.419302 -0.00799576 -1.9875e-19)
(0.496627 0.0108724 3.18859e-19)
(0.575148 0.0342338 4.48401e-19)
(0.673677 0.0454606 -4.38412e-19)
(0.0472178 -0.106543 5.07708e-19)
(0.0789519 -0.0996413 -3.99716e-19)
(0.11575 -0.0903373 4.66976e-19)
(0.157826 -0.0788827 -5.9834e-20)
(0.205452 -0.0654686 1.97604e-19)
(0.25892 -0.0502288 -1.23996e-19)
(0.318487 -0.033259 -1.16778e-19)
(0.384118 -0.0145102 7.48723e-20)
(0.456656 0.00533631 -7.88516e-19)
(0.530875 0.0292479 8.07503e-20)
(0.624693 0.0424677 3.69138e-19)
(0.0391275 -0.114683 -8.15593e-19)
(0.0685345 -0.107821 9.88221e-20)
(0.102605 -0.0984753 -1.95894e-19)
(0.141534 -0.0869027 -2.11496e-19)
(0.185589 -0.0732917 -8.31652e-20)
(0.235074 -0.0577635 6.19455e-19)
(0.290294 -0.0403916 -1.2406e-19)
(0.351329 -0.0211271 -1.39718e-19)
(0.419092 -0.000499647 4.46691e-19)
(0.488978 0.0237449 -1.88176e-19)
(0.5775 0.0385036 -7.03584e-20)
(0.00867288 -0.12642 1.4235e-19)
(0.0317046 -0.122453 -8.04912e-20)
(0.058943 -0.115606 1.90582e-19)
(0.0904743 -0.106214 1.272e-20)
(0.126476 -0.0945418 6.58083e-19)
(0.167204 -0.0807761 5.02026e-19)
(0.212964 -0.065029 7.8194e-20)
(0.264088 -0.0473551 7.57659e-20)
(0.320743 -0.0277102 8.05614e-20)
(0.383838 -0.00650144 1.64487e-19)
(0.449426 0.017875 1.93388e-19)
(0.532355 0.0337404 2.67856e-19)
(0.00351203 -0.133708 4.49281e-20)
(0.0248303 -0.129789 5.62673e-19)
(0.0500309 -0.122929 5.29677e-19)
(0.0791833 -0.113482 -1.03862e-19)
(0.112449 -0.101721 -8.45844e-19)
(0.150071 -0.0878356 -1.4414e-19)
(0.192351 -0.0719295 -3.6053e-19)
(0.239629 -0.0540441 5.42944e-19)
(0.29214 -0.0341432 1.35752e-19)
(0.350739 -0.0125473 -6.83974e-19)
(0.412116 0.0117744 -3.22204e-19)
(0.489381 0.0283606 -1.28512e-18)
(-0.00128518 -0.140557 -2.08922e-19)
(0.0184034 -0.136637 2.00898e-19)
(0.041673 -0.129734 -1.70496e-19)
(0.0685805 -0.12022 -3.76273e-19)
(0.0992747 -0.10838 2.81903e-19)
(0.133986 -0.0944028 -7.86966e-20)
(0.173009 -0.0783906 -3.26812e-19)
(0.216683 -0.0603752 -4.36149e-19)
(0.265288 -0.0403332 2.24013e-19)
(0.319602 -0.0185331 1.45285e-19)
(0.3769 0.00556354 -2.13005e-19)
(0.448592 0.0225455 6.30557e-19)
(-0.0205604 -0.147407 4.88595e-20)
(-0.00578318 -0.146921 3.35694e-19)
(0.012341 -0.142954 -7.85071e-19)
(0.0337656 -0.135978 -3.19122e-19)
(0.0585392 -0.126385 1.21069e-19)
(0.0868014 -0.114471 4.28855e-20)
(0.118772 -0.100429 -1.54118e-19)
(0.154738 -0.084358 4.27899e-19)
(0.195032 -0.0662874 -3.37323e-20)
(0.239965 -0.0462107 2.75816e-19)
(0.290224 -0.0243747 1.29942e-19)
(0.343596 -0.000653545 5.9068e-19)
(0.409918 0.0164668 2.63048e-19)
(-0.0235545 -0.1533 -1.49583e-19)
(-0.0100331 -0.152763 8.67588e-20)
(0.00657711 -0.148705 2.69352e-19)
(0.0262256 -0.141628 -2.70826e-19)
(0.048957 -0.131946 -3.01094e-19)
(0.0749053 -0.119964 4.11886e-21)
(0.104283 -0.105882 7.22935e-20)
(0.137368 -0.0897967 3.97989e-20)
(0.174486 -0.0717403 -3.15389e-19)
(0.215965 -0.0517275 -3.10974e-19)
(0.262401 -0.0300068 -8.69437e-20)
(0.312018 -0.00678825 -6.08396e-19)
(0.373235 0.010281 -2.03454e-19)
(-0.0263652 -0.158697 9.29728e-20)
(-0.0140738 -0.158053 5.92784e-20)
(0.00106093 -0.153864 1.98117e-21)
(0.0189889 -0.146663 6.217e-19)
(0.0397543 -0.136883 7.81041e-19)
(0.0634887 -0.124843 1.2349e-19)
(0.0903995 -0.110744 -2.80374e-19)
(0.120758 -0.0946878 1.13147e-19)
(0.154882 -0.0767108 6.0365e-19)
(0.193106 -0.0568528 -5.75744e-19)
(0.235942 -0.0353798 -8.70478e-20)
(0.281976 -0.0127645 2.48229e-19)
(0.338385 0.00412828 -4.0023e-19)
(-0.037338 -0.160185 1.91839e-19)
(-0.0290133 -0.163571 1.21279e-19)
(-0.0179341 -0.162768 -1.80027e-19)
(-0.00424472 -0.158413 -3.53787e-19)
(0.0120082 -0.151068 -1.92477e-19)
(0.0308716 -0.141188 -8.38957e-19)
(0.0524775 -0.129099 -3.82774e-19)
(0.077031 -0.11501 3.94998e-20)
(0.104798 -0.0990248 1.53582e-20)
(0.136087 -0.0811891 -7.66248e-20)
(0.171237 -0.0615686 6.14039e-19)
(0.210678 -0.0404553 3.41671e-19)
(0.253296 -0.0185148 -1.53964e-19)
(0.305189 -0.00186714 5.36965e-19)
(-0.0388662 -0.164682 3.97423e-19)
(-0.0315135 -0.167899 -3.19144e-19)
(-0.0216337 -0.166892 1.55377e-19)
(-0.00936564 -0.162342 3.47424e-19)
(0.00525034 -0.15484 8.4406e-20)
(0.0222666 -0.144858 3.38755e-19)
(0.0418179 -0.132735 7.13026e-19)
(0.0641088 -0.118682 -5.7614e-20)
(0.089401 -0.10281 -5.86517e-19)