/*--------------------------------*- C++ -*----------------------------------*\
  =========                 |
  \\      /  F ield         | OpenFOAM: The Open Source CFD Toolbox
   \\    /   O peration     | Website:  https://openfoam.org
    \\  /    A nd           | Version:  7
     \\/     M anipulation  |
\*---------------------------------------------------------------------------*/
FoamFile
{
    version     2.0;
    format      ascii;
    class       volScalarField;
    location    "260";
    object      p;
}
// * * * * * * * * * * * * * * * * * * * * * * * * * * * * * * * * * * * * * //

dimensions      [0 2 -2 0 0 0 0];

internalField   nonuniform List<scalar> 
4575
(
-0.518276
-0.510218
-0.504058
-0.523796
-0.515403
-0.509022
-0.502064
-0.494329
-0.529282
-0.520564
-0.513965
-0.506732
-0.498622
-0.489426
-0.478826
-0.466611
-0.534703
-0.525672
-0.518857
-0.511342
-0.502834
-0.493099
-0.48181
-0.46878
-0.453999
-0.437637
-0.420017
-0.401547
-0.540024
-0.530694
-0.523667
-0.515861
-0.506933
-0.496623
-0.484604
-0.470722
-0.455022
-0.437742
-0.419266
-0.400045
-0.38052
-0.361066
-0.341968
-0.545211
-0.535597
-0.52836
-0.520253
-0.51088
-0.499961
-0.487173
-0.472404
-0.455762
-0.437557
-0.418232
-0.398277
-0.378149
-0.35822
-0.338759
-0.319938
-0.301851
-0.284528
-0.267982
-0.550225
-0.540345
-0.532902
-0.524483
-0.514639
-0.503074
-0.48948
-0.473792
-0.456192
-0.43706
-0.416898
-0.39623
-0.375523
-0.355142
-0.33534
-0.316268
-0.298003
-0.280557
-0.263945
-0.248204
-0.555029
-0.5449
-0.537255
-0.528511
-0.51817
-0.505924
-0.491487
-0.474855
-0.456284
-0.436229
-0.415246
-0.393889
-0.372629
-0.351821
-0.331699
-0.312395
-0.293966
-0.27641
-0.259739
-0.24393
-0.559581
-0.549225
-0.541378
-0.532297
-0.521433
-0.508471
-0.49316
-0.475561
-0.456013
-0.435044
-0.413261
-0.39124
-0.369455
-0.348247
-0.327828
-0.30831
-0.289733
-0.272079
-0.255359
-0.239491
-0.563839
-0.553277
-0.545232
-0.535799
-0.524385
-0.510675
-0.494461
-0.475879
-0.455353
-0.433484
-0.410925
-0.388271
-0.365991
-0.344409
-0.323716
-0.304004
-0.285293
-0.267556
-0.250798
-0.23488
-0.567762
-0.557017
-0.548774
-0.538976
-0.526986
-0.512497
-0.495355
-0.475779
-0.45428
-0.431531
-0.408225
-0.38497
-0.362226
-0.340297
-0.319355
-0.299467
-0.280641
-0.262835
-0.246049
-0.230092
-0.571306
-0.5604
-0.551962
-0.541785
-0.529192
-0.513897
-0.495807
-0.475232
-0.452772
-0.429166
-0.405145
-0.381323
-0.358147
-0.335902
-0.314733
-0.294692
-0.275767
-0.257907
-0.241107
-0.225124
-0.574427
-0.563385
-0.554752
-0.544181
-0.530963
-0.514837
-0.495784
-0.474211
-0.450807
-0.426374
-0.401673
-0.37732
-0.353746
-0.331213
-0.309844
-0.28967
-0.270664
-0.252768
-0.235966
-0.21997
-0.57708
-0.565928
-0.5571
-0.546122
-0.532255
-0.515278
-0.495255
-0.47269
-0.448364
-0.423138
-0.397795
-0.372949
-0.349013
-0.326222
-0.304678
-0.284394
-0.265326
-0.24741
-0.230621
-0.214626
-0.579223
-0.567985
-0.558964
-0.547565
-0.53303
-0.515186
-0.494188
-0.470645
-0.445426
-0.419444
-0.3935
-0.368201
-0.343937
-0.32092
-0.299228
-0.278856
-0.259747
-0.241828
-0.225067
-0.209088
-0.580812
-0.569514
-0.5603
-0.548468
-0.533248
-0.514525
-0.492555
-0.468054
-0.441975
-0.415277
-0.388777
-0.363065
-0.33851
-0.315299
-0.293486
-0.273049
-0.253919
-0.236017
-0.2193
-0.203352
-0.581806
-0.570472
-0.561066
-0.548789
-0.53287
-0.513263
-0.49033
-0.464897
-0.437995
-0.410627
-0.383615
-0.357533
-0.332725
-0.309351
-0.287445
-0.266967
-0.247838
-0.229972
-0.213315
-0.197417
-0.582162
-0.570819
-0.561222
-0.54849
-0.531862
-0.511369
-0.487488
-0.461153
-0.433472
-0.405482
-0.378005
-0.351596
-0.326574
-0.30307
-0.281098
-0.260606
-0.241498
-0.223688
-0.207109
-0.191277
-0.58184
-0.570515
-0.560727
-0.547533
-0.530189
-0.508815
-0.484008
-0.456808
-0.428394
-0.399832
-0.371939
-0.345249
-0.320049
-0.296449
-0.274442
-0.253958
-0.234895
-0.217161
-0.200679
-0.184932
-0.580804
-0.56952
-0.559543
-0.545881
-0.527819
-0.505575
-0.479868
-0.451845
-0.422749
-0.393669
-0.36541
-0.338483
-0.313147
-0.289484
-0.26747
-0.247022
-0.228026
-0.210389
-0.194023
-0.178378
-0.579017
-0.5678
-0.557636
-0.543502
-0.524724
-0.501626
-0.475052
-0.446253
-0.416529
-0.386985
-0.358413
-0.331294
-0.30586
-0.28217
-0.260178
-0.239792
-0.220887
-0.203367
-0.187138
-0.171618
-0.576445
-0.565319
-0.55497
-0.540365
-0.520877
-0.496947
-0.469545
-0.44002
-0.409726
-0.379775
-0.350942
-0.323678
-0.298187
-0.274503
-0.252564
-0.232265
-0.213475
-0.196093
-0.180024
-0.164648
-0.573057
-0.562045
-0.551516
-0.53644
-0.516255
-0.491519
-0.463333
-0.433139
-0.402334
-0.372034
-0.342993
-0.315631
-0.290123
-0.26648
-0.244626
-0.224441
-0.205787
-0.18856
-0.172671
-0.157447
-0.568824
-0.557951
-0.547245
-0.531704
-0.510837
-0.485329
-0.456407
-0.425602
-0.394349
-0.36376
-0.334564
-0.307152
-0.281667
-0.258101
-0.236361
-0.216319
-0.197823
-0.180772
-0.165074
-0.149952
-0.56372
-0.553008
-0.542132
-0.526135
-0.504607
-0.478364
-0.448759
-0.417405
-0.385767
-0.35495
-0.325654
-0.298238
-0.272818
-0.249364
-0.227771
-0.207899
-0.189588
-0.172745
-0.157266
-0.142104
-0.557724
-0.547195
-0.536155
-0.519712
-0.497549
-0.470614
-0.440384
-0.408546
-0.376589
-0.345605
-0.316263
-0.28889
-0.263576
-0.240271
-0.218855
-0.199181
-0.181082
-0.164487
-0.1493
-0.134051
-0.550815
-0.54049
-0.529295
-0.512421
-0.489652
-0.462073
-0.431279
-0.399025
-0.366815
-0.335725
-0.306392
-0.27911
-0.253943
-0.230821
-0.209615
-0.190166
-0.172308
-0.155972
-0.140946
-0.12606
-0.542977
-0.532877
-0.521537
-0.50425
-0.48091
-0.452738
-0.421444
-0.388842
-0.356448
-0.325314
-0.296044
-0.2689
-0.24392
-0.221019
-0.200053
-0.180859
-0.163269
-0.147211
-0.132388
-0.11788
-0.534199
-0.524343
-0.512869
-0.49519
-0.471317
-0.442608
-0.410881
-0.378003
-0.345492
-0.314376
-0.285223
-0.258263
-0.233512
-0.210866
-0.190173
-0.171265
-0.153966
-0.138207
-0.123637
-0.109482
-0.52447
-0.514878
-0.503282
-0.485235
-0.460873
-0.431685
-0.399595
-0.366512
-0.333953
-0.302916
-0.273933
-0.247205
-0.222722
-0.200367
-0.179981
-0.161384
-0.144403
-0.128967
-0.114686
-0.100871
-0.513785
-0.504476
-0.492771
-0.474385
-0.449578
-0.419975
-0.387592
-0.354378
-0.321839
-0.290941
-0.262183
-0.235731
-0.211557
-0.18953
-0.16948
-0.151223
-0.134587
-0.119497
-0.105532
-0.0920558
-0.502143
-0.493133
-0.481337
-0.462641
-0.437438
-0.407484
-0.374882
-0.341609
-0.309158
-0.278461
-0.249978
-0.223849
-0.200025
-0.178359
-0.158677
-0.140789
-0.124522
-0.109803
-0.096174
-0.489544
-0.480851
-0.46898
-0.450007
-0.424462
-0.394224
-0.361476
-0.328218
-0.295922
-0.265484
-0.237329
-0.211569
-0.188131
-0.166863
-0.147579
-0.130088
-0.114215
-0.0998904
-0.475995
-0.467635
-0.455707
-0.436493
-0.41066
-0.380206
-0.347388
-0.314217
-0.282143
-0.252022
-0.224247
-0.198898
-0.175887
-0.155049
-0.136195
-0.119128
-0.461504
-0.453492
-0.441528
-0.42211
-0.396047
-0.365447
-0.332633
-0.299622
-0.267834
-0.238089
-0.210742
-0.185848
-0.163302
-0.142928
-0.124534
-0.446084
-0.438434
-0.426455
-0.406874
-0.380638
-0.349965
-0.31723
-0.284449
-0.253012
-0.223699
-0.196828
-0.172431
-0.150386
-0.130511
-0.42975
-0.422476
-0.410504
-0.390802
-0.364454
-0.333779
-0.301199
-0.268715
-0.237693
-0.208866
-0.18252
-0.158661
-0.137154
-0.412521
-0.405636
-0.393695
-0.373914
-0.347518
-0.316915
-0.284565
-0.252436
-0.221895
-0.193608
-0.167831
-0.14455
-0.394421
-0.387936
-0.37605
-0.356236
-0.329854
-0.299395
-0.267331
-0.23565
-0.205639
-0.177942
-0.15278
-0.375474
-0.3694
-0.357595
-0.337795
-0.311494
-0.281239
-0.249539
-0.218367
-0.188946
-0.161889
-0.35571
-0.350056
-0.338358
-0.318622
-0.29247
-0.262464
-0.231219
-0.200612
-0.171837
-0.335156
-0.329935
-0.318371
-0.298753
-0.272771
-0.243138
-0.212395
-0.182412
-0.313845
-0.309073
-0.297671
-0.27822
-0.252453
-0.223268
-0.193095
-0.291811
-0.287506
-0.276293
-0.257006
-0.231602
-0.202892
-0.269089
-0.265273
-0.25426
-0.235213
-0.210212
-0.245713
-0.24242
-0.231613
-0.212878
-0.188322
-0.221715
-0.219005
-0.208415
-0.190031
-0.197162
-0.195064
-0.184712
-0.172199
-0.170562
-0.160541
-0.146784
-0.145608
-0.120957
-0.0947747
-0.175829
-0.203529
-0.230832
-0.229164
-0.257679
-0.255552
-0.243782
-0.284044
-0.281433
-0.269336
-0.309955
-0.306705
-0.29438
-0.273037
-0.335252
-0.331411
-0.318875
-0.297164
-0.268739
-0.359875
-0.355505
-0.342769
-0.320735
-0.291838
-0.259296
-0.38379
-0.378924
-0.365995
-0.343723
-0.314396
-0.28127
-0.406962
-0.401621
-0.388512
-0.366082
-0.336372
-0.302733
-0.267985
-0.429352
-0.423557
-0.410295
-0.387705
-0.357775
-0.323647
-0.288287
-0.253806
-0.450924
-0.444691
-0.431309
-0.408608
-0.378518
-0.343971
-0.308078
-0.272921
-0.23986
-0.471643
-0.464986
-0.451514
-0.42876
-0.398511
-0.363722
-0.327325
-0.291556
-0.257802
-0.226732
-0.491478
-0.484408
-0.470874
-0.448126
-0.417795
-0.382801
-0.346
-0.309684
-0.275295
-0.243543
-0.214656
-0.5104
-0.502926
-0.489357
-0.466669
-0.436335
-0.401186
-0.364077
-0.327278
-0.292318
-0.259934
-0.230395
-0.203669
-0.52838
-0.520514
-0.506937
-0.484358
-0.454092
-0.418867
-0.381511
-0.344323
-0.308847
-0.275887
-0.245743
-0.218408
-0.19372
-0.545394
-0.537146
-0.523589
-0.501167
-0.471037
-0.435819
-0.398295
-0.360785
-0.32486
-0.291381
-0.260682
-0.23278
-0.207528
-0.184716
-0.56142
-0.552804
-0.539289
-0.517071
-0.487145
-0.452015
-0.414404
-0.376642
-0.34034
-0.306399
-0.275196
-0.246771
-0.220995
-0.197665
-0.176561
-0.576439
-0.567468
-0.554021
-0.532051
-0.502395
-0.46743
-0.429816
-0.391879
-0.355266
-0.320925
-0.289269
-0.260367
-0.234106
-0.210294
-0.188716
-0.169148
-0.590437
-0.581126
-0.567767
-0.546089
-0.516768
-0.482046
-0.44451
-0.406477
-0.369624
-0.334944
-0.302887
-0.273555
-0.246851
-0.222594
-0.200573
-0.180571
-0.162392
-0.145958
-0.603402
-0.593766
-0.580517
-0.559171
-0.530245
-0.495845
-0.458468
-0.420419
-0.383398
-0.348441
-0.316039
-0.286324
-0.259219
-0.234553
-0.212124
-0.191716
-0.173135
-0.1563
-0.140687
-0.615327
-0.605382
-0.592261
-0.571285
-0.542816
-0.508811
-0.471677
-0.43369
-0.396574
-0.361404
-0.328714
-0.298663
-0.271199
-0.246163
-0.223359
-0.202576
-0.183621
-0.166409
-0.150459
-0.135098
-0.626209
-0.61597
-0.602995
-0.582424
-0.554467
-0.520931
-0.484121
-0.446278
-0.40914
-0.373823
-0.3409
-0.310564
-0.282783
-0.257416
-0.234271
-0.213144
-0.193842
-0.17628
-0.160015
-0.144323
-0.636046
-0.625532
-0.612718
-0.592584
-0.565192
-0.532197
-0.49579
-0.45817
-0.421086
-0.385688
-0.352589
-0.322018
-0.293965
-0.268303
-0.244853
-0.223414
-0.203794
-0.185907
-0.169351
-0.153339
-0.644844
-0.634072
-0.621433
-0.601764
-0.574987
-0.5426
-0.506675
-0.469359
-0.432403
-0.39699
-0.363774
-0.333018
-0.304738
-0.278822
-0.2551
-0.233381
-0.21347
-0.195285
-0.178467
-0.162136
-0.652609
-0.641599
-0.629146
-0.609967
-0.583851
-0.552137
-0.51677
-0.479836
-0.443084
-0.407723
-0.374449
-0.343558
-0.315096
-0.288965
-0.265008
-0.243039
-0.222868
-0.204409
-0.187367
-0.170712
-0.659353
-0.648123
-0.635867
-0.617199
-0.591785
-0.560804
-0.526069
-0.489596
-0.453122
-0.417882
-0.384609
-0.353636
-0.325035
-0.298729
-0.274572
-0.252387
-0.231986
-0.213274
-0.196049
-0.179078
-0.66509
-0.653661
-0.641611
-0.623472
-0.598796
-0.568605
-0.534572
-0.498637
-0.462515
-0.427463
-0.39425
-0.363246
-0.334553
-0.308112
-0.28379
-0.261421
-0.240822
-0.221893
-0.204464
-0.187306
-0.66984
-0.658233
-0.646394
-0.628798
-0.604892
-0.575542
-0.54228
-0.506955
-0.47126
-0.436464
-0.403371
-0.372389
-0.343647
-0.317111
-0.29266
-0.270138
-0.24937
-0.230247
-0.212631
-0.195549
-0.673624
-0.66186
-0.650239
-0.633196
-0.610086
-0.581624
-0.549194
-0.514553
-0.479356
-0.444884
-0.411971
-0.381062
-0.352318
-0.325726
-0.301181
-0.278538
-0.257629
-0.238343
-0.220564
-0.203492
-0.676468
-0.66457
-0.65317
-0.636686
-0.614394
-0.586861
-0.555322
-0.521433
-0.486805
-0.452723
-0.42005
-0.389267
-0.360565
-0.333957
-0.309353
-0.28662
-0.265599
-0.246177
-0.228242
-0.211084
-0.678401
-0.666392
-0.655215
-0.639294
-0.617834
-0.591265
-0.560672
-0.527599
-0.49361
-0.459984
-0.427611
-0.397004
-0.36839
-0.341805
-0.317177
-0.294384
-0.273278
-0.253744
-0.235671
-0.2184
-0.679454
-0.667357
-0.656405
-0.641047
-0.62043
-0.594854
-0.565254
-0.53306
-0.499775
-0.46667
-0.434655
-0.404277
-0.375796
-0.349273
-0.324655
-0.301833
-0.280668
-0.261045
-0.24286
-0.22549
-0.679662
-0.667502
-0.656776
-0.641975
-0.622208
-0.597647
-0.569082
-0.537824
-0.505306
-0.472785
-0.441187
-0.41109
-0.382786
-0.356363
-0.33179
-0.308969
-0.287771
-0.268084
-0.249813
-0.232371
-0.679063
-0.666865
-0.656363
-0.642114
-0.623194
-0.599666
-0.572173
-0.541902
-0.510213
-0.478337
-0.447212
-0.417447
-0.389364
-0.363081
-0.338586
-0.315796
-0.294592
-0.274866
-0.256533
-0.239041
-0.677697
-0.665485
-0.655206
-0.641499
-0.623423
-0.600936
-0.574544
-0.545308
-0.514504
-0.483332
-0.452737
-0.423354
-0.395537
-0.369431
-0.345047
-0.322318
-0.301135
-0.281394
-0.263021
-0.245503
-0.675604
-0.663405
-0.653349
-0.640171
-0.622927
-0.601486
-0.576218
-0.548056
-0.51819
-0.48778
-0.45777
-0.428817
-0.401309
-0.375419
-0.351179
-0.32854
-0.307405
-0.287673
-0.269283
-0.251759
-0.67283
-0.66067
-0.650833
-0.63817
-0.621745
-0.601345
-0.577217
-0.550166
-0.521286
-0.49169
-0.462317
-0.433846
-0.406689
-0.381052
-0.356989
-0.334468
-0.313406
-0.293708
-0.275322
-0.257814
-0.66942
-0.657324
-0.647704
-0.635541
-0.619914
-0.600547
-0.577568
-0.551655
-0.523804
-0.495074
-0.46639
-0.438446
-0.411684
-0.386336
-0.362482
-0.340109
-0.319146
-0.299504
-0.281142
-0.263671
-0.665419
-0.653414
-0.64401
-0.632328
-0.617478
-0.599128
-0.577299
-0.552546
-0.525762
-0.497943
-0.469998
-0.442629
-0.416303
-0.39128
-0.367667
-0.345469
-0.32463
-0.305067
-0.286749
-0.269334
-0.660876
-0.648987
-0.639796
-0.628578
-0.614478
-0.597124
-0.57644
-0.552862
-0.527176
-0.500313
-0.473152
-0.446402
-0.420553
-0.395892
-0.372551
-0.350555
-0.329864
-0.310403
-0.292149
-0.27481
-0.655839
-0.644092
-0.635113
-0.624339
-0.61096
-0.594575
-0.575024
-0.552628
-0.528066
-0.502197
-0.475865
-0.449778
-0.424445
-0.400182
-0.377143
-0.355375
-0.334856
-0.315519
-0.297347
-0.280103
-0.650357
-0.638777
-0.630008
-0.619658
-0.606969
-0.591523
-0.573086
-0.551871
-0.528453
-0.50361
-0.478148
-0.452766
-0.427989
-0.404157
-0.38145
-0.359938
-0.339614
-0.320422
-0.30235
-0.285218
-0.644477
-0.633088
-0.62453
-0.614584
-0.602552
-0.588009
-0.570661
-0.55062
-0.528359
-0.504571
-0.480015
-0.455377
-0.431194
-0.407827
-0.385483
-0.364252
-0.344146
-0.32512
-0.307165
-0.290162
-0.638248
-0.627074
-0.618725
-0.609164
-0.597755
-0.584077
-0.567786
-0.548906
-0.527807
-0.505096
-0.481479
-0.457624
-0.434072
-0.411203
-0.389251
-0.368326
-0.348459
-0.329619
-0.311797
-0.294941
-0.631717
-0.620781
-0.612641
-0.603446
-0.592626
-0.579771
-0.5645
-0.54676
-0.526822
-0.505205
-0.482557
-0.459518
-0.436631
-0.414294
-0.392762
-0.372168
-0.352562
-0.333927
-0.316256
-0.299561
-0.624929
-0.614252
-0.606323
-0.597477
-0.58721
-0.575134
-0.560844
-0.544216
-0.525429
-0.504917
-0.483262
-0.461071
-0.438884
-0.41711
-0.396026
-0.375788
-0.356465
-0.338054
-0.320548
-0.617931
-0.607533
-0.599815
-0.591302
-0.581554
-0.570212
-0.556856
-0.541306
-0.523656
-0.504253
-0.48361
-0.462297
-0.44084
-0.419661
-0.399053
-0.610765
-0.600665
-0.59316
-0.584964
-0.575702
-0.565047
-0.552578
-0.538067
-0.521532
-0.503234
-0.483617
-0.603472
-0.593688
-0.586399
-0.578505
-0.569697
-0.559684
-0.54805
-0.534533
-0.596093
-0.586639
-0.579568
-0.571965
-0.56358
-0.588664
-0.579554
-0.572705
-0.206423
-0.211153
-0.215728
-0.220153
-0.224432
-0.228568
-0.186624
-0.191007
-0.195267
-0.199409
-0.203433
-0.207344
-0.168822
-0.172879
-0.176838
-0.180701
-0.184471
-0.18815
-0.152932
-0.156673
-0.160335
-0.163921
-0.167432
-0.17087
-0.13858
-0.142028
-0.145413
-0.148735
-0.151997
-0.155198
-0.125631
-0.128802
-0.131921
-0.13499
-0.138009
-0.14098
-0.113872
-0.116786
-0.119659
-0.12249
-0.125281
-0.128033
-0.103186
-0.105862
-0.108504
-0.111113
-0.113689
-0.116234
-0.0934379
-0.0958951
-0.0983245
-0.100727
-0.103102
-0.105452
-0.0845394
-0.0867944
-0.0890268
-0.0912372
-0.0934261
-0.0955939
-0.0763849
-0.0784554
-0.0805075
-0.0825416
-0.0845583
-0.0865578
-0.0689114
-0.0708123
-0.0726981
-0.0745695
-0.0764267
-0.0782701
-0.0620444
-0.0637902
-0.0655238
-0.0672457
-0.0689562
-0.0706556
-0.0557235
-0.0573278
-0.0589223
-0.0605073
-0.062083
-0.0636498
-0.0499027
-0.0513773
-0.0528439
-0.0543029
-0.0557545
-0.057199
-0.0445312
-0.0458873
-0.0472369
-0.0485804
-0.0499181
-0.0512501
-0.0395692
-0.0408168
-0.0420594
-0.0432971
-0.0445301
-0.0457587
-0.0349794
-0.036128
-0.0372726
-0.0384133
-0.0395504
-0.0406838
-0.0307313
-0.0317892
-0.0328438
-0.0338954
-0.034944
-0.0359899
-0.0370333
-0.0267942
-0.0277689
-0.0287411
-0.0297109
-0.0306784
-0.0316438
-0.0326072
-0.0231423
-0.0240409
-0.0249375
-0.0258322
-0.0267251
-0.0276164
-0.0285062
-0.0197506
-0.0205795
-0.0214068
-0.0222327
-0.0230571
-0.0238803
-0.0247024
-0.016601
-0.0173659
-0.0181295
-0.0188919
-0.0196532
-0.0204136
-0.0211731
-0.0136731
-0.0143791
-0.015084
-0.0157881
-0.0164913
-0.0171938
-0.0178957
-0.0109492
-0.0116011
-0.0122522
-0.0129026
-0.0135523
-0.0142015
-0.0148502
-0.00841442
-0.00901658
-0.00961812
-0.0102191
-0.0108195
-0.0114196
-0.0120192
-0.00605415
-0.0066106
-0.00716652
-0.00772196
-0.00827699
-0.00883167
-0.00938606
-0.0038561
-0.00437044
-0.00488434
-0.00539783
-0.00591098
-0.00642383
-0.00693644
-0.00180883
-0.00228434
-0.00275946
-0.00323425
-0.00370873
-0.00418296
-0.00465697
9.84768e-05
-0.00034125
-0.000780638
-0.00121972
-0.00165853
-0.0020971
-0.00253546
0.00187532
0.00146859
0.00106217
0.000656043
0.000250171
-0.000155468
-0.000560903
0.00353045
0.00315417
0.00277819
0.00240248
0.00202703
0.00165181
0.0012768
0.00507185
0.00472368
0.0043758
0.00402818
0.00368083
0.00333371
0.00298682
0.00650697
0.00618475
0.0058628
0.00554114
0.00521974
0.00489859
0.00457769
0.00784246
0.00754418
0.0072462
0.00694851
0.00665109
0.00635394
0.00605705
0.00908449
0.00880836
0.00853253
0.00825699
0.00798174
0.00770677
0.00743207
0.0102388
0.00998316
0.00972779
0.00947273
0.00921796
0.00896348
0.0087093
0.0113108
0.0110741
0.0108376
0.0106014
0.0103656
0.0101301
0.00989482
0.0123054
0.012086
0.011867
0.0116484
0.01143
0.0112119
0.0109942
0.013227
0.0130238
0.0128209
0.0126184
0.0124162
0.0122143
0.0120127
0.01408
0.0138917
0.0137037
0.013516
0.0133287
0.0131417
0.0129551
0.0148682
0.0146937
0.0145194
0.0143455
0.0141719
0.0139987
0.0138258
0.0155955
0.0154336
0.015272
0.0151107
0.0149498
0.0147893
0.0146291
0.0162652
0.0161149
0.015965
0.0158154
0.0156662
0.0155173
0.0153688
0.0168805
0.016741
0.0166018
0.0164629
0.0163244
0.0161863
0.0160485
0.0174444
0.0173147
0.0171854
0.0170564
0.0169277
0.0167994
0.0166715
0.0179597
0.0178391
0.0177188
0.0175988
0.0174792
0.0173599
0.017241
0.018429
0.0183167
0.0182046
0.0180929
0.0179815
0.0178705
0.0177598
0.0188548
0.0187499
0.0186454
0.0185412
0.0184373
0.0183338
0.0182306
0.019239
0.019141
0.0190433
0.0189459
0.0188489
0.0187522
0.0186558
0.0195839
0.019492
0.0194005
0.0193093
0.0192184
0.0191278
0.0190375
0.019891
0.0198047
0.0197187
0.019633
0.0195476
0.0194625
0.0193778
0.0201621
0.0200807
0.0199996
0.0199188
0.0198383
0.0197581
0.0196783
0.0203982
0.0203212
0.0202444
0.0201679
0.0200917
0.0200158
0.0199403
0.0206007
0.0205274
0.0204544
0.0203816
0.0203092
0.020237
0.0201651
0.0207699
0.0206998
0.0206299
0.0205603
0.020491
0.020422
0.0203533
0.0209067
0.0208392
0.0207719
0.0207049
0.0206382
0.0205718
0.0205056
0.0210103
0.0209448
0.0208796
0.0208146
0.0207499
0.0206855
0.0206214
0.0210812
0.0210171
0.0209533
0.0208898
0.0208265
0.0207634
0.0207007
0.021117
0.0210538
0.0209909
0.0209283
0.0208659
0.0208038
0.0207419
-0.084004
-0.0920064
-0.0998443
-0.107517
-0.115024
-0.122359
-0.129495
-0.136497
-0.143397
-0.150051
-0.156472
-0.162702
-0.168761
-0.174648
-0.180362
-0.185905
-0.191281
-0.196491
-0.201537
-0.0778868
-0.0848763
-0.0917301
-0.0984459
-0.10502
-0.111447
-0.117711
-0.12377
-0.129743
-0.135634
-0.141361
-0.146926
-0.15235
-0.157643
-0.162803
-0.167829
-0.172722
-0.177484
-0.182118
-0.071055
-0.0772297
-0.0832859
-0.0892216
-0.0950344
-0.100722
-0.10628
-0.11171
-0.116994
-0.122376
-0.127595
-0.132622
-0.137518
-0.142308
-0.146995
-0.151573
-0.156043
-0.160406
-0.164665
-0.0652951
-0.0707553
-0.0761192
-0.0813872
-0.0865605
-0.0916399
-0.0966261
-0.101514
-0.106288
-0.110843
-0.115435
-0.119981
-0.124418
-0.128751
-0.132994
-0.137151
-0.141222
-0.145208
-0.149111
-0.0596188
-0.0644646
-0.0692287
-0.073911
-0.0785109
-0.0830276
-0.0874601
-0.0918063
-0.0960663
-0.100241
-0.104416
-0.108528
-0.112546
-0.116476
-0.120333
-0.12412
-0.127838
-0.131486
-0.135066
-0.0544608
-0.0587765
-0.0630246
-0.0672056
-0.0713204
-0.0753698
-0.0793547
-0.083276
-0.0871328
-0.0909203
-0.0946008
-0.0982763
-0.101906
-0.10547
-0.10897
-0.112412
-0.115799
-0.11913
-0.122408
-0.0495786
-0.0534302
-0.0572251
-0.0609639
-0.064647
-0.0682747
-0.0718473
-0.0753648
-0.0788267
-0.0822331
-0.0855826
-0.0889327
-0.0922309
-0.0954655
-0.0986458
-0.10178
-0.104869
-0.107914
-0.110915
-0.0450346
-0.0484827
-0.0518839
-0.055239
-0.0585487
-0.0618137
-0.065035
-0.0682134
-0.0713497
-0.0744436
-0.0774919
-0.0804624
-0.0834278
-0.0863681
-0.0892674
-0.0921251
-0.0949445
-0.0977274
-0.100474
-0.0407648
-0.0438572
-0.0469103
-0.0499247
-0.0529009
-0.0558395
-0.0587407
-0.0616049
-0.0644322
-0.0672223
-0.0699749
-0.0726871
-0.0753991
-0.0780772
-0.080716
-0.0833204
-0.0858938
-0.0884377
-0.0909523
-0.0367614
-0.0395412
-0.0422884
-0.0450036
-0.0476872
-0.0503401
-0.0529626
-0.0555554
-0.0581192
-0.0606544
-0.0631612
-0.0656383
-0.0680794
-0.0705051
-0.072908
-0.0752841
-0.0776342
-0.0799597
-0.0822613
-0.0329987
-0.0355021
-0.0379784
-0.040428
-0.0428514
-0.0452491
-0.0476216
-0.0499693
-0.0522927
-0.0545921
-0.0568675
-0.0591184
-0.0613374
-0.0635471
-0.0657398
-0.0679102
-0.0700588
-0.072187
-0.0742955
-0.0294599
-0.0317184
-0.0339543
-0.036168
-0.0383597
-0.04053
-0.0426793
-0.0448078
-0.0469159
-0.0490038
-0.0510717
-0.0531195
-0.0551459
-0.0571678
-0.0591702
-0.061152
-0.0631159
-0.0650635
-0.0669953
-0.0261292
-0.0281704
-0.0301928
-0.0321967
-0.0341826
-0.0361506
-0.0381014
-0.0400351
-0.0419523
-0.0438532
-0.0457382
-0.0476076
-0.0494609
-0.0512968
-0.0531219
-0.0549338
-0.0567315
-0.0585154
-0.0602862
-0.0229923
-0.0248402
-0.0266725
-0.0284893
-0.0302912
-0.0320783
-0.033851
-0.0356097
-0.0373546
-0.0390861
-0.0408043
-0.0425095
-0.0442013
-0.0458745
-0.047542
-0.0492009
-0.0508485
-0.0524843
-0.0541091
-0.0200361
-0.0217115
-0.0233739
-0.0250235
-0.0266606
-0.0282854
-0.0298983
-0.0314994
-0.0330891
-0.0346676
-0.0362351
-0.0377918
-0.0393378
-0.0408721
-0.0424005
-0.0439197
-0.045429
-0.0469289
-0.04842
-0.0172493
-0.0187707
-0.0202812
-0.0217811
-0.0232706
-0.0247499
-0.0262192
-0.0276788
-0.0291288
-0.0305693
-0.0320006
-0.0334227
-0.0348358
-0.0362397
-0.0376452
-0.0390395
-0.0404233
-0.0417993
-0.0431686
-0.014622
-0.0160056
-0.0173803
-0.0187462
-0.0201036
-0.0214527
-0.0227937
-0.0241267
-0.0254521
-0.0267701
-0.0280809
-0.0293849
-0.0306821
-0.0319725
-0.0332485
-0.0345226
-0.035793
-0.0370577
-0.0383163
-0.0121439
-0.013404
-0.0146567
-0.0159021
-0.0171405
-0.0183719
-0.0195967
-0.0208148
-0.0220265
-0.023232
-0.0244313
-0.0256247
-0.0268122
-0.0279937
-0.0291679
-0.030339
-0.0315063
-0.0326688
-0.0338264
-0.00980638
-0.0109555
-0.0120985
-0.0132356
-0.0143667
-0.0154922
-0.0166121
-0.0177266
-0.0188358
-0.0199399
-0.0210389
-0.0221331
-0.0232225
-0.0243072
-0.0253869
-0.0264635
-0.0275363
-0.0286051
-0.02967
-0.00760167
-0.00865102
-0.00969533
-0.0107347
-0.0117693
-0.0127992
-0.0138245
-0.0148453
-0.0158618
-0.0168741
-0.0178823
-0.0188864
-0.0198867
-0.0208832
-0.0218758
-0.0228664
-0.0238533
-0.0248365
-0.0258168
-0.00552214
-0.00648158
-0.00743689
-0.00838815
-0.00933546
-0.0102789
-0.0112186
-0.0121546
-0.0130871
-0.0140161
-0.0149417
-0.0158641
-0.0167833
-0.0176995
-0.0186127
-0.0195247
-0.0204334
-0.0213388
-0.0222417
-0.00356133
-0.00443971
-0.0053147
-0.0061864
-0.00705487
-0.0079202
-0.00878247
-0.00964175
-0.0104982
-0.0113518
-0.0122026
-0.0130509
-0.0138967
-0.01474
-0.0155808
-0.0164169
-0.0172525
-0.0180871
-0.0189198
-0.00171231
-0.00251737
-0.00331966
-0.00411924
-0.00491618
-0.00571055
-0.00650239
-0.00729178
-0.0080788
-0.0088635
-0.00964596
-0.0104262
-0.0112044
-0.0119806
-0.0127548
-0.0135268
-0.0142975
-0.0150669
-0.0158347
3.05172e-05
-0.000708194
-0.00144466
-0.00217891
-0.00291102
-0.00364101
-0.00436896
-0.0050949
-0.00581891
-0.00654103
-0.00726133
-0.00797986
-0.0086967
-0.00941189
-0.0101255
-0.0108375
-0.0115482
-0.0122578
-0.012966
0.00167289
0.000994332
0.000317608
-0.000357321
-0.00103049
-0.00170195
-0.00237172
-0.00303987
-0.00370642
-0.00437143
-0.00503496
-0.00569704
-0.00635774
-0.00701711
-0.00767519
-0.008332
-0.00898791
-0.0096427
-0.0102964
0.00321992
0.00259599
0.00197354
0.00135255
0.000732997
0.000114844
-0.000501936
-0.00111738
-0.00173152
-0.00234439
-0.00295604
-0.00356649
-0.0041758
-0.004784
-0.00539114
-0.00599726
-0.00660323
-0.00720796
-0.00781159
0.00467646
0.00410218
0.00352911
0.00295722
0.00238649
0.0018169
0.00124843
0.00068105
0.000114727
-0.000450568
-0.00101487
-0.00157821
-0.00214063
-0.00270217
-0.00326285
-0.00382272
-0.00438128
-0.00493943
-0.00549709
0.00604717
0.00551813
0.00499006
0.00446296
0.0039368
0.00341159
0.00288728
0.00236388
0.00184135
0.00131968
0.000798831
0.000278786
-0.000240485
-0.000759012
-0.00127682
-0.00179393
-0.00231008
-0.00282585
-0.00334123
0.00733632
0.00684854
0.00636155
0.00587535
0.00538992
0.00490527
0.00442137
0.00393821
0.00345579
0.00297407
0.00249305
0.00201269
0.00153299
0.00105392
0.000575453
9.75699e-05
-0.000379683
-0.000856502
-0.00133289
0.00854795
0.00809785
0.0076484
0.00719959
0.00675143
0.0063039
0.005857
0.00541072
0.00496506
0.00451999
0.0040755
0.00363158
0.00318822
0.00274539
0.00230308
0.00186127
0.00141997
0.000979069
0.000538575
0.00968584
0.00927021
0.00885511
0.00844055
0.00802651
0.00761301
0.00720004
0.00678759
0.00637565
0.00596423
0.00555331
0.00514287
0.00473292
0.00432343
0.00391439
0.00350579
0.00309762
0.00268982
0.00228239
0.0107536
0.0103695
0.00998589
0.00960271
0.00921998
0.0088377
0.00845586
0.00807448
0.00769353
0.00731303
0.00693297
0.00655333
0.00617412
0.00579531
0.00541691
0.0050389
0.00466128
0.00428398
0.00390705
0.0117546
0.0113994
0.0110447
0.0106903
0.0103363
0.00998271
0.00962949
0.00927666
0.00892422
0.00857216
0.0082205
0.00786921
0.00751831
0.00716777
0.00681761
0.0064678
0.00611835
0.00576915
0.00542033
0.012692
0.0123634
0.0120352
0.0117073
0.0113797
0.0110524
0.0107255
0.010399
0.0100728
0.0097469
0.00942139
0.00909622
0.0087714
0.00844693
0.00812279
0.007799
0.00747553
0.00715235
0.0068295
0.0135689
0.0132647
0.0129609
0.0126573
0.012354
0.012051
0.0117483
0.0114459
0.0111439
0.0108421
0.0105407
0.0102396
0.00993883
0.00963837
0.00933824
0.00903842
0.00873892
0.00843986
0.00814103
0.0143881
0.0141064
0.013825
0.0135438
0.0132629
0.0129823
0.0127019
0.0124218
0.012142
0.0118625
0.0115833
0.0113045
0.0110259
0.0107476
0.0104696
0.010192
0.00991465
0.00963764
0.00936092
0.0151525
0.0148915
0.0146307
0.0143702
0.0141099
0.0138498
0.01359
0.0133305
0.0130712
0.0128123
0.0125536
0.0122952
0.0120371
0.0117793
0.0115218
0.0112646
0.0110077
0.0107511
0.0104948
0.0158646
0.0156227
0.0153809
0.0151394
0.0148981
0.014657
0.0144162
0.0141756
0.0139353
0.0136953
0.0134555
0.013216
0.0129768
0.0127379
0.0124993