/*--------------------------------*- C++ -*----------------------------------*\
  =========                 |
  \\      /  F ield         | OpenFOAM: The Open Source CFD Toolbox
   \\    /   O peration     | Website:  https://openfoam.org
    \\  /    A nd           | Version:  7
     \\/     M anipulation  |
\*---------------------------------------------------------------------------*/
FoamFile
{
    version     2.0;
    format      ascii;
    class       surfaceScalarField;
    location    "260";
    object      phi;
}
// * * * * * * * * * * * * * * * * * * * * * * * * * * * * * * * * * * * * * //

dimensions      [0 3 -1 0 0 0 0];

internalField   nonuniform List<scalar> 
8882
(
5.76518e-06
-5.3673e-05
2.34608e-05
-0.00019711
-0.000382075
6.05725e-06
-5.97303e-05
2.44808e-05
-0.000215533
5.58371e-05
-0.000413431
0.000100163
-0.000652537
-0.000928826
6.34458e-06
-6.60749e-05
2.5468e-05
-0.000234657
5.77618e-05
-0.000445725
0.000103027
-0.000697803
0.000160159
-0.000985958
0.000226971
-0.0013016
0.000300262
-0.001633
-0.00196665
6.62529e-06
-7.27001e-05
2.64154e-05
-0.000254447
5.95708e-05
-0.000478881
0.000105643
-0.000743875
0.000163227
-0.00104354
0.00022983
-0.0013682
0.000302006
-0.00170517
0.000375764
-0.00204041
0.000447168
-0.00236059
0.00051293
-0.00265523
0.000570842
-0.00291802
-0.00314718
6.8975e-06
-7.95976e-05
2.7316e-05
-0.000274866
6.12501e-05
-0.000512815
0.000107989
-0.000790613
0.000165824
-0.00110138
0.000231971
-0.00143435
0.000302768
-0.00177597
0.000374155
-0.00211179
0.000442293
-0.00242873
0.00050414
-0.00271708
0.00055781
-0.00297169
0.000602651
-0.00319202
0.000639067
-0.0033813
0.000668189
-0.00354521
-0.00369045
7.15935e-06
-8.6757e-05
2.81631e-05
-0.000295869
6.27864e-05
-0.000547438
0.000110046
-0.000837872
0.000167931
-0.00115926
0.000233381
-0.0014998
0.000302554
-0.00184514
0.000371361
-0.0021806
0.000436103
-0.00249347
0.000494005
-0.00277498
0.000543504
-0.00302119
0.000584253
-0.00323277
0.000616886
-0.00341393
0.000642665
-0.00357099
0.000663117
-0.0037109
0.000679742
-0.00384019
0.00069382
-0.00396428
0.000706328
-0.00408717
-0.00421143
7.40902e-06
-9.4166e-05
2.89504e-05
-0.000317411
6.41673e-05
-0.000582655
0.000111796
-0.000885501
0.00016953
-0.001217
0.000234052
-0.00156432
0.000301374
-0.00191247
0.000367424
-0.00224665
0.000428673
-0.00255472
0.000482628
-0.00282894
0.000528047
-0.00306661
0.000564864
-0.00326959
0.00059391
-0.00344298
0.000616545
-0.00359362
0.000634302
-0.00372865
0.00064862
-0.00385451
0.000660689
-0.00397635
0.000671386
-0.00409786
0.000681296
-0.00422134
-0.00434799
0.000690719
7.64471e-06
-0.000101811
2.96719e-05
-0.000339438
6.53819e-05
-0.000618365
0.000113227
-0.000933347
0.00017061
-0.00127438
0.000233982
-0.00162769
0.000299249
-0.00197773
0.00036239
-0.00230979
0.000420079
-0.00261241
0.000470114
-0.00287897
0.00051156
-0.00310806
0.000544609
-0.00330263
0.000570259
-0.00346863
0.000589936
-0.0036133
0.000605157
-0.00374388
0.000617294
-0.00386665
0.000627441
-0.0039865
0.00063638
-0.0041068
0.000644619
-0.00422958
-0.00435577
0.000652397
7.86474e-06
-0.000109675
3.0322e-05
-0.000361895
6.64204e-05
-0.000654463
0.000114326
-0.000981252
0.000171163
-0.00133122
0.000233177
-0.0016897
0.000296205
-0.00204076
0.000356314
-0.0023699
0.000410402
-0.0026665
0.000456565
-0.00292514
0.00049416
-0.00314565
0.000523607
-0.00333208
0.000546041
-0.00349106
0.000562931
-0.00363019
0.000575761
-0.00375671
0.000585824
-0.00387671
0.000594121
-0.00399479
0.000601346
-0.00411403
0.000607934
-0.00423617
-0.00436191
0.000614076
8.06746e-06
-0.000117743
3.08956e-05
-0.000384723
6.72742e-05
-0.000690842
0.000115084
-0.00102906
0.000171186
-0.00138732
0.000231648
-0.00175017
0.000292275
-0.00210139
0.000349254
-0.00242688
0.000399727
-0.00271697
0.000442084
-0.00296749
0.000475955
-0.00317952
0.000501965
-0.00335809
0.000521357
-0.00351045
0.000535617
-0.00364445
0.000546181
-0.00376727
0.000554261
-0.00388479
0.000560768
-0.0040013
0.000566313
-0.00411957
0.000571267
-0.00424112
-0.00436642
0.000575778
8.25136e-06
-0.000125994
3.13881e-05
-0.00040786
6.79364e-05
-0.00072739
0.000115496
-0.00107662
0.00017068
-0.0014425
0.000229412
-0.0018089
0.000287497
-0.00215947
0.000341273
-0.00248066
0.000388137
-0.00276383
0.000426767
-0.00300612
0.00045705
-0.00320981
0.000479784
-0.00338083
0.000496294
-0.00352696
0.000508065
-0.00365622
0.000516476
-0.00377568
0.000522652
-0.00389097
0.000527416
-0.00400606
0.000531308
-0.00412347
0.000534638
-0.00424445
-0.0043693
0.00053752
8.41504e-06
-0.000134409
3.17957e-05
-0.000431241
6.84014e-05
-0.000763996
0.000115557
-0.00112378
0.000169651
-0.0014966
0.00022649
-0.00186574
0.000281913
-0.00221489
0.000332435
-0.00253118
0.000375715
-0.00280711
0.00041071
-0.00304112
0.000437541
-0.00323664
0.000457155
-0.00340044
0.000470933
-0.00354074
0.000480342
-0.00366563
0.000486696
-0.00378203
0.000491033
-0.0038953
0.000494095
-0.00400913
0.000496352
-0.00412572
0.000498067
-0.00424616
-0.00437056
0.000499322
8.55824e-06
-0.000142968
3.21169e-05
-0.000454799
6.86684e-05
-0.000800547
0.000115272
-0.00117038
0.000168112
-0.00154944
0.000222912
-0.00192054
0.000275575
-0.00226756
0.000322812
-0.00257842
0.000362549
-0.00284685
0.000394011
-0.00307258
0.000417526
-0.00326015
0.000434168
-0.00341708
0.000445352
-0.00355193
0.000452513
-0.00367279
0.000456893
-0.00378641
0.000459446
-0.00389786
0.000460837
-0.00401052
0.000461475
-0.00412636
0.000461579
-0.00424627
-0.00437019
0.000461207
8.6779e-06
-0.000151645
3.23451e-05
-0.000478467
6.87287e-05
-0.000836931
0.000114635
-0.00121629
0.000166067
-0.00160087
0.000218695
-0.00197317
0.000268518
-0.00231738
0.000312457
-0.00262236
0.000348705
-0.0028831
0.000376737
-0.00310061
0.000397073
-0.00328049
0.000410882
-0.00343089
0.000419599
-0.00356064
0.000424613
-0.0036778
0.000427091
-0.00378889
0.000427907
-0.00389867
0.000427651
-0.00401026
0.00042668
-0.00412539
0.000425176
-0.00424476
-0.00436819
0.000423177
8.774e-06
-0.000160419
3.24801e-05
-0.000502173
6.8584e-05
-0.000873035
0.000113653
-0.00126136
0.000163535
-0.00165075
0.000213877
-0.00202351
0.000260798
-0.0023643
0.000301442
-0.002663
0.000334265
-0.00291592
0.000358978
-0.00312533
0.000376265
-0.00329777
0.000387374
-0.003442
0.000393738
-0.00356701
0.000396694
-0.00368076
0.000397332
-0.00378953
0.000396447
-0.00389779
0.000394564
-0.00400838
0.000391992
-0.00412282
0.000388881
-0.00424165
-0.00436456
0.000385254
8.84572e-06
-0.000169265
3.25204e-05
-0.000525847
6.82346e-05
-0.000908749
0.000112333
-0.00130545
0.000160534
-0.00169895
0.000208492
-0.00207147
0.000252465
-0.00240827
0.000289831
-0.00270037
0.000319302
-0.00294539
0.000340807
-0.00314683
0.000355173
-0.00331214
0.000363703
-0.00345053
0.000367818
-0.00357112
0.000368795
-0.00368174
0.000367645
-0.00378838
0.00036509
-0.00389523
0.000361594
-0.00400488
0.000357426
-0.00411865
0.000352708
-0.00423693
-0.00435931
0.000347453
8.89238e-06
-0.000178158
3.24651e-05
-0.00054942
6.76821e-05
-0.000943966
0.000110684
-0.00134846
0.000157085
-0.00174535
0.000202574
-0.00211696
0.000243569
-0.00244927
0.000277687
-0.00273449
0.000303885
-0.00297159
0.000322293
-0.00316524
0.000333858
-0.0033237
0.000339924
-0.0034566
0.000341883
-0.00357308
0.000340949
-0.0036808
0.000338057
-0.00378549
0.000333856
-0.00389103
0.000328759
-0.00399979
0.000322997
-0.00411289
0.000316671
-0.00423061
-0.00435242
0.000309788
8.91345e-06
-0.000187071
3.23141e-05
-0.000572821
6.69294e-05
-0.000978581
0.000108715
-0.00139024
0.000153209
-0.00178984
0.000196159
-0.00215991
0.000234161
-0.00248727
0.00026507
-0.00276539
0.000288079
-0.0029946
0.0003035
-0.00318066
0.00031238
-0.00333258
0.000316085
-0.0034603
0.000315973
-0.00357297
0.000313188
-0.00367802
0.00030859
-0.00378089
0.000302763
-0.0038852
0.000296073
-0.00399309
0.000288718
-0.00410553
0.000280782
-0.00422267
-0.00434391
0.00027227
8.90859e-06
-0.00019598
3.20676e-05
-0.00059598
6.59804e-05
-0.00101249
0.000106439
-0.0014307
0.00014893
-0.00183234
0.000189286
-0.00220026
0.00022429
-0.00252228
0.000252038
-0.00279314
0.000271945
-0.0030145
0.000284486
-0.0031932
0.000290789
-0.00333889
0.00029223
-0.00346174
0.00029012
-0.00357086
0.000285536
-0.00367343
0.000279265
-0.00377462
0.000271829
-0.00387777
0.00026355
-0.00398482
0.000254602
-0.00409659
0.000245053
-0.00421312
-0.00433377
0.000234913
8.87761e-06
-0.000204857
3.17266e-05
-0.000618829
6.48401e-05
-0.00104561
0.000103868
-0.00146973
0.000144273
-0.00187274
0.00018199
-0.00223798
0.000214005
-0.00255429
0.000238645
-0.00281778
0.000255539
-0.0030314
0.000265304
-0.00320297
0.000269133
-0.00334272
0.000268397
-0.00346101
0.000264357
-0.00356682
0.000258019
-0.0036671
0.0002501
-0.0037667
0.000241068
-0.00386874
0.000231205
-0.00397495
0.000220661
-0.00408604
0.000209495
-0.00420195
-0.00432201
0.000197727
8.82047e-06
-0.000213678
3.12926e-05
-0.000641301
6.35147e-05
-0.00107783
0.000101017
-0.00150723
0.000139263
-0.00191099
0.00017431
-0.00227303
0.000203351
-0.00258333
0.000224945
-0.00283938
0.000238914
-0.00304537
0.000246003
-0.00321006
0.000247453
-0.00334417
0.00024462
-0.00345817
0.000238709
-0.00356091
0.000230657
-0.00365904
0.000221114
-0.00375716
0.000210495
-0.00385812
0.00019905
-0.00396351
0.000186908
-0.0040739
0.000174119
-0.00418916
-0.0043086
0.000160718
8.73729e-06
-0.000222415
3.07674e-05
-0.000663331
6.20107e-05
-0.00110907
9.79012e-05
-0.00154312
0.000133926
-0.00194701
0.000166282
-0.00230538
0.000192374
-0.00260942
0.000210985
-0.00285799
0.000222118
-0.0030565
0.000226627
-0.00321457
0.000225788
-0.00334333
0.00022093
-0.00345331
0.000213201
-0.00355318
0.000203469
-0.00364931
0.00019232
-0.00374601
0.000180124
-0.00384592
0.000167097
-0.00395048
0.000153352
-0.00406016
0.000138937
-0.00417475
-0.00429356
0.000123891
8.62833e-06
-0.000231043
3.01535e-05
-0.000684856
6.03359e-05
-0.00113926
9.45361e-05
-0.00157732
0.000128287
-0.00198076
0.000157941
-0.00233504
0.000181117
-0.0026326
0.000196813
-0.00287368
0.000205197
-0.00306488
0.000207218
-0.00321659
0.00020417
-0.00334028
0.000197354
-0.0034465
0.000187854
-0.00354368
0.000176472
-0.00363793
0.000163734
-0.00373327
0.000149968
-0.00383215
0.00013536
-0.00393587
0.000120006
-0.0040448
0.00010396
-0.0041587
-0.00427684
8.72411e-05
8.49396e-06
-0.000239537
2.94536e-05
-0.000705816
5.84983e-05
-0.0011683
9.09381e-05
-0.00160976
0.000122373
-0.0020122
0.000149322
-0.00236198
0.00016962
-0.0026529
0.00018247
-0.00288653
0.000188191
-0.0030706
0.000187809
-0.0032162
0.000182631
-0.0033351
0.000173915
-0.00343778
0.000162687
-0.00353245
0.000149681
-0.00362492
0.00013537
-0.00371896
0.000120041
-0.00381683
0.000103855
-0.00391969
8.68897e-05
-0.00402784
6.91873e-05
-0.004141
-0.00425841
5.07577e-05
8.33471e-06
-0.000247872
2.86709e-05
-0.000726152
5.65064e-05
-0.00119614
8.71239e-05
-0.00164038
0.000116209
-0.00204128
0.000140459
-0.00238623
0.000157922
-0.00267036
0.000167996
-0.00289661
0.000171137
-0.00307375
0.000168435
-0.0032135
0.000161196
-0.00332786
0.000150636
-0.00342722
0.000137716
-0.00351953
0.00012311
-0.00361032
0.000107239
-0.00370309
9.03553e-05
-0.00379994
7.26012e-05
-0.00390193
5.40514e-05
-0.00400929
3.46336e-05
-0.00412158
-0.004238
1.42278e-05
8.15117e-06
-0.000256023
2.78087e-05
-0.00074581
5.43693e-05
-0.0012227
8.31101e-05
-0.00166912
0.000109821
-0.00206799
0.000131384
-0.0024078
0.000146059
-0.00268504
0.000153428
-0.00290398
0.00015407
-0.00307439
0.000149125
-0.00320856
0.00013989
-0.00331863
0.000127534
-0.00341486
0.000112957
-0.00350496
9.67716e-05
-0.00359413
7.93526e-05
-0.00368567
6.09185e-05
-0.00378151
4.15978e-05
-0.00388261
2.15137e-05
-0.0039892
9.45403e-07
-0.00410101
-0.00421558
-2.14797e-05
7.94409e-06
-0.000263967
2.68708e-05
-0.000764736
5.20962e-05
-0.00124792
7.89134e-05
-0.00169594
0.000103233
-0.00209231
0.000122127
-0.00242669
0.000134064
-0.00269697
0.000138799
-0.00290871
0.00013702
-0.00307261
0.000129905
-0.00320144
0.000118734
-0.00330746
0.000104628
-0.00340076
8.84237e-05
-0.00348875
7.06775e-05
-0.00357638
5.17207e-05
-0.00366671
3.17416e-05
-0.00376153
1.08545e-05
-0.00386173
-1.08542e-05
-0.00396749
-3.34639e-05
-0.00407841
-0.00419233
-5.67146e-05
7.71427e-06
-0.000271681
2.5861e-05
-0.000782883
4.96966e-05
-0.00127176
7.45506e-05
-0.00172079
9.64684e-05
-0.00211423
0.000112718
-0.00244294
0.00012197
-0.00270622
0.000124142
-0.00291088
0.000120015
-0.00306848
0.000110798
-0.00319223
9.77479e-05
-0.00329441
8.1931e-05
-0.00338494
6.41272e-05
-0.00347095
4.4838e-05
-0.00355709
2.43541e-05
-0.00364623
2.8347e-06
-0.00374001
-1.9611e-05
-0.00383928
-4.29086e-05
-0.0039442
-6.70905e-05
-0.00405422
-0.0041675
-9.19153e-05
7.46258e-06
-0.000279144
2.47833e-05
-0.000800204
4.71799e-05
-0.00129415
7.00378e-05
-0.00174365
8.95504e-05
-0.00213374
0.000103184
-0.00245657
0.000109806
-0.00271285
0.000109483
-0.00291056
0.000103081
-0.00306208
9.18266e-05
-0.00318097
7.69473e-05
-0.00327953
5.94576e-05
-0.00336745
4.00792e-05
-0.00345157
1.92626e-05
-0.00353628
-2.74197e-06
-0.00362422
-2.57883e-05
-0.00371696
-4.97941e-05
-0.00381527
-7.46829e-05
-0.00391931
-0.000100423
-0.00402848
-0.00414104
-0.000126889
7.18999e-06
-0.000286334
2.36421e-05
-0.000816656
4.45557e-05
-0.00131507
6.53912e-05
-0.00176448
8.25009e-05
-0.00215085
9.35517e-05
-0.00246763
9.75998e-05
-0.0027169
9.48503e-05
-0.00290781
8.62411e-05
-0.00305347
7.30084e-05
-0.00316774
5.63476e-05
-0.00326287
3.72193e-05
-0.00334832
1.62892e-05
-0.00343064
-6.03967e-06
-0.00351395
-2.95463e-05
-0.00360072
-5.41223e-05
-0.00369239
-7.96849e-05
-0.00378971
-0.000106158
-0.00389283
-0.000133478
-0.00400116
-0.00411293
-0.000161582
6.89751e-06
-0.000293232
2.24415e-05
-0.0008322
4.18334e-05
-0.00133446
6.06262e-05
-0.00178328
7.53408e-05
-0.00216557
8.38446e-05
-0.00247613
8.53755e-05
-0.00271843
8.0266e-05
-0.0029027
6.95149e-05
-0.00304272
5.43607e-05
-0.00315258
3.59622e-05
-0.00324447
1.52267e-05
-0.00332759
-7.2336e-06
-0.00340818
-3.10572e-05
-0.00349013
-5.60624e-05
-0.00357571
-8.21573e-05
-0.00366629
-0.000109272
-0.0037626
-0.000137327
-0.00386478
-0.00016624
-0.00397225
-0.000195972
6.58617e-06
-0.000299818
2.11858e-05
-0.000846799
3.90225e-05
-0.0013523
5.57579e-05
-0.00180001
6.809e-05
-0.0021779
7.40858e-05
-0.00248212
7.31567e-05
-0.0027175
6.57521e-05
-0.0028953
5.29213e-05
-0.00302989
3.58983e-05
-0.00313556
1.58029e-05
-0.00322437
-6.51087e-06
-0.00330527
-3.0479e-05
-0.00338421
-5.5786e-05
-0.00346482
-8.22778e-05
-0.00354922
-0.000109884
-0.00363869
-0.000138546
-0.00373393
-0.000168181
-0.00383515
6.25708e-06
-0.000306075
1.98794e-05
-0.000860422
3.61322e-05
-0.00136855
5.08008e-05
-0.00181468
6.07674e-05
-0.00218787
6.42965e-05
-0.00248565
6.09648e-05
-0.00271417
5.1328e-05
-0.00288566
3.64766e-05
-0.00301504
1.76348e-05
-0.00311672
-4.12034e-06
-0.00320262
-2.7983e-05
-0.00328141
-5.3442e-05
-0.00335875
-8.02174e-05
-0.00343804
-0.000108184
-0.00352125
-0.000137292
-0.00360958
-0.000167496
5.91135e-06
-0.000311986
1.85267e-05
-0.000873037
3.31714e-05
-0.00138319
4.57689e-05
-0.00182728
5.33908e-05
-0.00219549
5.44963e-05
-0.00248676
4.88193e-05
-0.00270849
3.70114e-05
-0.00287385
2.01956e-05
-0.00299822
-4.20639e-07
-0.0030961
-2.37963e-05
-0.00317924
-4.91843e-05
-0.00325602
-7.6115e-05
-0.00333182
-0.000104344
-0.00340981
-0.000133774
-0.00349182
5.55011e-06
-0.000317536
1.71318e-05
-0.000884619
3.01489e-05
-0.00139621
4.06754e-05
-0.0018378
4.59769e-05
-0.00220079
4.47036e-05
-0.00248549
3.67381e-05
-0.00270052
2.28181e-05
-0.00285993
4.09232e-06
-0.0029795
-1.82502e-05
-0.00307376
-4.32183e-05
-0.00315428
-7.01071e-05
-0.00322913
-9.84914e-05
-0.00330344
-0.00012816
-0.00338014
5.17454e-06
-0.000322711
1.56992e-05
-0.000895143
2.70734e-05
-0.00140758
3.55331e-05
-0.00184626
3.85414e-05
-0.0022038
3.49354e-05
-0.00248188
2.47374e-05
-0.00269032
8.76298e-06
-0.00284396
-1.18223e-05
-0.00295891
-3.58522e-05
-0.00304973
-6.23788e-05
-0.00312775
-9.07452e-05
-0.00320077
-0.000120566
-0.00327362
4.78583e-06
-0.000327497
1.42329e-05
-0.00090459
2.39529e-05
-0.0014173
3.0354e-05
-0.00185267
3.10991e-05
-0.00220454
2.52079e-05
-0.00247599
1.28314e-05
-0.00267795
-5.14085e-06
-0.00282598
-2.75374e-05
-0.00293651
-5.32154e-05
-0.00302405
-8.12712e-05
-0.00309969
-0.000111093
-0.00317095
4.38527e-06
-0.000331882
1.27373e-05
-0.000912942
2.07955e-05
-0.00142536
2.51495e-05
-0.00185702
2.36639e-05
-0.00220306
1.55361e-05
-0.00246786
1.05214e-06
-0.00266346
-1.88825e-05
-0.00280605
-4.30442e-05
-0.00291235
-7.03328e-05
-0.00299676
-9.98895e-05
-0.00307014
3.97423e-06
-0.000335856
1.12163e-05
-0.000920185
1.76088e-05
-0.00143176
1.99305e-05
-0.00185934
1.62487e-05
-0.00219938
5.93269e-06
-0.00245755
-1.06397e-05
-0.00264689
-3.24542e-05
-0.00278424
-5.83342e-05
-0.00288647
-8.7198e-05
-0.0029679
3.55439e-06
-0.000339411
9.67428e-06
-0.000926304
1.44003e-05
-0.00143648
1.47085e-05
-0.00185965
8.86489e-06
-0.00219353
-3.58859e-06
-0.00244509
-2.21815e-05
-0.0026283
-4.58434e-05
-0.00276057
-7.33998e-05
-0.00285892
3.12791e-06
-0.000342538
8.11505e-06
-0.000931292
1.11767e-05
-0.00143954
9.49372e-06
-0.00185797
1.55212e-06
-0.00218559
-1.30317e-05
-0.00243051
-3.35836e-05
-0.00260775
-5.90423e-05
-0.00273511
2.69492e-06
-0.000345233
6.54235e-06
-0.000935139
7.94635e-06
-0.00144095
4.29131e-06
-0.00185431
-5.76334e-06
-0.00217554
-2.23698e-05
-0.0024139
-4.48348e-05
-0.00258528
2.25595e-06
-0.000347489
4.95928e-06
-0.000937842
4.71611e-06
-0.0014407
-8.46974e-07
-0.00184875
-1.29908e-05
-0.00216339
-3.15981e-05
-0.00239529
1.8119e-06
-0.000349301
3.36967e-06
-0.0009394
1.49322e-06
-0.00143883
-6.04906e-06
-0.00184121
-2.01535e-05
-0.00214929
1.36282e-06
-0.000350664
1.77337e-06
-0.000939811
-1.7353e-06
-0.00143532
-1.11659e-05
-0.00183177
-0.00213322
9.06667e-07
-0.000351571
1.73027e-07
-0.000939077
-4.96127e-06
-0.00143018
-1.62395e-05
-0.0018205
4.28484e-07
-0.000351999
-1.43083e-06
-0.000937218
-8.15749e-06
-0.00142346
-9.8695e-08
-0.0003519
-3.03519e-06
-0.000934281
-0.00141516
-5.04995e-07
-0.000351395
-4.62027e-06
-0.000930166
-9.53115e-07
-0.000350442
-0.000349032
0.000372816
0.000374156
-8.77438e-07
0.000375033
0.000993306
-4.29261e-07
0.000375463
-4.51183e-06
0.000997389
0.00151008
-7.65658e-09
0.00037547
-2.90209e-06
0.00100028
0.00151854
5.3831e-07
0.000374932
-1.27059e-06
0.00100209
-8.16139e-06
0.00152543
0.00193946
1.02232e-06
0.00037391
3.60256e-07
0.00100275
-4.92235e-06
0.00153072
-1.66317e-05
0.00195117
0.0022685
1.48875e-06
0.000372421
1.99171e-06
0.00100225
-1.64419e-06
0.00153435
-1.15052e-05
0.00196104
-2.82682e-05
0.00228527
0.00252015
1.94919e-06
0.000370472
3.62088e-06
0.00100058
1.63506e-06
0.00153634
-6.32757e-06
0.001969
-2.1134e-05
0.00230007
0.0025416
2.40546e-06
0.000368066
5.24626e-06
0.000997739
4.91433e-06
0.00153667
-1.05546e-06
0.00197497
-1.391e-05
0.00231293
-3.34295e-05
0.00256112
0.0027374
2.85772e-06
0.000365209
6.86863e-06
0.000993728
8.20932e-06
0.00153533
4.16333e-06
0.00197901
-6.61145e-06
0.0023237
-2.41466e-05
0.00257865
-4.76631e-05
0.00276091
0.00289023
3.3052e-06
0.000361903
8.48409e-06
0.000988549
1.15108e-05
0.0015323
9.45317e-06
0.00198107
8.25181e-07
0.00233233
-1.47387e-05
0.00259421
-3.6377e-05
0.00278255
-6.29486e-05
0.0029168
0.00301555
3.7464e-06
0.000358157
1.00893e-05
0.000982206
1.48124e-05
0.00152758
1.47628e-05
0.00198112
8.20454e-06
0.00233889
-5.22118e-06
0.00260764
-2.49254e-05
0.00280226
-4.97395e-05
0.00294161
-7.842e-05
0.00304423
0.0031255
4.18145e-06
0.000353975
1.1681e-05
0.000974706
1.81064e-05
0.00152115
2.00935e-05
0.00197913
1.57046e-05
0.00234328
4.4053e-06
0.00261894
-1.33177e-05
0.00281998
-3.63252e-05
0.00296462
-6.33711e-05
0.00307128
-9.3346e-05
0.00315547
0.00322863
4.60918e-06
0.000349366
1.32555e-05
0.00096606
2.13868e-05
0.00151302
2.54346e-05
0.00197509
2.32495e-05
0.00234546
1.41187e-05
0.00262807
-1.54452e-06
0.00283564
-2.27115e-05
0.00298579
-4.80828e-05
0.00309665
-7.65241e-05
0.00318392
-0.000107177
0.00325928
0.00333047
5.02768e-06
0.000344339
1.48089e-05
0.000956279
2.46463e-05
0.00150319
3.07745e-05
0.00196896
3.08315e-05
0.00234541
2.39253e-05
0.00263498
1.03405e-05
0.00284923
-8.90927e-06
0.00300504
-3.25607e-05
0.0031203
-5.9435e-05
0.00321079
-8.86269e-05
0.00328848
-0.000119544
0.00336139
0.00343434
5.43542e-06
0.000338903
1.6337e-05
0.000945377
2.78777e-05
0.00149165
3.61028e-05
0.00196073
3.8439e-05
0.00234307
3.38084e-05
0.00263961
2.23707e-05
0.00286067
5.07795e-06
0.00302233
-1.68112e-05
0.00314219
-4.20835e-05
0.00323606
-6.97879e-05
0.00331618
-9.92868e-05
0.00339089
-0.000130219
0.00346527
0.00354219
5.83106e-06
0.000333072
1.78356e-05
0.000933373
3.10731e-05
0.00147841
4.14088e-05
0.0019504
4.60592e-05
0.00233842
4.37548e-05
0.00264191
3.452e-05
0.0028699
1.92369e-05
0.00303761
-8.40935e-07
0.00316227
-2.44749e-05
0.0032597
-5.06643e-05
0.00334237
-7.87251e-05
0.00341895
-0.000108259
0.00349481
-0.000139078
0.00357301
0.00365527
6.21335e-06
0.000326859
1.93005e-05
0.000920285
3.42247e-05
0.00146348
4.66813e-05
0.00193794
5.36786e-05
0.00233142
5.37501e-05
0.00264184
4.67759e-05
0.00287688
3.35602e-05
0.00305083
1.53406e-05
0.00318049
-6.61535e-06
0.00328165
-3.12608e-05
0.00336702
-5.78625e-05
0.00344555
-8.59809e-05
0.00352293
-0.000115399
0.00360243
-0.000146041
0.00368591
0.00377448
6.58106e-06
0.000320278
2.07275e-05
0.000906139
3.73242e-05
0.00144689
5.19082e-05
0.00192336
6.12826e-05
0.00232205
6.37794e-05
0.00263934
5.91243e-05
0.00288153
4.80347e-05
0.00306192
3.17258e-05
0.0031968
1.14886e-05
0.00330189
-1.1583e-05
0.00339009
-3.67034e-05
0.00347067
-6.33904e-05
0.00354961
-9.13946e-05
0.00363044
-0.000120615
0.00371513
-0.000151019
0.00380489
-0.000182573
0.0039004
0.00400188
6.93303e-06
0.000313345
2.21123e-05
0.00089096
4.0363e-05
0.00142864
5.7077e-05
0.00190664
6.88559e-05
0.00231027
7.3826e-05
0.00263437
7.15499e-05
0.00288381
6.26473e-05
0.00307082
4.83033e-05
0.00321114
2.98286e-05
0.00332036
8.36357e-06
0.00341155
-1.52527e-05
0.00349429
-4.04915e-05
0.00357485
-6.70684e-05
0.00365701
-9.48567e-05
0.00374292
-0.000123805
0.00383384
-0.000153867
0.00393046
-0.000184959
0.00403297
0.00414079
7.26808e-06
0.000306077
2.34504e-05
0.000874777
4.33322e-05
0.00140875
6.21741e-05
0.0018878
7.63819e-05
0.00229606
8.38724e-05
0.00262688
8.40355e-05
0.00288364
7.73831e-05
0.00307747
6.50613e-05
0.00322346
4.83957e-05
0.00333703
2.85725e-05
0.00343137
6.48372e-06
0.00351638
-1.72893e-05
0.00359863
-4.24257e-05
0.00368215
-6.87712e-05
0.00376927
-9.62547e-05
0.00386132
-0.000124819
0.00395903
-0.000154383
0.00406253
-0.000184855
0.00417126
0.00428339
-0.000216192
7.58505e-06
0.000298492
2.47375e-05
0.000857625
4.62227e-05
0.00138727
6.71858e-05
0.00186684
8.3843e-05
0.0022794
9.38993e-05
0.00261683
9.65625e-05
0.00288098
9.22257e-05
0.00308181
8.19865e-05
0.0032337
6.71797e-05
0.00335184
4.90354e-05
0.00344952
2.85023e-05
0.00353691
6.21033e-06
0.00362092
-1.74723e-05
0.00370583
-4.23649e-05
0.00379416
-6.83764e-05
0.00388733
-9.54387e-05
0.00398609
-0.000123473
0.00409057
-0.000152401
0.00420019
0.00431317
-0.000182176
7.88284e-06
0.000290609
2.59691e-05
0.000839539
4.9025e-05
0.00136421
7.20973e-05
0.00184377
9.12205e-05
0.00226028
0.000103886
0.00260416
0.00010911
0.00287576
0.000107157
0.00308376
9.90639e-05
0.00324179
8.61688e-05
0.00336473
6.97434e-05
0.00346594
5.07934e-05
0.00355586
3.00051e-05
0.00364171
7.78603e-06
0.00372805
-1.56445e-05
0.00381759
-4.01773e-05
0.00391187
-6.57339e-05
0.00401165
-9.22372e-05
0.00411707
-0.00011963
0.00422758
0.00434137
-0.000147837
8.16034e-06
0.000282448
2.71406e-05
0.000820558
5.17296e-05
0.00133962
7.68934e-05
0.0018186
9.84946e-05
0.00223868
0.00011381
0.00258885
0.000121657
0.00286791
0.000122156
0.00308326
0.000116277
0.00324767
0.00010535
0.00337566
9.06866e-05
0.00348061
7.33501e-05
0.00357319
5.40845e-05
0.00366097
3.3346e-05
0.00374879
1.13844e-05
0.00383955
-1.1665e-05
0.00393491
-3.57134e-05
0.00403569
-6.06834e-05
0.00414204
-8.65539e-05
0.00425346
0.00436801
-0.000113189
8.4165e-06
0.000274032
2.82478e-05
0.000800727
5.43268e-05
0.00131355
8.15583e-05
0.00179137
0.000105644
0.00221459
0.000123647
0.00257084
0.000134178
0.00285738
0.000137202
0.00308024
0.000133606
0.00325127
0.000124708
0.00338456
0.000111854
0.00349346
9.61639e-05
0.00358888
7.84426e-05
0.00367869
5.91975e-05
0.00376803
3.87162e-05
0.00386003
1.71546e-05
0.00395648
-5.39043e-06
0.00405824
-2.88186e-05
0.00416547
-5.31739e-05
0.00427781
0.0043931
-7.82617e-05
8.65032e-06
0.000265382
2.92862e-05
0.000780091
5.68067e-05
0.00128603
8.60757e-05
0.0017621
0.000112647
0.00218802
0.000133373
0.00255012
0.000146647
0.0028441
0.000152269
0.00307462
0.00015103
0.00325251
0.000144226
0.00339136
0.000133232
0.00350446
0.000119225
0.00360289
0.000103072
0.00369485
8.53348e-05
0.00378577
6.63417e-05
0.00387903
4.62748e-05
0.00397654
2.52396e-05
0.00407927
3.29587e-06
0.00418741
-1.94174e-05
0.00430052
0.00441682
-4.31389e-05
8.86086e-06
0.000256521
3.02517e-05
0.0007587
5.91594e-05
0.00125712
9.04289e-05
0.00173083
0.000119481
0.00215897
0.000142958
0.00252664
0.000159035
0.00282803
0.000167329
0.00306632
0.000168526
0.00325131
0.000163886
0.003396
0.000154807
0.00351354
0.000142522
0.00361518
0.000127963
0.0037094
0.00011175
0.00380198
9.4255e-05
0.00389652
7.56873e-05
0.00399511
5.61693e-05
0.00409879
3.57962e-05
0.00420779
1.4577e-05
0.00432174
0.00443962
-8.22481e-06
9.04725e-06
0.000247473
3.114e-05
0.000736608
6.13751e-05
0.00122688
9.46007e-05
0.00169761
0.000126121
0.00212745
0.000152375
0.00250039
0.000171311
0.00280909
0.000182355
0.00305528
0.000186068
0.0032476
0.000183665
0.0033984
0.000176561
0.00352064
0.000166042
0.0036257
0.000153107
0.00372234
0.000138436
0.00381666
0.000122449
0.00391251
0.000105386
0.00401217
8.73838e-05
0.00411679
6.85183e-05
0.00422665
4.87996e-05
0.00434146
0.00446028
2.8138e-05
9.20872e-06
0.000238265
3.19473e-05
0.000713869
6.34441e-05
0.00119539
9.85739e-05
0.00166248
0.000132541
0.00209348
0.000161592
0.00247134
0.000183442
0.00278724
0.000197312
0.00304141
0.000203626
0.00324129
0.00020354
0.00339849
0.000198477
0.0035257
0.000189772
0.0036344
0.000178493
0.00373362
0.000165384
0.00382976
0.000150914
0.00392698
0.000135361
0.00402773
0.000118881
0.00413327
0.000101555
0.00424398
8.34428e-05
0.00435957
0.00447919
6.45295e-05
9.34457e-06
0.00022892
3.26699e-05
0.000690544
6.53569e-05
0.0011627
0.000102331
0.0016255
0.000138718
0.0020571
0.000170577
0.00243948
0.000195391
0.00276243
0.000212165
0.00302463
0.000221169
0.00323228
0.000223484
0.00339617
0.000220532
0.00352866
0.000213696
0.00364124
0.000204108
0.00374321
0.000192582
0.00384129
0.000179643
0.00393992
0.000165607
0.00404176
0.000150652
0.00414823
0.000134876
0.00425975
0.000118335
0.00437612
0.00449649
0.000101043
9.45424e-06
0.000219466
3.33044e-05
0.000666694
6.71043e-05
0.0011289
0.000105854
0.00158675
0.000144623
0.00201833
0.000179296
0.0024048
0.000207122
0.0027346
0.000226876
0.00300488
0.00023866
0.0032205
0.000243467
0.00339137
0.000242703
0.00352942
0.000237794
0.00364614
0.000229939
0.00375106
0.000220021
0.00385121
0.000208626
0.00395131
0.000196111
0.00405428
0.000182683
0.00416166
0.000168451
0.00427399
0.000153468
0.0043911
0.00451219
0.000137762
9.53728e-06
0.000209929
3.38478e-05
0.000642383
6.86777e-05
0.00109407
0.000109127
0.0015463
0.000150231
0.00197722
0.000187714
0.00236732
0.000218592
0.00270372
0.000241403
0.00298207
0.000256062
0.00320584
0.000263455
0.00338397
0.000264964
0.00352791
0.000262046
0.00364906
0.000255969
0.00375714
0.000247689
0.00385949
0.000237852
0.00396115
0.000226865
0.00406527
0.000214963
0.00417356
0.000202269
0.00428668
0.000188837
0.00440453
0.00452633
0.000174694
9.59337e-06
0.000200335
3.42973e-05
0.000617679
7.00688e-05
0.0010583
0.000112132
0.00150424
0.000155513
0.00193384
0.000195794
0.00232704
0.000229759
0.00266976
0.000255701
0.00295613
0.00027333
0.00318821
0.00028341
0.00337389
0.000287282
0.00352404
0.00028643
0.00364991
0.000282182
0.00376139
0.00027557
0.0038661
0.000267311
0.00396941
0.000257859
0.00407472
0.000247481
0.00418394
0.000236321
0.00429784
0.000224436
0.00441642
0.00453893
0.000211843
9.62232e-06
0.000190713
3.46509e-05
0.000592651
7.127e-05
0.00102168
0.000114853
0.00146066
0.000160443
0.00188825
0.000203497
0.00228399
0.000240578
0.00263268
0.000269721
0.00292698
0.000290418
0.00316751
0.000303292
0.00336102
0.000309625
0.00351771
0.000310917
0.00364862
0.000308557
0.00376375
0.000303652
0.00387101
0.00029699
0.00397607
0.000289081
0.00408263
0.00028023
0.00419279
0.0002706
0.00430747
0.000260256
0.00442676
0.00454998
0.000249208
9.62412e-06
0.000181089
3.49066e-05
0.000567368
7.22747e-05
0.00098431
0.000117275
0.00141566
0.000164993
0.00184054
0.000210787
0.00223819
0.000251001
0.00259246
0.000283411
0.00289457
0.000307276
0.00314365
0.000323053
0.00334524
0.000331953
0.00350881
0.000335478
0.0036451
0.00033507
0.00376415
0.000331916
0.00387416
0.000326876
0.00398111
0.000320523
0.00408898
0.000313201
0.00420011
0.000305098
0.00431557
0.000296291
0.00443557
0.00455948
0.000286786
9.5989e-06
0.00017149
3.50633e-05
0.000541904
7.30771e-05
0.000946296
0.000119382
0.00136935
0.000169138
0.00179078
0.000217623
0.00218971
0.000260978
0.00254911
0.000296717
0.00285883
0.000323847
0.00311652
0.000342644
0.00332644
0.000354224
0.00349723
0.000360078
0.00363924
0.000361698
0.00376253
0.000360343
0.00387551
0.000356956
0.0039845
0.000352172
0.00409376
0.000346384
0.0042059
0.000339807
0.00432215
0.000332533
0.00444284
0.00456744
0.000324569
9.54695e-06
0.000161943
3.51204e-05
0.00051633
7.36724e-05
0.000907744
0.000121163
0.00132186
0.000172852
0.00173909
0.000223966
0.00213859
0.000270459
0.00250261
0.00030958
0.00281971
0.000340073
0.00308603
0.000362009
0.00330451
0.000376389
0.00348285
0.000384679
0.00363095
0.000388409
0.0037588
0.000388912
0.00387501
0.000387212
0.0039862
0.000384017
0.00409696
0.000379769
0.00421014
0.000374718
0.0043272
0.000368974
0.00444859
0.00457387
0.000362549
9.46874e-06
0.000152474
3.50777e-05
0.000490721
7.40568e-05
0.000868765
0.000122604
0.00127331
0.00017611
0.00168558