/*--------------------------------*- C++ -*----------------------------------*\
  =========                 |
  \\      /  F ield         | OpenFOAM: The Open Source CFD Toolbox
   \\    /   O peration     | Website:  https://openfoam.org
    \\  /    A nd           | Version:  7
     \\/     M anipulation  |
\*---------------------------------------------------------------------------*/
FoamFile
{
    version     2.0;
    format      ascii;
    class       volVectorField;
    location    "260";
    object      U;
}
// * * * * * * * * * * * * * * * * * * * * * * * * * * * * * * * * * * * * * //

dimensions      [0 1 -1 0 0 0 0];

internalField   nonuniform List<vector> 
4575
(
(0.0288912 -0.00525106 1.88222e-20)
(0.104725 -0.0125498 1.8934e-20)
(0.199657 -0.011323 6.96102e-20)
(0.0323533 -0.00529812 2.20431e-20)
(0.114923 -0.0120205 7.72934e-20)
(0.216371 -0.0094302 5.99664e-20)
(0.333733 9.62477e-05 1.64967e-20)
(0.463141 0.0161353 1.51246e-19)
(0.035992 -0.00524209 -9.97155e-20)
(0.125527 -0.01118 -3.46417e-20)
(0.233587 -0.00703327 -1.11345e-19)
(0.35691 0.00451166 -6.00847e-20)
(0.491193 0.0227991 -3.05266e-20)
(0.630724 0.0465381 -9.40919e-20)
(0.768866 0.0738485 -5.77713e-20)
(0.89886 0.102537 1.01697e-19)
(0.0398017 -0.00507284 3.28482e-20)
(0.136512 -0.0100052 -5.25022e-20)
(0.251252 -0.00410532 8.71421e-20)
(0.380456 0.00961227 4.00029e-20)
(0.519375 0.0302382 -5.62075e-20)
(0.661859 0.0561997 6.77819e-20)
(0.800963 0.0853477 1.66307e-20)
(0.92987 0.115289 -2.94209e-20)
(1.04289 0.143693 3.47686e-20)
(1.13629 0.168634 -2.6608e-20)
(1.20863 0.188843 -7.36637e-20)
(1.26068 0.203786 -7.13668e-21)
(0.0437755 -0.00478036 -1.63002e-20)
(0.14785 -0.00847401 8.51231e-21)
(0.269312 -0.000621821 -7.92627e-20)
(0.404283 0.0154165 4.99343e-20)
(0.547571 0.0384576 4.57735e-20)
(0.692612 0.0666349 -6.40446e-20)
(0.832214 0.0975333 2.8929e-20)
(0.959581 0.128579 -5.52798e-20)
(1.06934 0.157382 -7.72393e-20)
(1.15831 0.18208 2.73952e-20)
(1.2257 0.201557 4.95709e-21)
(1.27287 0.215473 4.11256e-20)
(1.30267 0.224138 6.29585e-20)
(1.31873 0.228298 -3.01507e-21)
(1.3247 0.228898 1.043e-20)
(0.0479049 -0.00435493 -1.82052e-20)
(0.159509 -0.00656586 -2.18719e-20)
(0.287708 0.00343895 8.37054e-20)
(0.428302 0.0219387 -1.02351e-20)
(0.575666 0.0474572 4.63694e-22)
(0.722857 0.0778261 -4.3366e-20)
(0.8625 0.110372 -7.57521e-21)
(0.987903 0.142365 2.96513e-20)
(1.0941 0.171389 9.95051e-20)
(1.17848 0.19568 -3.13691e-20)
(1.24093 0.214296 5.25525e-21)
(1.28337 0.227102 1.64452e-20)
(1.30906 0.234592 -3.15265e-20)
(1.32181 0.237644 -1.99374e-20)
(1.32534 0.237279 5.26731e-21)
(1.32281 0.234476 2.57352e-20)
(1.31667 0.230056 -6.32154e-21)
(1.30863 0.224655 -3.83764e-22)
(1.29971 0.218703 2.19899e-20)
(0.0521799 -0.00378721 3.17024e-20)
(0.171456 -0.00426168 6.10442e-20)
(0.306374 0.00809565 4.1233e-20)
(0.45242 0.0291886 -2.22038e-20)
(0.603545 0.0572319 8.07033e-20)
(0.752469 0.0897507 4.68772e-20)
(0.891708 0.123826 -6.89988e-20)
(1.01476 0.156602 -2.36447e-20)
(1.11712 0.185671 3.37188e-22)
(1.19681 0.209397 -1.90024e-20)
(1.25438 0.227036 -5.38848e-20)
(1.29227 0.238663 8.81554e-21)
(1.3141 0.244948 9.08587e-23)
(1.32383 0.246893 -5.34741e-20)
(1.32516 0.24558 2.40806e-20)
(1.32115 0.242002 -1.27519e-20)
(1.31409 0.236963 -5.52962e-20)
(1.3055 0.231069 2.63446e-20)
(1.2963 0.224694 -5.4813e-20)
(1.28689 0.217906 2.36022e-20)
(0.0565892 -0.00306836 -1.1119e-20)
(0.183651 -0.00154429 -2.62297e-20)
(0.325244 0.0133636 -4.29349e-20)
(0.476542 0.0371715 -2.03235e-21)
(0.631093 0.0677712 -3.86501e-21)
(0.781333 0.102382 -4.42507e-20)
(0.919742 0.137857 1.00277e-20)
(1.04009 0.171245 9.22877e-21)
(1.13839 0.200185 -1.87969e-20)
(1.21335 0.223199 1.50848e-21)
(1.26612 0.239757 2.83907e-20)
(1.29967 0.250146 -3.67471e-21)
(1.31789 0.255207 2.08423e-20)
(1.32487 0.25605 9.16729e-21)
(1.32424 0.253808 -4.95384e-20)
(1.31894 0.249476 3.74844e-21)
(1.3111 0.243835 2.93376e-20)
(1.30208 0.237457 -6.86803e-21)
(1.29264 0.230665 1.29793e-21)
(1.28313 0.223601 -4.56509e-21)
(0.0611202 -0.00219017 -1.0174e-20)
(0.196053 0.00160135 -9.3039e-21)
(0.344247 0.0192544 -1.61888e-20)
(0.500571 0.0458877 -1.0458e-20)
(0.658198 0.0790598 -2.68329e-20)
(0.809338 0.115688 3.05476e-20)
(0.946511 0.152423 5.94215e-20)
(1.06383 0.186249 2.0358e-20)
(1.15791 0.214891 1.02397e-20)
(1.22812 0.237055 -2.39995e-20)
(1.27622 0.252439 -2.50403e-22)
(1.30564 0.261543 1.50334e-20)
(1.32053 0.265368 -1.89848e-20)
(1.325 0.26512 7.11892e-21)
(1.32264 0.261968 2.35825e-20)
(1.31624 0.256902 -8.0213e-21)
(1.30774 0.250674 -1.39941e-20)
(1.29836 0.243821 -1.27569e-20)
(1.28876 0.236615 4.47067e-20)
(1.27917 0.229272 1.55031e-20)
(0.0657589 -0.00114512 -1.81176e-20)
(0.20862 0.00518798 2.05451e-20)
(0.363312 0.025776 -4.59361e-21)
(0.524412 0.055333 1.41889e-20)
(0.684754 0.0910775 -1.25001e-20)
(0.836381 0.129636 -7.50209e-21)
(0.971939 0.167479 -2.88511e-20)
(1.08596 0.20157 3.30939e-21)
(1.17569 0.229751 7.87183e-21)
(1.24117 0.250937 1.73763e-20)
(1.28476 0.265067 -6.67266e-21)
(1.31028 0.272848 -5.13494e-21)
(1.32208 0.275432 4.64188e-21)
(1.3243 0.274106 -8.0272e-21)
(1.32042 0.270064 1.79819e-20)
(1.31307 0.264282 1.17528e-20)
(1.30402 0.25748 -1.98019e-21)
(1.29437 0.250157 -1.27681e-21)
(1.28465 0.242541 -1.2061e-20)
(1.27501 0.234917 -1.49253e-20)
(0.0704901 7.3468e-05 3.90239e-21)
(0.221306 0.0092258 -6.41018e-21)
(0.382363 0.0329323 4.29874e-21)
(0.547968 0.0654983 -5.79653e-21)
(0.710655 0.1038 -2.18142e-20)
(0.86237 0.144185 9.91545e-21)
(0.99596 0.18298 4.75395e-21)
(1.10645 0.217162 -2.21351e-20)
(1.19174 0.244726 -1.37022e-20)
(1.25255 0.26482 -1.28459e-21)
(1.29181 0.277625 -1.84196e-20)
(1.31367 0.284055 1.87055e-20)
(1.32264 0.285398 -3.82707e-23)
(1.32284 0.28301 -2.41015e-21)
(1.31763 0.278098 -4.56188e-21)
(1.30946 0.271617 2.1961e-21)
(1.29998 0.264252 1.51341e-21)
(1.29012 0.256464 -5.81652e-22)
(1.28031 0.248439 -4.41416e-21)
(1.27065 0.24053 5.33125e-21)
(0.0752977 0.00147138 1.30236e-21)
(0.234062 0.0137223 4.22176e-21)
(0.401326 0.0407232 2.30842e-21)
(0.571146 0.0763698 -1.05323e-21)
(0.735804 0.117197 1.43946e-20)
(0.887219 0.159296 -3.15535e-21)
(1.01852 0.198881 4.9201e-21)
(1.12528 0.232983 1.06867e-20)
(1.20609 0.259782 -1.89188e-21)
(1.26233 0.278678 4.64884e-22)
(1.29743 0.2901 5.05801e-21)
(1.31588 0.295159 -2.64915e-21)
(1.32226 0.295267 3.38362e-21)
(1.32066 0.291834 6.03166e-22)
(1.31429 0.286071 -6.19101e-21)
(1.30545 0.278906 2.99634e-22)
(1.29562 0.270987 7.77672e-21)
(1.2856 0.262737 -1.59524e-21)
(1.27575 0.254304 2.33205e-21)
(1.26609 0.246106 -2.58883e-21)
(0.0801645 0.0030534 5.33664e-22)
(0.24684 0.0186823 6.21784e-21)
(0.420124 0.0491443 3.29324e-21)
(0.593852 0.087929 -6.58602e-22)
(0.760106 0.131236 1.32659e-20)
(0.910852 0.174924 -3.67758e-21)
(1.03957 0.215133 6.75246e-21)
(1.14245 0.248987 8.90583e-21)
(1.21876 0.274884 -1.80649e-21)
(1.27054 0.292488 3.98321e-22)
(1.30171 0.302479 5.72734e-21)
(1.31698 0.306153 -2.27319e-21)
(1.32101 0.305036 2.20091e-21)
(1.31782 0.300577 -5.33658e-22)
(1.31045 0.293982 -5.0371e-21)
(1.30105 0.286147 -1.44699e-22)
(1.29095 0.277682 7.70905e-21)
(1.28083 0.268971 -1.48728e-21)
(1.27097 0.26013 2.74875e-21)
(1.26134 0.251638 -2.91508e-21)
(0.0850727 0.00482329 4.64683e-21)
(0.25959 0.0241075 -7.98539e-21)
(0.438683 0.0581874 3.98474e-21)
(0.615999 0.100153 -3.14898e-21)
(0.783475 0.145881 -2.10069e-20)
(0.933201 0.191024 8.36707e-21)
(1.05909 0.23169 3.75536e-21)
(1.15795 0.265135 -2.51307e-20)
(1.22979 0.29 -1.0348e-20)
(1.27727 0.30623 -8.8647e-24)
(1.3047 0.31475 -1.54307e-20)
(1.31704 0.317034 1.26547e-20)
(1.31895 0.314702 -2.79419e-21)
(1.31435 0.309237 1.73085e-21)
(1.30614 0.301828 -6.61469e-21)
(1.29628 0.293335 4.93778e-21)
(1.28598 0.28433 3.10055e-21)
(1.27581 0.275159 -5.40301e-22)
(1.26598 0.26591 -5.91384e-21)
(1.25638 0.25712 5.34299e-21)
(0.0900031 0.00678366 -1.00409e-20)
(0.272261 0.0299968 -4.29611e-21)
(0.456928 0.0678398 -6.13318e-21)
(0.637499 0.113015 2.06261e-20)
(0.80583 0.161091 9.41463e-23)
(0.954208 0.207548 -1.05185e-20)
(1.07703 0.248503 -4.19977e-20)
(1.1718 0.281382 4.02639e-21)
(1.23923 0.305098 4.57686e-21)
(1.28255 0.319881 1.99069e-20)
(1.30648 0.326901 2.92106e-21)
(1.31611 0.327793 -1.61715e-20)
(1.31613 0.324264 1.49407e-20)
(1.3103 0.317812 -5.92112e-21)
(1.30137 0.309605 2.19553e-20)
(1.29116 0.300465 -1.97031e-21)
(1.28071 0.290926 1.10353e-21)
(1.27053 0.281295 9.28644e-22)
(1.26076 0.271636 -1.57296e-20)
(1.25121 0.262544 -9.36743e-21)
(0.0949364 0.0089359 -3.78456e-21)
(0.2848 0.0363458 -2.06252e-20)
(0.474784 0.078085 1.59443e-20)
(0.658271 0.126484 -1.98317e-20)
(0.827098 0.176822 -3.49104e-20)
(0.973822 0.224447 2.9838e-20)
(1.09339 0.265524 4.81222e-20)
(1.18402 0.297691 1.68688e-20)
(1.24711 0.320148 1.14803e-20)
(1.28645 0.333423 -3.2247e-20)
(1.3071 0.338919 2.42179e-20)
(1.31426 0.338426 2.75165e-21)
(1.31258 0.333716 -2.94584e-20)
(1.30569 0.326296 1.12873e-20)
(1.29617 0.317308 3.93771e-20)
(1.28568 0.307531 -2.65376e-20)
(1.27516 0.297461 -7.44023e-21)
(1.26501 0.28737 -7.05845e-21)
(1.25531 0.277301 3.20334e-20)
(1.24585 0.267903 1.81184e-20)
(0.0998526 0.0112802 2.62236e-20)
(0.297158 0.0431472 -4.1809e-20)
(0.492181 0.0889025 -5.95745e-20)
(0.678237 0.140524 2.62885e-21)
(0.847212 0.193029 -1.02785e-20)
(0.992002 0.24167 -4.09552e-20)
(1.10816 0.282706 -6.77228e-21)
(1.19462 0.314019 2.01425e-20)
(1.25348 0.335122 -3.17468e-20)
(1.28903 0.346836 2.54634e-20)
(1.30662 0.350794 2.89612e-20)
(1.31154 0.348923 -1.78788e-20)
(1.30836 0.343052 7.17338e-21)
(1.30055 0.334685 3.55876e-20)
(1.29056 0.32493 -4.66443e-20)
(1.27987 0.314524 8.00518e-21)
(1.26932 0.303927 2.13681e-20)
(1.25924 0.293376 -6.36662e-21)
(1.24965 0.282896 -6.64429e-21)
(1.24028 0.273188 -1.11124e-21)
(0.104732 0.0138155 3.86276e-20)
(0.309282 0.0503907 6.73023e-20)
(0.509049 0.100268 3.49883e-20)
(0.697326 0.155097 -4.0713e-20)
(0.866113 0.209664 1.04004e-19)
(1.00872 0.259165 1.56867e-20)
(1.12133 0.300001 -4.23583e-20)
(1.20364 0.33033 -2.98978e-20)
(1.25838 0.34999 -2.34205e-20)
(1.29034 0.360102 7.65156e-21)
(1.3051 0.362514 -2.53625e-20)
(1.30799 0.359278 8.08812e-22)
(1.30349 0.352266 -1.6525e-20)
(1.29492 0.342971 -2.21394e-20)
(1.28454 0.332463 -3.70242e-21)
(1.27373 0.321437 -2.24465e-21)
(1.2632 0.310315 -3.95332e-20)
(1.25322 0.299303 2.93158e-20)
(1.24376 0.288411 -4.3737e-20)
(1.23451 0.278391 -2.52451e-20)
(0.109553 0.0165394 -4.6844e-20)
(0.321123 0.0580628 -1.80674e-20)
(0.525322 0.112153 7.85844e-20)
(0.715469 0.170162 1.9554e-20)
(0.883749 0.226675 -6.54204e-20)
(1.02393 0.276881 -3.71005e-20)
(1.13291 0.317363 -1.20543e-20)
(1.2111 0.346585 7.65736e-20)
(1.26187 0.364726 5.36078e-20)
(1.29044 0.373201 -1.79983e-20)
(1.30259 0.374066 -1.025e-20)
(1.30366 0.369481 2.53311e-20)
(1.298 0.361349 -2.70489e-20)
(1.2888 0.351145 1.23042e-20)
(1.27814 0.339898 5.24572e-21)
(1.26726 0.328258 -6.46936e-21)
(1.2568 0.316614 4.81153e-20)
(1.24694 0.305142 -1.9911e-20)
(1.23764 0.293835 3.94292e-20)
(1.22854 0.283502 -1.37624e-20)
(0.114298 0.0194484 -2.62914e-20)
(0.332631 0.0661473 -4.55012e-20)
(0.540936 0.124527 -7.05909e-20)
(0.732607 0.185674 4.16942e-20)
(0.900074 0.24401 2.23918e-20)
(1.03764 0.294765 -3.11963e-20)
(1.14291 0.334745 5.08732e-20)
(1.21703 0.362747 -7.68097e-20)
(1.26399 0.379302 -7.99596e-20)
(1.28938 0.386116 4.72803e-20)
(1.29914 0.385437 1.73051e-20)
(1.29858 0.379522 -1.88724e-20)
(1.29194 0.370293 2.80646e-20)
(1.28221 0.359199 2.16215e-20)
(1.27135 0.347224 -1.55035e-20)
(1.26047 0.334979 -5.1827e-21)
(1.25011 0.322815 -3.67158e-20)
(1.24042 0.310881 7.36887e-21)
(1.2313 0.299159 -3.01793e-20)
(1.22236 0.288512 -4.88709e-21)
(0.118944 0.0225375 2.18625e-20)
(0.343761 0.0746252 -3.56485e-20)
(0.555833 0.137356 6.37148e-20)
(0.748682 0.201585 1.05417e-19)
(0.915051 0.261617 -1.48303e-19)
(1.04982 0.312765 1.27789e-19)
(1.15134 0.3521 3.35292e-20)
(1.22148 0.378781 -4.76324e-20)
(1.2648 0.393693 5.51834e-20)
(1.28721 0.398827 3.1905e-20)
(1.29478 0.396613 3.87352e-20)
(1.29279 0.38939 -6.58177e-20)
(1.28531 0.379087 -1.3299e-20)
(1.27518 0.367121 3.12742e-20)
(1.2642 0.354432 1.16991e-20)
(1.25336 0.341586 5.287e-20)
(1.24315 0.328906 6.51154e-20)
(1.23364 0.316512 -1.57437e-20)
(1.22473 0.30437 2.68812e-20)
(1.21598 0.293411 2.98852e-20)
(0.123473 0.0258007 -6.29375e-21)
(0.354465 0.0834746 -8.27194e-20)
(0.569956 0.150601 -1.11265e-19)
(0.763645 0.217847 -1.42104e-19)
(0.928649 0.27944 -1.34665e-20)
(1.06048 0.330828 4.99198e-20)
(1.15823 0.369385 -9.38457e-21)
(1.22448 0.394651 1.61188e-20)
(1.26432 0.407872 -2.4369e-20)
(1.28398 0.411317 3.99161e-20)
(1.28958 0.407582 -5.96545e-20)
(1.28632 0.399073 7.62084e-20)
(1.27814 0.38772 4.28778e-20)
(1.26771 0.374901 1.91318e-20)
(1.25667 0.361509 -2.80259e-20)
(1.24594 0.34807 -2.93372e-20)
(1.2359 0.334876 -2.73834e-20)
(1.22661 0.322021 1.96759e-21)
(1.21794 0.309457 3.49107e-20)
(1.2094 0.298188 -3.63595e-20)
(0.127864 0.0292306 -1.1169e-20)
(0.364701 0.0926713 6.45669e-20)
(0.583253 0.164222 7.9358e-20)
(0.777451 0.234408 -1.21069e-20)
(0.940842 0.297424 3.5534e-20)
(1.0696 0.348901 9.2924e-21)
(1.16359 0.386554 -4.95885e-20)
(1.22607 0.410321 3.84873e-20)
(1.26263 0.421815 3.52669e-20)
(1.27973 0.423568 -6.00788e-20)
(1.28355 0.418329 9.46692e-20)
(1.2792 0.40856 -7.72249e-20)
(1.27046 0.396179 4.36601e-20)
(1.25982 0.382526 -6.23347e-20)
(1.24879 0.368444 8.99367e-20)
(1.2382 0.354417 -5.57166e-20)
(1.22837 0.340713 -1.59764e-20)
(1.21933 0.327398 -2.10911e-20)
(1.21092 0.314405 -4.36689e-20)
(1.20262 0.302834 6.80996e-22)
(0.1321 0.0328189 8.07864e-20)
(0.374426 0.102188 8.0548e-20)
(0.595679 0.178177 -1.13713e-19)
(0.790064 0.251214 -6.76716e-20)
(0.951613 0.315513 9.82896e-20)
(1.07721 0.366932 -3.83667e-20)
(1.16746 0.403563 5.48636e-20)
(1.2263 0.42576 2.3125e-20)
(1.25975 0.435496 -5.26572e-20)
(1.27451 0.435559 -1.27825e-19)
(1.27675 0.428838 -2.23645e-20)
(1.27147 0.417835 -4.58521e-20)
(1.26227 0.404453 -6.67229e-20)
(1.25151 0.389983 5.30606e-21)
(1.24056 0.375222 -6.65716e-21)
(1.23016 0.360617 -6.25812e-21)
(1.22057 0.346407 4.99241e-20)
(1.21179 0.332634 3.52941e-20)
(1.20365 0.319202 3.84127e-21)
(1.19559 0.307341 1.99282e-20)
(0.136162 0.0365557 -1.94581e-20)
(0.383604 0.111997 1.42607e-19)
(0.60719 0.192422 5.4353e-20)
(0.80145 0.268212 1.08014e-19)
(0.96095 0.333651 3.43428e-20)
(1.08329 0.38487 1.27829e-20)
(1.16986 0.42037 -7.99174e-20)
(1.2252 0.440933 -2.52352e-20)
(1.25574 0.448889 1.22531e-20)
(1.26835 0.447273 9.49606e-20)
(1.26919 0.439094 -3.04726e-20)
(1.26313 0.426887 3.6947e-20)
(1.25361 0.412527 7.64653e-20)
(1.2428 0.397259 1.70893e-20)
(1.23199 0.381832 -1.46349e-20)
(1.2218 0.366655 1.92901e-20)
(1.21249 0.351947 3.59365e-20)
(1.204 0.337722 1.60666e-20)
(1.19617 0.323855 4.0295e-20)
(1.18828 0.311695 3.02246e-20)
(0.140033 0.0404305 -5.0669e-20)
(0.392197 0.122067 -7.31841e-20)
(0.617748 0.206908 4.5447e-20)
(0.811582 0.285346 1.49115e-20)
(0.968846 0.35178 2.90614e-20)
(1.08789 0.402664 -1.16348e-19)
(1.17083 0.436933 4.13538e-20)
(1.22281 0.455807 -8.72528e-20)
(1.25064 0.461972 -4.73848e-20)
(1.2613 0.458689 5.41174e-20)
(1.26092 0.449081 -5.69312e-21)
(1.25422 0.435698 3.41042e-21)
(1.24447 0.420387 -9.29934e-20)
(1.2337 0.404339 -3.67722e-20)
(1.22307 0.388258 2.97091e-20)
(1.21315 0.372518 -5.09437e-20)
(1.20413 0.357318 -2.68194e-20)
(1.19598 0.34265 -2.65005e-20)
(1.18849 0.328399 -4.53336e-20)
(1.18069 0.315891 -1.0261e-19)
(0.143696 0.0444317 2.95793e-20)
(0.400173 0.132364 -3.44115e-20)
(0.627319 0.221589 -1.83785e-19)
(0.820441 0.30256 9.70432e-20)
(0.9753 0.369846 -1.18268e-19)
(1.091 0.420263 -1.63808e-20)
(1.17039 0.453211 -1.55599e-19)
(1.21919 0.470351 1.62266e-19)
(1.24449 0.474718 9.07093e-20)
(1.2534 0.46979 -5.34367e-21)
(1.25197 0.458781 3.10686e-20)
(1.24476 0.444255 -3.84297e-20)
(1.23488 0.428017 -3.03543e-21)
(1.22422 0.411209 1.71905e-20)
(1.21381 0.394487 -1.7445e-20)
(1.20419 0.378193 3.21012e-20)
(1.19551 0.362504 -4.18837e-20)
(1.18772 0.347382 -3.66851e-20)
(1.18058 0.332814 2.04247e-20)
(1.17298 0.319966 2.7274e-20)
(0.147136 0.0485465 6.73668e-20)
(0.407502 0.142855 6.34598e-20)
(0.635876 0.236415 4.80328e-20)
(0.828011 0.319797 -1.31988e-21)
(0.980317 0.387791 -3.05414e-20)
(1.09266 0.437619 2.03149e-19)
(1.1686 0.469162 1.12954e-19)
(1.21437 0.484534 7.47583e-20)
(1.23734 0.487105 1.04085e-19)
(1.24469 0.480554 1.25256e-20)
(1.24236 0.468179 -8.32666e-20)
(1.23477 0.452541 -8.72746e-21)
(1.22486 0.435402 -1.7384e-20)
(1.21436 0.417853 -5.55372e-20)
(1.20423 0.400503 -2.03874e-20)
(1.19494 0.383666 -2.81118e-20)
(1.18662 0.367494 8.60802e-20)
(1.1792 0.351932 -1.11593e-21)
(1.1724 0.33703 2.32091e-20)
(1.16517 0.323877 1.83209e-20)
(0.150338 0.0527616 -2.26114e-20)
(0.414157 0.153504 -3.67909e-20)
(0.643394 0.251335 -7.87551e-20)
(0.834281 0.337 -1.30734e-20)
(0.983906 0.405561 -1.2532e-19)
(1.0929 0.454682 -8.83478e-20)
(1.16549 0.484749 2.86618e-20)
(1.20839 0.498325 -2.04399e-19)
(1.22923 0.499107 -1.08589e-19)
(1.23519 0.490963 2.57879e-20)
(1.23212 0.477257 -1.30838e-20)
(1.22427 0.460539 7.40098e-20)
(1.2144 0.442527 9.88352e-20)
(1.20413 0.424257 2.45084e-20)
(1.19433 0.406293 6.51878e-20)
(1.1854 0.388922 -3.35309e-20)
(1.17746 0.372276 4.51278e-20)
(1.17045 0.356286 2.47273e-20)
(1.16402 0.341048 2.10085e-20)
(1.15718 0.327594 -3.96057e-20)
(0.153289 0.0570627 3.37207e-20)
(0.420114 0.164273 -3.67434e-21)
(0.649854 0.266298 -1.2175e-19)
(0.839248 0.354113 -1.90346e-22)
(0.98608 0.423101 2.82158e-19)
(1.09173 0.471405 5.52467e-20)
(1.16109 0.499932 4.09588e-20)
(1.20131 0.511694 1.18318e-19)
(1.2202 0.510702 -9.3734e-20)
(1.22494 0.500996 -9.86856e-20)
(1.22128 0.485996 -9.7387e-22)
(1.21328 0.468234 -6.72361e-20)
(1.20354 0.449375 -3.67033e-20)
(1.19356 0.430404 9.68745e-20)
(1.18411 0.411841 -2.50259e-20)
(1.17558 0.393947 1.76994e-21)
(1.16805 0.376837 -3.27859e-20)
(1.16146 0.360429 -4.87857e-20)
(1.15544 0.344857 2.88669e-21)
(1.14899 0.331109 4.49064e-20)
(0.155978 0.0614349 -1.62948e-19)
(0.425355 0.175126 9.5558e-20)
(0.655242 0.281252 2.09053e-19)
(0.842912 0.371078 6.43279e-20)
(0.986857 0.440357 -3.31952e-19)
(1.0892 0.487742 -1.34697e-19)
(1.15546 0.514675 -1.03366e-19)
(1.19315 0.524611 -3.69389e-20)
(1.21028 0.521866 1.22862e-19)
(1.21398 0.510634 1.30089e-20)
(1.20986 0.494379 -2.48209e-20)
(1.20181 0.475607 4.46746e-20)
(1.19228 0.45593 6.41199e-21)
(1.18263 0.436278 -1.15618e-19)
(1.17359 0.417133 3.40344e-20)
(1.16548 0.398728 4.44837e-20)
(1.15838 0.381164 2.08919e-20)
(1.15224 0.364348 2.79611e-20)
(1.14666 0.348449 -4.81838e-20)
(1.14062 0.334414 -2.32619e-20)
(0.158392 0.0658626 -1.11134e-20)
(0.42986 0.186022 4.81593e-20)
(0.659547 0.296145 2.35521e-20)
(0.845277 0.38784 6.85358e-20)
(0.98626 0.457276 1.85343e-19)
(1.08535 0.503649 -1.18377e-19)
(1.14862 0.528941 -6.97771e-21)
(1.18398 0.537049 1.09738e-19)
(1.19952 0.532575 -1.30784e-19)
(1.20234 0.519857 4.18295e-20)
(1.19789 0.502388 1.05794e-19)
(1.18989 0.482641 2.37173e-20)
(1.18063 0.462175 -5.03272e-20)
(1.17137 0.441865 8.31168e-20)
(1.16277 0.422154 -9.50144e-20)
(1.1551 0.40325 2.81823e-21)
(1.14846 0.385243 -2.14111e-20)
(1.1428 0.368029 3.67048e-20)
(1.13768 0.351811 3.19596e-20)
(0.160524 0.0703299 2.1106e-20)
(0.433618 0.196923 7.69128e-20)
(0.662764 0.310925 7.46142e-20)
(0.846353 0.404343 -4.67089e-20)
(0.984313 0.473808 4.04848e-21)
(1.0802 0.51908 1.09846e-19)
(1.14064 0.542695 1.9119e-19)
(1.17382 0.548978 -1.92654e-20)
(1.18795 0.542807 1.77647e-20)
(1.19005 0.528645 -5.20492e-20)
(1.18539 0.510004 -1.08223e-19)
(1.17753 0.48932 1.71273e-20)
(1.16861 0.468094 5.90348e-20)
(1.15979 0.447149 -1.18228e-20)
(1.15165 0.426889 -9.14879e-21)
(1.14446 0.407501 -3.69975e-20)
(1.1383 0.389062 -6.23327e-21)
(1.13313 0.371461 -1.41684e-20)
(0.162364 0.0748203 -7.26601e-20)
(0.436617 0.207788 -1.76205e-19)
(0.664893 0.325539 -2.57112e-19)
(0.846155 0.420533 4.35466e-21)
(0.981046 0.489901 -1.59486e-21)
(1.0738 0.533995 -9.98274e-20)
(1.13154 0.555902 5.27094e-20)
(1.16273 0.560372 -5.60696e-20)
(1.17562 0.552539 1.03875e-19)
(1.17713 0.536978 1.02176e-19)
(1.17238 0.517209 4.47293e-20)
(1.16475 0.495626 -1.15292e-20)
(1.15624 0.47367 1.61521e-20)
(1.1479 0.452113 -4.05733e-20)
(1.14026 0.431323 6.78692e-20)
(1.13357 0.411467 -2.96305e-20)
(0.163906 0.0793168 7.88263e-20)
(0.438851 0.218579 2.3777e-19)
(0.665935 0.339937 9.22161e-20)
(0.844699 0.436357 -1.79462e-20)
(0.976491 0.505507 -9.65899e-20)
(1.06619 0.548351 -2.05764e-20)
(1.12138 0.56853 -2.564e-20)
(1.15075 0.571205 -8.03312e-21)
(1.16256 0.56175 -3.08372e-20)
(1.16363 0.544836 -9.9725e-20)
(1.1589 0.523986 -8.03295e-20)
(1.15157 0.501542 5.67904e-20)
(1.14352 0.478886 -7.78591e-20)
(1.1357 0.456743 -3.61419e-21)
(1.1286 0.435443 2.00116e-20)
(0.165145 0.0838025 7.62105e-21)
(0.440316 0.229255 1.51618e-20)
(0.665899 0.354068 2.10959e-19)
(0.842008 0.451762 -1.16967e-19)
(0.970682 0.520579 2.70357e-19)
(1.05741 0.56211 1.19687e-19)
(1.1102 0.580548 -1.5933e-19)
(1.13791 0.58145 -1.43716e-20)
(1.14881 0.570417 -1.22823e-19)
(1.14956 0.552201 -2.9067e-20)
(1.14495 0.530315 3.17837e-20)
(1.13801 0.50705 4.22286e-20)
(1.13047 0.483728 8.0388e-20)
(1.12322 0.461023 9.50499e-21)
(0.166075 0.0882602 6.27506e-20)
(0.441011 0.239776 -2.84049e-19)
(0.664794 0.367882 -6.27717e-20)
(0.838106 0.466697 -4.61145e-20)
(0.963658 0.535072 -1.69335e-19)
(1.04751 0.575234 -1.62785e-19)
(1.09804 0.591924 -4.93341e-20)
(1.12427 0.591083 -6.15715e-20)
(1.1344 0.57852 1.71719e-19)
(1.13497 0.559053 6.33975e-21)
(1.13058 0.53618 -1.0385e-19)
(1.12409 0.512134 -1.40704e-19)
(1.11711 0.488178 6.33344e-20)
(0.166695 0.0926725 4.9611e-21)
(0.440939 0.250103 4.23998e-20)
(0.662636 0.381329 -1.27002e-19)
(0.833023 0.481113 7.31785e-20)
(0.955458 0.54894 8.01948e-21)
(1.03654 0.587686 2.03077e-19)
(1.08497 0.602631 7.81844e-20)
(1.10985 0.60008 1.20651e-19)
(1.11936 0.586038 -7.7122e-20)
(1.11987 0.565375 1.34952e-19)
(1.11579 0.541562 8.73533e-20)
(1.10982 0.516777 1.79476e-20)
(0.167003 0.0970224 -1.26432e-19)
(0.440105 0.260197 2.87183e-19)
(0.659442 0.394364 1.48261e-19)
(0.82679 0.494962 5.37739e-20)
(0.946125 0.562142 -2.80858e-20)
(1.02454 0.599431 -1.67787e-19)
(1.07101 0.61264 2.44614e-20)
(1.09471 0.608419 -2.25332e-20)
(1.10375 0.59295 -7.95776e-20)
(1.10431 0.571147 -9.32814e-20)
(1.10061 0.546446 4.92536e-20)
(0.167 0.101293 -2.64008e-20)
(0.438516 0.270021 -7.58934e-20)
(0.655234 0.406938 -1.70682e-19)
(0.819441 0.5082 -8.6175e-20)
(0.935706 0.574639 -9.89776e-20)
(1.01156 0.610438 8.54655e-20)
(1.05621 0.621923 -3.36164e-20)
(1.0789 0.616078 2.04214e-20)
(1.08759 0.599238 -1.22332e-20)
(1.0883 0.576352 -4.24706e-20)
(0.166686 0.105468 2.55064e-19)
(0.436184 0.279538 8.53422e-21)
(0.650036 0.419007 -7.48385e-20)
(0.811017 0.520781 7.01674e-20)
(0.924249 0.586394 -1.12273e-20)
(0.997642 0.620672 -3.13275e-20)
(1.04063 0.630456 -7.16146e-20)
(1.06244 0.623034 9.83213e-21)
(1.07091 0.604885 8.22811e-20)
(0.166064 0.109533 -5.69452e-20)
(0.433121 0.288712 6.20449e-20)
(0.643876 0.430528 1.69669e-20)
(0.80156 0.532662 1.47566e-19)
(0.911792 0.597368 -1.94784e-20)
(0.982839 0.630109 -9.06349e-20)
(1.02431 0.638213 1.59236e-19)
(1.04539 0.629269 5.07514e-21)
(0.165138 0.113472 -2.34624e-19)
(0.429343 0.297508 -7.11741e-21)
(0.636787 0.441458 1.40387e-19)
(0.791112 0.54381 -1.65926e-20)
(0.898374 0.607522 2.10211e-19)
(0.967209 0.638718 6.42484e-22)
(1.0073 0.645175 -1.67904e-19)
(0.163912 0.11727 1.40185e-19)
(0.424868 0.305893 -1.0997e-19)
(0.628804 0.451756 -1.64316e-19)
(0.779703 0.554184 -2.63442e-20)
(0.884059 0.616835 -1.3829e-19)
(0.950804 0.64647 6.08914e-20)
(0.16239 0.120913 -5.45829e-20)
(0.419716 0.313833 7.05963e-20)
(0.619957 0.461386 -2.02585e-20)
(0.767377 0.563741 -2.61197e-20)
(0.868909 0.625274 5.25906e-21)
(0.160578 0.124386 -8.57877e-20)
(0.413911 0.321297 -8.24453e-20)
(0.610279 0.470311 1.76891e-19)
(0.754197 0.572455 5.01286e-20)
(0.852969 0.632807 1.24825e-20)
(0.158476 0.127667 1.05385e-19)
(0.407482 0.32826 1.58378e-19)
(0.599814 0.478495 -4.08718e-20)
(0.740212 0.580294 -3.8515e-20)
(0.15609 0.130724 -7.06485e-20)
(0.400474 0.334695 -1.23424e-19)
(0.588607 0.485914 -5.73801e-20)
(0.153454 0.13354 7.00572e-20)
(0.392904 0.340553 1.24484e-19)
(0.576693 0.492541 5.17617e-20)
(0.15059 0.136132 -3.62559e-20)
(0.384786 0.345811 -1.93713e-22)
(0.147494 0.138484 3.22929e-20)
(0.144173 0.140584 5.56447e-21)
(0.154011 -0.150225 -7.46162e-20)
(0.157488 -0.147906 1.26863e-20)
(0.160733 -0.145331 -8.34561e-20)
(0.410794 -0.369547 -1.63682e-19)
(0.16374 -0.142512 1.45198e-19)
(0.419355 -0.363777 1.00524e-19)
(0.61507 -0.526096 -2.32004e-20)
(0.166513 -0.139461 -9.65195e-20)
(0.427352 -0.357392 -2.52389e-19)
(0.627691 -0.518792 -9.72467e-20)
(0.169025 -0.136161 1.42823e-19)
(0.434772 -0.350418 2.08737e-19)
(0.639588 -0.510682 -1.79163e-20)
(0.788248 -0.618787 -4.45624e-20)
(0.171239 -0.132632 -1.65761e-19)
(0.441595 -0.342906 -6.16746e-20)
(0.650722 -0.501789 1.07753e-19)
(0.803131 -0.610167 8.41177e-20)
(0.906692 -0.673583 5.17057e-20)
(0.173154 -0.128908 4.2389e-20)
(0.447773 -0.334881 -3.55507e-20)
(0.661048 -0.49214 9.19462e-20)
(0.817194 -0.600656 -1.22944e-19)
(0.923672 -0.665228 -9.56082e-21)
(0.990501 -0.693993 6.86167e-20)
(0.174767 -0.12501 3.03871e-19)
(0.453276 -0.326368 -1.68307e-19)
(0.670518 -0.481769 -2.24413e-19)
(0.830383 -0.590286 -9.17873e-20)
(0.93985 -0.65595 -1.2556e-19)
(1.00874 -0.68627 -6.69751e-21)
(0.176073 -0.120953 -1.60597e-19)
(0.458078 -0.317398 -5.54121e-21)
(0.6791 -0.470715 1.16769e-19)
(0.842634 -0.579083 1.59775e-20)
(0.95518 -0.645783 2.49601e-19)
(1.02625 -0.677656 -2.25089e-20)
(1.06655 -0.68331 1.97268e-20)
(0.177067 -0.116752 -6.34047e-20)
(0.46216 -0.308006 2.84103e-20)
(0.686761 -0.459014 4.81646e-20)
(0.8539 -0.567088 1.11377e-19)
(0.9696 -0.63476 -6.9941e-20)
(1.04298 -0.668169 2.25233e-20)
(1.08468 -0.675468 1.68033e-19)
(1.1048 -0.664939 -1.68246e-20)
(0.177742 -0.112422 3.23353e-19)
(0.4655 -0.298226 -7.88732e-20)
(0.693466 -0.446707 -1.02032e-19)
(0.86415 -0.554344 5.4134e-20)
(0.983037 -0.622897 2.84999e-20)
(1.05887 -0.657843 -5.62468e-20)
(1.10211 -0.66682 -1.21199e-20)
(1.12295 -0.657802 -2.90896e-20)
(1.12986 -0.637783 2.89114e-20)
(0.178096 -0.107978 -1.44281e-19)
(0.46808 -0.288094 1.68649e-20)
(0.699178 -0.433836 -1.54219e-19)
(0.873343 -0.540883 -1.96088e-19)
(0.995453 -0.61024 -7.54279e-20)
(1.07387 -0.646711 -5.38645e-21)
(1.11881 -0.657382 8.75518e-20)
(1.14049 -0.649932 -6.1528e-20)
(1.14758 -0.63121 1.68078e-20)
(1.14651 -0.606451 1.13819e-19)
(0.178125 -0.103437 -1.4967e-19)
(0.469888 -0.277644 3.08274e-19)
(0.703868 -0.420445 1.79727e-19)
(0.881433 -0.52675 7.59608e-20)
(1.00681 -0.596831 -2.70481e-20)
(1.08791 -0.634792 -1.5538e-19)
(1.13471 -0.647183 -8.84301e-20)
(1.1574 -0.64135 -3.9133e-20)
(1.16479 -0.623986 -4.81077e-20)
(1.16351 -0.600298 -1.62396e-19)
(1.15801 -0.573843 8.47201e-20)
(0.177828 -0.0988136 2.71176e-20)
(0.470909 -0.266915 -4.29305e-20)
(0.707507 -0.406581 3.18802e-20)
(0.888377 -0.51199 -7.49682e-20)
(1.01707 -0.582702 1.4893e-19)
(1.10096 -0.622121 2.40917e-19)
(1.14977 -0.636249 6.91044e-20)
(1.17363 -0.632079 1.67455e-19)
(1.18144 -0.616129 -8.25275e-20)
(1.18006 -0.593568 1.79211e-19)
(1.17412 -0.567995 3.62777e-20)
(1.1664 -0.541602 1.46424e-19)
(0.177204 -0.0941259 -9.53825e-20)
(0.471135 -0.255945 -2.04723e-19)
(0.710073 -0.392291 -1.52228e-19)
(0.894138 -0.49665 4.43048e-20)
(1.02617 -0.567893 -2.21512e-19)
(1.11297 -0.608732 -2.48331e-19)
(1.16394 -0.624608 -2.73124e-20)
(1.18912 -0.622142 -6.09645e-20)
(1.19751 -0.607658 1.93878e-19)
(1.19613 -0.586281 -4.25654e-20)
(1.18983 -0.561638 -1.14176e-19)
(1.18154 -0.535983 -1.73709e-19)
(1.17288 -0.510551 -1.01449e-19)
(0.176253 -0.0893909 -7.57019e-20)
(0.470559 -0.244772 -5.63225e-20)
(0.711544 -0.377623 2.33378e-19)
(0.898681 -0.480777 -1.36693e-19)
(1.03407 -0.552447 3.28327e-19)
(1.12389 -0.594663 1.26319e-19)
(1.17718 -0.612291 -7.47888e-20)
(1.20385 -0.611562 -1.15053e-19)
(1.21296 -0.598595 -1.59459e-19)
(1.2117 -0.578455 6.31731e-20)
(1.20512 -0.554789 1.0261e-20)
(1.19633 -0.529913 5.58931e-20)
(1.18707 -0.505118 1.0952e-19)
(1.17817 -0.481039 2.22319e-20)
(0.174977 -0.0846263 1.49795e-19)
(0.469176 -0.233438 2.26463e-19)
(0.711904 -0.362625 1.02885e-20)
(0.901975 -0.464421 1.25818e-19)
(1.04072 -0.536409 -2.86106e-19)
(1.13367 -0.579948 6.52517e-20)
(1.18944 -0.599326 -4.06729e-20)
(1.21776 -0.600365 -8.27263e-21)
(1.22774 -0.588963 -6.00148e-20)
(1.22674 -0.570109 -1.12654e-19)
(1.21997 -0.547469 -2.62155e-20)
(1.21075 -0.52341 5.54049e-20)
(1.20093 -0.499285 -1.56204e-19)
(1.19144 -0.475773 3.72357e-20)
(1.18273 -0.453172 -6.91857e-20)
(0.17338 -0.0798499 -2.68114e-20)
(0.466985 -0.221983 -3.46672e-19)
(0.711138 -0.34735 -2.56678e-19)
(0.903991 -0.447633 -1.52284e-20)
(1.04609 -0.519825 5.20756e-20)
(1.14227 -0.564628 -9.16738e-20)
(1.20068 -0.585744 -1.99211e-21)
(1.23083 -0.588577 2.35412e-20)
(1.24184 -0.578784 3.15985e-20)
(1.24121 -0.561266 1.69191e-19)
(1.23436 -0.539695 6.27406e-20)
(1.22478 -0.516491 -1.32438e-20)
(1.21446 -0.493067 1.46347e-20)
(1.20442 -0.470148 -1.77684e-20)
(1.19514 -0.448066 7.48116e-20)
(1.18686 -0.426965 3.05365e-20)
(0.171467 -0.0750793 4.94254e-20)
(0.463988 -0.210447 1.85201e-19)
(0.709237 -0.331849 1.09439e-19)
(0.904705 -0.430468 -1.97775e-19)
(1.05014 -0.502745 3.90766e-20)
(1.14964 -0.548742 2.18405e-19)
(1.21083 -0.571579 1.0912e-19)
(1.24299 -0.576224 1.24204e-20)
(1.2552 -0.56808 1.08264e-19)
(1.25509 -0.551944 -1.99303e-19)
(1.24827 -0.531487 -5.03984e-20)
(1.2384 -0.509176 -1.93205e-20)
(1.22763 -0.486482 1.05373e-19)
(1.21708 -0.464181 -3.05068e-20)
(1.20728 -0.442637 -2.5856e-21)
(1.19849 -0.422014 -4.50961e-20)
(1.19076 -0.402376 -1.4797e-20)
(1.18408 -0.383598 -7.38468e-20)
(0.169243 -0.0703319 -4.60556e-20)
(0.460189 -0.198872 -2.67166e-20)
(0.706193 -0.316174 -6.657e-20)
(0.904094 -0.412979 2.05674e-19)
(1.05283 -0.485216 1.31995e-19)
(1.15574 -0.532332 -3.73822e-20)
(1.21987 -0.556864 -6.14174e-21)
(1.25422 -0.563335 1.23655e-19)
(1.2678 -0.556877 -1.74837e-19)