/*--------------------------------*- C++ -*----------------------------------*\
  =========                 |
  \\      /  F ield         | OpenFOAM: The Open Source CFD Toolbox
   \\    /   O peration     | Website:  https://openfoam.org
    \\  /    A nd           | Version:  7
     \\/     M anipulation  |
\*---------------------------------------------------------------------------*/
FoamFile
{
    version     2.0;
    format      ascii;
    class       volScalarField;
    location    "20";
    object      p;
}
// * * * * * * * * * * * * * * * * * * * * * * * * * * * * * * * * * * * * * //

dimensions      [0 2 -2 0 0 0 0];

internalField   nonuniform List<scalar> 
7156
(
-0.252809
-0.253177
-0.253505
-0.253801
-0.25407
-0.254319
-0.254552
-0.254772
-0.254982
-0.255184
-0.25538
-0.255572
-0.25576
-0.255947
-0.256134
-0.256322
-0.256514
-0.256712
-0.256924
-0.257128
-0.257321
-0.252832
-0.2532
-0.253527
-0.253822
-0.254091
-0.254339
-0.254571
-0.25479
-0.254999
-0.255201
-0.255396
-0.255587
-0.255774
-0.25596
-0.256146
-0.256333
-0.256524
-0.256721
-0.256932
-0.257136
-0.257327
-0.252879
-0.253245
-0.253571
-0.253864
-0.254131
-0.254378
-0.254608
-0.254826
-0.255033
-0.255233
-0.255427
-0.255616
-0.255802
-0.255986
-0.256169
-0.256355
-0.256544
-0.25674
-0.25695
-0.257153
-0.25734
-0.252949
-0.253313
-0.253636
-0.253927
-0.254192
-0.254437
-0.254665
-0.25488
-0.255085
-0.255282
-0.255473
-0.25566
-0.255843
-0.256024
-0.256205
-0.256388
-0.256575
-0.256768
-0.256976
-0.257177
-0.257359
-0.253042
-0.253403
-0.253723
-0.254011
-0.254273
-0.254514
-0.254739
-0.254951
-0.255153
-0.255347
-0.255535
-0.255718
-0.255897
-0.256075
-0.256252
-0.256431
-0.256615
-0.256805
-0.257011
-0.257208
-0.257384
-0.253158
-0.253515
-0.253832
-0.254116
-0.254374
-0.254612
-0.254832
-0.25504
-0.255238
-0.255428
-0.255611
-0.255789
-0.255964
-0.256137
-0.25631
-0.256485
-0.256664
-0.25685
-0.257053
-0.257246
-0.257414
-0.253297
-0.253649
-0.253961
-0.254241
-0.254495
-0.254727
-0.254944
-0.255147
-0.255339
-0.255524
-0.255702
-0.255875
-0.256044
-0.256211
-0.256378
-0.256548
-0.256721
-0.256902
-0.257102
-0.257291
-0.257448
-0.253459
-0.253805
-0.254112
-0.254386
-0.254635
-0.254862
-0.255072
-0.25527
-0.255456
-0.255635
-0.255807
-0.255973
-0.256136
-0.256296
-0.256456
-0.256619
-0.256786
-0.256962
-0.257157
-0.257341
-0.257486
-0.253642
-0.253983
-0.254283
-0.254552
-0.254793
-0.255014
-0.255218
-0.255409
-0.255589
-0.25576
-0.255925
-0.256084
-0.256238
-0.256391
-0.256544
-0.256698
-0.256858
-0.257027
-0.257217
-0.257395
-0.257527
-0.253848
-0.254181
-0.254475
-0.254736
-0.254971
-0.255184
-0.255381
-0.255564
-0.255736
-0.2559
-0.256056
-0.256206
-0.256352
-0.256496
-0.256639
-0.256785
-0.256936
-0.257097
-0.257281
-0.257452
-0.25757
-0.254074
-0.2544
-0.254686
-0.25494
-0.255166
-0.255372
-0.25556
-0.255735
-0.255898
-0.256052
-0.256199
-0.256339
-0.256475
-0.256609
-0.256741
-0.256877
-0.257019
-0.25717
-0.257348
-0.257512
-0.257613
-0.254322
-0.254639
-0.254917
-0.255162
-0.25538
-0.255576
-0.255755
-0.25592
-0.256074
-0.256218
-0.256354
-0.256483
-0.256608
-0.256729
-0.25685
-0.256975
-0.257105
-0.257246
-0.257416
-0.257572
-0.257654
-0.25459
-0.254898
-0.255167
-0.255402
-0.255611
-0.255797
-0.255966
-0.25612
-0.256263
-0.256395
-0.256519
-0.256636
-0.256748
-0.256857
-0.256965
-0.257076
-0.257193
-0.257323
-0.257485
-0.257631
-0.257693
-0.255177
-0.255435
-0.25566
-0.255858
-0.256034
-0.256191
-0.256334
-0.256464
-0.256584
-0.256695
-0.256798
-0.256896
-0.25699
-0.257083
-0.257179
-0.257283
-0.2574
-0.257552
-0.257689
-0.257728
-0.255474
-0.255721
-0.255936
-0.256122
-0.256286
-0.256431
-0.256561
-0.256678
-0.256784
-0.25688
-0.256969
-0.25705
-0.257128
-0.257205
-0.257285
-0.257372
-0.257475
-0.257616
-0.257742
-0.257756
-0.25579
-0.256026
-0.256228
-0.256402
-0.256553
-0.256684
-0.2568
-0.256903
-0.256994
-0.257074
-0.257146
-0.257211
-0.25727
-0.257329
-0.25739
-0.25746
-0.257546
-0.257676
-0.257789
-0.257776
-0.256124
-0.256347
-0.256536
-0.256697
-0.256834
-0.256951
-0.257052
-0.257139
-0.257213
-0.257276
-0.25733
-0.257376
-0.257416
-0.257454
-0.257495
-0.257545
-0.257613
-0.257728
-0.257829
-0.257785
-0.256476
-0.256685
-0.256861
-0.257007
-0.257129
-0.257231
-0.257315
-0.257385
-0.257442
-0.257486
-0.25752
-0.257545
-0.257563
-0.257579
-0.257597
-0.257625
-0.257672
-0.257772
-0.257859
-0.257781
-0.256844
-0.25704
-0.257201
-0.257332
-0.257438
-0.257523
-0.25759
-0.257641
-0.257678
-0.257703
-0.257715
-0.257717
-0.257712
-0.257703
-0.257697
-0.2577
-0.257724
-0.257806
-0.257877
-0.257761
-0.25723
-0.257411
-0.257556
-0.257671
-0.25776
-0.257827
-0.257875
-0.257907
-0.257923
-0.257925
-0.257915
-0.257892
-0.257861
-0.257825
-0.257792
-0.257768
-0.257765
-0.257828
-0.257882
-0.257722
-0.257798
-0.257926
-0.258023
-0.258094
-0.258142
-0.258171
-0.258181
-0.258176
-0.258154
-0.258119
-0.25807
-0.258011
-0.257946
-0.257881
-0.257827
-0.257796
-0.257835
-0.257872
-0.257661
-0.2582
-0.25831
-0.258389
-0.258441
-0.258469
-0.258476
-0.258464
-0.258435
-0.258389
-0.258327
-0.258249
-0.25816
-0.258063
-0.257965
-0.257877
-0.257813
-0.257827
-0.257845
-0.257573
-0.258617
-0.258709
-0.258768
-0.258799
-0.258806
-0.258791
-0.258756
-0.258701
-0.258629
-0.258538
-0.258431
-0.258308
-0.258176
-0.258042
-0.257917
-0.257817
-0.2578
-0.257801
-0.25745
-0.259049
-0.259122
-0.25916
-0.25917
-0.259154
-0.259115
-0.259055
-0.258974
-0.258874
-0.258753
-0.258613
-0.258456
-0.258286
-0.258113
-0.257947
-0.257805
-0.257754
-0.257737
-0.257262
-0.259548
-0.259565
-0.259552
-0.259512
-0.259449
-0.259362
-0.259254
-0.259124
-0.258971
-0.258797
-0.258603
-0.258393
-0.258176
-0.257965
-0.257778
-0.257689
-0.257657
-0.257005
-0.259987
-0.259982
-0.259945
-0.259881
-0.259791
-0.259677
-0.25954
-0.259379
-0.259193
-0.258983
-0.258749
-0.258496
-0.258233
-0.257973
-0.257735
-0.2576
-0.257534
-0.256888
-0.260441
-0.260411
-0.26035
-0.260259
-0.260142
-0.26
-0.259833
-0.25964
-0.259419
-0.259171
-0.258895
-0.258596
-0.258283
-0.257969
-0.257676
-0.257493
-0.257367
-0.256705
-0.260907
-0.260853
-0.260765
-0.260648
-0.260503
-0.260331
-0.260132
-0.259905
-0.259649
-0.259361
-0.259042
-0.258694
-0.258327
-0.257955
-0.257601
-0.257363
-0.257176
-0.256449
-0.261307
-0.261192
-0.261046
-0.260872
-0.260669
-0.260438
-0.260177
-0.259883
-0.259555
-0.25919
-0.258791
-0.258367
-0.257931
-0.25751
-0.257209
-0.25696
-0.25614
-0.261773
-0.26163
-0.261454
-0.261249
-0.261015
-0.260751
-0.260455
-0.260123
-0.259752
-0.25934
-0.258888
-0.258403
-0.2579
-0.257404
-0.257031
-0.256714
-0.255779
-0.262251
-0.262078
-0.261873
-0.261636
-0.261369
-0.261071
-0.260738
-0.260367
-0.259954
-0.259494
-0.258987
-0.258438
-0.257862
-0.257284
-0.256831
-0.256436
-0.255361
-0.262741
-0.262538
-0.262301
-0.262032
-0.261731
-0.261398
-0.261029
-0.260618
-0.260161
-0.259652
-0.259088
-0.258473
-0.25782
-0.257153
-0.256609
-0.256126
-0.254885
-0.263009
-0.262739
-0.262436
-0.262102
-0.261733
-0.261326
-0.260875
-0.260374
-0.259815
-0.259193
-0.25851
-0.257776
-0.257014
-0.256368
-0.255785
-0.254345
-0.263491
-0.263187
-0.26285
-0.26248
-0.262075
-0.261631
-0.26114
-0.260594
-0.259985
-0.259305
-0.258552
-0.257734
-0.256869
-0.25611
-0.255414
-0.25374
-0.263985
-0.263646
-0.263273
-0.262867
-0.262425
-0.261942
-0.261411
-0.260821
-0.260162
-0.259424
-0.2586
-0.257695
-0.256722
-0.255838
-0.255017
-0.253067
-0.264115
-0.263705
-0.263262
-0.262783
-0.262261
-0.26169
-0.261056
-0.260348
-0.259551
-0.258656
-0.257662
-0.256576
-0.255557
-0.254596
-0.25232
-0.264595
-0.264147
-0.263666
-0.263148
-0.262588
-0.261976
-0.261299
-0.260542
-0.259688
-0.258722
-0.257638
-0.256435
-0.255269
-0.254155
-0.251499
-0.265086
-0.264598
-0.264078
-0.263521
-0.262922
-0.262269
-0.261549
-0.260744
-0.259834
-0.258799
-0.257625
-0.256301
-0.254978
-0.2537
-0.2506
-0.265059
-0.264498
-0.263902
-0.263262
-0.262569
-0.261807
-0.260956
-0.259991
-0.258888
-0.257625
-0.256179
-0.25469
-0.253234
-0.24962
-0.26553
-0.264927
-0.26429
-0.26361
-0.262877
-0.262072
-0.261175
-0.260157
-0.258989
-0.257639
-0.256069
-0.254406
-0.252763
-0.248559
-0.265366
-0.264686
-0.263965
-0.26319
-0.262344
-0.261403
-0.260334
-0.259102
-0.257668
-0.255976
-0.254131
-0.252293
-0.247415
-0.265813
-0.26509
-0.264326
-0.263511
-0.262623
-0.261638
-0.26052
-0.259228
-0.257713
-0.255902
-0.25387
-0.251829
-0.246193
-0.265502
-0.264695
-0.263837
-0.262908
-0.26188
-0.260716
-0.259367
-0.257777
-0.25585
-0.253631
-0.251378
-0.244899
-0.265922
-0.265071
-0.26417
-0.2632
-0.26213
-0.260922
-0.259521
-0.257862
-0.255829
-0.253425
-0.250949
-0.243549
-0.266353
-0.265456
-0.264511
-0.263499
-0.262389
-0.26114
-0.259693
-0.257976
-0.255847
-0.253273
-0.250565
-0.242191
-0.26585
-0.26486
-0.263807
-0.262658
-0.261372
-0.259888
-0.258126
-0.255921
-0.253206
-0.250265
-0.240927
-0.266255
-0.26522
-0.264125
-0.26294
-0.261622
-0.260112
-0.258324
-0.25607
-0.253267
-0.250065
-0.239807
-0.265592
-0.264456
-0.263237
-0.261895
-0.260373
-0.258587
-0.256334
-0.253532
-0.24991
-0.238505
-0.265978
-0.264801
-0.263551
-0.262193
-0.260677
-0.258935
-0.256778
-0.254188
-0.249987
-0.237101
-0.265165
-0.263887
-0.262519
-0.261028
-0.259377
-0.257445
-0.25544
-0.251481
-0.24128
-0.264244
-0.262872
-0.26142
-0.259889
-0.258256
-0.257045
-0.255117
-0.263599
-0.264625
-0.263251
-0.261838
-0.260431
-0.259077
-0.258566
-0.257581
-0.269828
-0.263651
-0.262272
-0.260967
-0.259819
-0.259742
-0.258972
-0.271308
-0.264069
-0.262711
-0.261478
-0.260457
-0.2606
-0.259825
-0.271651
-0.263149
-0.261951
-0.260985
-0.261185
-0.260267
-0.271137
-0.262378
-0.2614
-0.261525
-0.260363
-0.269982
-0.262753
-0.261704
-0.261653
-0.260187
-0.268432
-0.261903
-0.261601
-0.259807
-0.266653
-0.2614
-0.259273
-0.264753
-0.258623
-0.262802
-0.257886
-0.26085
-0.258927
-0.258942
-0.257903
-0.260865
-0.261094
-0.25864
-0.262818
-0.261418
-0.25929
-0.264769
-0.261921
-0.261619
-0.259824
-0.26667
-0.262771
-0.261722
-0.261671
-0.260205
-0.268449
-0.262396
-0.261418
-0.261544
-0.260381
-0.27
-0.263167
-0.261969
-0.261003
-0.261203
-0.260286
-0.271155
-0.264087
-0.26273
-0.261496
-0.260476
-0.260619
-0.259844
-0.27167
-0.263669
-0.262291
-0.260986
-0.259838
-0.259761
-0.258991
-0.271327
-0.264643
-0.263269
-0.261857
-0.26045
-0.259096
-0.258585
-0.257601
-0.269847
-0.264263
-0.262891
-0.261439
-0.259909
-0.258276
-0.257065
-0.255137
-0.263618
-0.265183
-0.263905
-0.262538
-0.261048
-0.259396
-0.257464
-0.25546
-0.251501
-0.2413
-0.265996
-0.26482
-0.26357
-0.262212
-0.260697
-0.258955
-0.256798
-0.254208
-0.250008
-0.237121
-0.265609
-0.264474
-0.263255
-0.261914
-0.260392
-0.258607
-0.256354
-0.253552
-0.249931
-0.238525
-0.266272
-0.265238
-0.264143
-0.262958
-0.261642
-0.260132
-0.258343
-0.25609
-0.253287
-0.250086
-0.239828
-0.265867
-0.264878
-0.263825
-0.262677
-0.261391
-0.259908
-0.258145
-0.255941
-0.253227
-0.250285
-0.240947
-0.26637
-0.265473
-0.264529
-0.263517
-0.262408
-0.261159
-0.259713
-0.257996
-0.255868
-0.253293
-0.250586
-0.242211
-0.265939
-0.265088
-0.264188
-0.263218
-0.262149
-0.260941
-0.259541
-0.257882
-0.255849
-0.253445
-0.25097
-0.243569
-0.266286
-0.265518
-0.264712
-0.263855
-0.262926
-0.261899
-0.260735
-0.259386
-0.257796
-0.255871
-0.253651
-0.251398
-0.244919
-0.265829
-0.265106
-0.264343
-0.263528
-0.262641
-0.261656
-0.260539
-0.259247
-0.257733
-0.255922
-0.253891
-0.251849
-0.246213
-0.265381
-0.264702
-0.263982
-0.263208
-0.262362
-0.261421
-0.260352
-0.259121
-0.257687
-0.255996
-0.254151
-0.252313
-0.247435
-0.265545
-0.264943
-0.264306
-0.263627
-0.262894
-0.26209
-0.261193
-0.260176
-0.259008
-0.257658
-0.256089
-0.254426
-0.252783
-0.248579
-0.265074
-0.264514
-0.263917
-0.263279
-0.262586
-0.261825
-0.260973
-0.260009
-0.258907
-0.257644
-0.256198
-0.254709
-0.253254
-0.24964
-0.2651
-0.264613
-0.264093
-0.263537
-0.262938
-0.262286
-0.261566
-0.260762
-0.259852
-0.258818
-0.257644
-0.256321
-0.254998
-0.25372
-0.250619
-0.264609
-0.264161
-0.263681
-0.263163
-0.262604
-0.261992
-0.261316
-0.260559
-0.259705
-0.258741
-0.257657
-0.256454
-0.255288
-0.254175
-0.251518
-0.264129
-0.26372
-0.263277
-0.262798
-0.262277
-0.261706
-0.261073
-0.260365
-0.259568
-0.258674
-0.25768
-0.256595
-0.255576
-0.254615
-0.25234
-0.263998
-0.263659
-0.263287
-0.262881
-0.26244
-0.261957
-0.261427
-0.260837
-0.260179
-0.259441
-0.258618
-0.257713
-0.256741
-0.255857
-0.255036
-0.253085
-0.263504
-0.2632
-0.262864
-0.262494
-0.26209
-0.261645
-0.261155
-0.26061
-0.260001
-0.259322
-0.258569
-0.257751
-0.256887
-0.256128
-0.255433
-0.253759
-0.263022
-0.262752
-0.26245
-0.262115
-0.261747
-0.261341
-0.26089
-0.26039
-0.259831
-0.25921
-0.258527
-0.257794
-0.257032
-0.256386
-0.255803
-0.254364
-0.262753
-0.26255
-0.262313
-0.262045
-0.261745
-0.261412
-0.261043
-0.260633
-0.260176
-0.259667
-0.259104
-0.25849
-0.257837
-0.257171
-0.256626
-0.256144
-0.254903
-0.262262
-0.26209
-0.261885
-0.261649
-0.261382
-0.261084
-0.260752
-0.260382
-0.259968
-0.259509
-0.259002
-0.258454
-0.257878
-0.257301
-0.256848
-0.256453
-0.255379
-0.261784
-0.261641
-0.261466
-0.261261
-0.261028
-0.260764
-0.260468
-0.260136
-0.259766
-0.259355
-0.258903
-0.258419
-0.257916
-0.25742
-0.257048
-0.256731
-0.255796
-0.261318
-0.261203
-0.261058
-0.260883
-0.260681
-0.260451
-0.26019
-0.259897
-0.259568
-0.259204
-0.258806
-0.258382
-0.257947
-0.257526
-0.257225
-0.256977
-0.256157
-0.260917
-0.260863
-0.260776
-0.260659
-0.260514
-0.260343
-0.260144
-0.259918
-0.259662
-0.259375
-0.259056
-0.258709
-0.258342
-0.25797
-0.257616
-0.257379
-0.257193
-0.256466
-0.26045
-0.260422
-0.26036
-0.26027
-0.260153
-0.260012
-0.259845
-0.259652
-0.259432
-0.259184
-0.258909
-0.25861
-0.258297
-0.257983
-0.257691
-0.257509
-0.257383
-0.256721
-0.259997
-0.259992
-0.259955
-0.259891
-0.259802
-0.259688
-0.259552
-0.259391
-0.259205
-0.258995
-0.258762
-0.258509
-0.258246
-0.257987
-0.25775
-0.257615
-0.25755
-0.256903
-0.259504
-0.259557
-0.259574
-0.259562
-0.259522
-0.259459
-0.259373
-0.259265
-0.259135
-0.258983
-0.258809
-0.258615
-0.258406
-0.258189
-0.257979
-0.257792
-0.257703
-0.257671
-0.257018
-0.259057
-0.25913
-0.259169
-0.259179
-0.259163
-0.259125
-0.259065
-0.258985
-0.258885
-0.258764
-0.258625
-0.258468
-0.258299
-0.258125
-0.25796
-0.257818
-0.257768
-0.257751
-0.257277
-0.258625
-0.258717
-0.258777
-0.258808
-0.258815
-0.2588
-0.258765
-0.258711
-0.258639
-0.258549
-0.258442
-0.25832
-0.258188
-0.258055
-0.25793
-0.257829
-0.257813
-0.257814
-0.257464
-0.258207
-0.258318
-0.258397
-0.258449
-0.258477
-0.258485
-0.258474
-0.258445
-0.258399
-0.258337
-0.25826
-0.258171
-0.258074
-0.257977
-0.257889
-0.257826
-0.257839
-0.257858
-0.257587
-0.257805
-0.257934
-0.258031
-0.258102
-0.25815
-0.258179
-0.25819
-0.258185
-0.258164
-0.258128
-0.25808
-0.258021
-0.257956
-0.257892
-0.257838
-0.257807
-0.257847
-0.257884
-0.257673
-0.257237
-0.257418
-0.257563
-0.257678
-0.257767
-0.257835
-0.257883
-0.257915
-0.257932
-0.257934
-0.257924
-0.257902
-0.257871
-0.257836
-0.257802
-0.257779
-0.257777
-0.257839
-0.257894
-0.257734
-0.256851
-0.257047
-0.257208
-0.257339
-0.257445
-0.25753
-0.257598
-0.257649
-0.257687
-0.257711
-0.257724
-0.257726
-0.257721
-0.257713
-0.257707
-0.25771
-0.257734
-0.257817
-0.257889
-0.257773
-0.256482
-0.256692
-0.256867
-0.257014
-0.257136
-0.257238
-0.257323
-0.257393
-0.257449
-0.257494
-0.257528
-0.257553
-0.257572
-0.257588
-0.257607
-0.257635
-0.257682
-0.257783
-0.257869
-0.257792
-0.25613
-0.256353
-0.256542
-0.256703
-0.25684
-0.256958
-0.257059
-0.257146
-0.25722
-0.257284
-0.257338
-0.257384
-0.257424
-0.257462
-0.257504
-0.257554
-0.257622
-0.257738
-0.257839
-0.257795
-0.255795
-0.256031
-0.256233
-0.256408
-0.256559
-0.256691
-0.256807
-0.256909
-0.257
-0.257081
-0.257153
-0.257218
-0.257278
-0.257337
-0.257399
-0.257469
-0.257555
-0.257685
-0.257798
-0.257785
-0.255479
-0.255727
-0.255941
-0.256127
-0.256291
-0.256437
-0.256567
-0.256684
-0.25679
-0.256887
-0.256975
-0.257058
-0.257136
-0.257213
-0.257293
-0.257381
-0.257483
-0.257625
-0.257751
-0.257765
-0.255181
-0.25544
-0.255665
-0.255863
-0.256039
-0.256197
-0.256339
-0.25647
-0.25659
-0.256701
-0.256805
-0.256903
-0.256997
-0.25709
-0.257187
-0.257291
-0.257408
-0.25756
-0.257697
-0.257736
-0.254594
-0.254903
-0.255171
-0.255407
-0.255615
-0.255802
-0.255971
-0.256125
-0.256268
-0.256401
-0.256525
-0.256642
-0.256754
-0.256863
-0.256971
-0.257082
-0.2572
-0.257331
-0.257492
-0.257639
-0.257701
-0.254326
-0.254643
-0.254921
-0.255166
-0.255384
-0.255581
-0.25576
-0.255925
-0.256079
-0.256223
-0.256359
-0.256488
-0.256613
-0.256735
-0.256856
-0.256981
-0.257111
-0.257253
-0.257423
-0.257579
-0.257661
-0.254078
-0.254404
-0.25469
-0.254943
-0.25517
-0.255376
-0.255564
-0.255739
-0.255903
-0.256057
-0.256204
-0.256344
-0.25648
-0.256614
-0.256747
-0.256883
-0.257024
-0.257176
-0.257354
-0.257518
-0.257619
-0.253851
-0.254184
-0.254478
-0.254739
-0.254974
-0.255188
-0.255385
-0.255568
-0.25574
-0.255904
-0.25606
-0.25621
-0.256357
-0.2565
-0.256644
-0.25679
-0.256941
-0.257102
-0.257287
-0.257458
-0.257576
-0.253645
-0.253986
-0.254286
-0.254555
-0.254797
-0.255017
-0.255222
-0.255412
-0.255593
-0.255764
-0.255928
-0.256088
-0.256243
-0.256395
-0.256548
-0.256703
-0.256863
-0.257032
-0.257222
-0.2574
-0.257533
-0.253461
-0.253808
-0.254115
-0.254389
-0.254637
-0.254865
-0.255075
-0.255273
-0.25546
-0.255638
-0.25581
-0.255976
-0.256139
-0.2563
-0.25646
-0.256623
-0.25679
-0.256966
-0.257161
-0.257345
-0.257491
-0.2533
-0.253652
-0.253964
-0.254244
-0.254497
-0.25473
-0.254946
-0.255149
-0.255342
-0.255527
-0.255705
-0.255878
-0.256047
-0.256214
-0.256382
-0.256551
-0.256725
-0.256906
-0.257105
-0.257295
-0.257452
-0.25316
-0.253517
-0.253834
-0.254118
-0.254376
-0.254614
-0.254835
-0.255043
-0.25524
-0.25543
-0.255614
-0.255792
-0.255967
-0.25614
-0.256313
-0.256488
-0.256667
-0.256853
-0.257056
-0.25725
-0.257417
-0.253044
-0.253404
-0.253725
-0.254013
-0.254275
-0.254516
-0.254741
-0.254953
-0.255155
-0.255349
-0.255537
-0.25572
-0.255899
-0.256077
-0.256254
-0.256434
-0.256617
-0.256807
-0.257013
-0.257211
-0.257386
-0.25295
-0.253314
-0.253637
-0.253929
-0.254194
-0.254438
-0.254666
-0.254881
-0.255086
-0.255284
-0.255475
-0.255661
-0.255844
-0.256026
-0.256207
-0.25639
-0.256577
-0.25677
-0.256978
-0.257179
-0.257361
-0.25288
-0.253246
-0.253572
-0.253865
-0.254132
-0.254379
-0.254609
-0.254827
-0.255035
-0.255234
-0.255428
-0.255617
-0.255803
-0.255987
-0.256171
-0.256356
-0.256546
-0.256742
-0.256951
-0.257154
-0.257341
-0.252833
-0.2532
-0.253528
-0.253822
-0.254091
-0.254339
-0.254571
-0.254791
-0.255
-0.255201
-0.255397
-0.255587
-0.255775
-0.255961
-0.256146
-0.256334
-0.256525
-0.256722
-0.256933
-0.257137
-0.257328
-0.252809
-0.253177
-0.253505
-0.253801
-0.254071
-0.25432
-0.254552
-0.254772
-0.254982
-0.255184
-0.255381
-0.255572
-0.255761
-0.255947
-0.256134
-0.256322
-0.256514
-0.256712
-0.256924
-0.257129
-0.257321
-0.258585
-0.257655
-0.259737
-0.259138
-0.260841
-0.260848
-0.262264
-0.262863
-0.264299
-0.265503
-0.267295
-0.269217
-0.258607
-0.257655
-0.25975
-0.259141
-0.260848
-0.260852
-0.262268
-0.262866
-0.264301
-0.265504
-0.267296
-0.269218
-0.258651
-0.257656
-0.259777
-0.259147
-0.260863
-0.260859
-0.262276
-0.262871
-0.264304
-0.265506
-0.267296
-0.269216
-0.258717
-0.257657
-0.259816
-0.259155
-0.260885
-0.260869
-0.262287
-0.262877
-0.264308
-0.265506
-0.267294
-0.269213
-0.258804
-0.257658
-0.259868
-0.259166
-0.260913
-0.260881
-0.262301
-0.262885
-0.264312
-0.265507
-0.267291
-0.269207
-0.258913
-0.257659
-0.259932
-0.259179
-0.260949
-0.260897
-0.262319
-0.262894
-0.264317
-0.265507
-0.267285
-0.269199
-0.259042
-0.257658
-0.260009
-0.259195
-0.26099
-0.260915
-0.262339
-0.262905
-0.264322
-0.265505
-0.267278
-0.269187
-0.259191
-0.257656
-0.260096
-0.259211
-0.261037
-0.260935
-0.262361
-0.262916
-0.264327
-0.265503
-0.267269
-0.269173
-0.25936
-0.257652
-0.260195
-0.25923
-0.26109
-0.260958
-0.262386
-0.262928
-0.264331
-0.265499
-0.267256
-0.269155
-0.259548
-0.257644
-0.260304
-0.259248
-0.261147
-0.260982
-0.262412
-0.26294
-0.264335
-0.265494
-0.267241
-0.269133
-0.259754
-0.257632
-0.260423
-0.259268
-0.261207
-0.261007
-0.262439
-0.262953
-0.264337
-0.265486
-0.267223
-0.269107
-0.259978
-0.257615
-0.26055
-0.259287
-0.261272
-0.261033
-0.262466
-0.262964
-0.264338
-0.265476
-0.2672
-0.269076
-0.260219
-0.257592
-0.260686
-0.259306
-0.261338
-0.261059
-0.262494
-0.262976
-0.264337
-0.265463
-0.267174
-0.26904
-0.260476
-0.257562
-0.260828
-0.259324
-0.261407
-0.261086
-0.262521
-0.262985
-0.264334
-0.265447
-0.267144
-0.268999
-0.260749
-0.257523
-0.260977
-0.25934
-0.261477
-0.261113
-0.262547
-0.262994
-0.264328
-0.265427
-0.267109
-0.268953
-0.261037
-0.257475
-0.261132
-0.259355
-0.261546
-0.261138
-0.262571
-0.263001
-0.264319
-0.265404
-0.267069
-0.2689
-0.261341
-0.257417
-0.26129
-0.259367
-0.261615
-0.261163
-0.262593
-0.263005
-0.264306
-0.265377
-0.267023
-0.268841
-0.261659
-0.257348
-0.261452
-0.259377
-0.261683
-0.261187
-0.262613
-0.263007
-0.26429
-0.265346
-0.266972
-0.268775
-0.261992
-0.257266
-0.261616
-0.259384
-0.261748
-0.261209
-0.262629
-0.263006
-0.26427
-0.26531
-0.266916
-0.268703
-0.262339
-0.257171
-0.261781
-0.259389
-0.261809
-0.261228
-0.262642
-0.263002
-0.264246
-0.26527
-0.266854
-0.268624
-0.262701
-0.257062
-0.261945
-0.25939
-0.261867
-0.261246
-0.262651
-0.262995
-0.264217
-0.265224
-0.266786
-0.268538
-0.263078
-0.256939
-0.262108
-0.259388
-0.261919
-0.261261
-0.262655
-0.262984
-0.264183
-0.265174
-0.266712
-0.268445
-0.263471
-0.256802
-0.262266
-0.259383
-0.261965
-0.261273
-0.262654
-0.262969
-0.264145
-0.265119
-0.266632
-0.268345
-0.270589
-0.263891
-0.256645
-0.262419
-0.259375
-0.262003
-0.261282
-0.262647
-0.26295
-0.264101
-0.265058
-0.266546
-0.268238
-0.270458
-0.264342
-0.256453
-0.262579
-0.259363
-0.262034
-0.261287
-0.262634
-0.262926
-0.264052
-0.264992
-0.266454
-0.268124
-0.270319
-0.264742
-0.256244
-0.26275
-0.259344
-0.262059
-0.261287
-0.262615
-0.262898
-0.263998
-0.264921
-0.266356
-0.268004
-0.270172
-0.265138
-0.256122
-0.262832
-0.259331
-0.262077
-0.261281
-0.26259
-0.262864
-0.263938
-0.264845
-0.266253
-0.267877
-0.270018
-0.265568
-0.25596
-0.262916
-0.259328
-0.262069
-0.261279
-0.262557
-0.262825
-0.263872
-0.264763
-0.266143
-0.267743
-0.269856
-0.266023
-0.255768
-0.263004
-0.259316
-0.262054
-0.261269
-0.262516
-0.262781
-0.263801
-0.264675
-0.266028
-0.267604
-0.269687
-0.266496
-0.255566
-0.263078
-0.259299
-0.262031
-0.261252
-0.262468
-0.262731
-0.263724
-0.264583
-0.265907
-0.267458
-0.26951
-0.266986
-0.255359
-0.263133
-0.259279
-0.261996
-0.261229
-0.262412
-0.262675
-0.26364
-0.264484
-0.26578
-0.267306
-0.269327
-0.267493
-0.25515
-0.263167
-0.259257
-0.261947
-0.261199
-0.262348
-0.262612
-0.26355
-0.26438
-0.265648
-0.267149
-0.269138
-0.268016
-0.254943
-0.263179
-0.259233
-0.261884
-0.261162
-0.262274
-0.262542
-0.263454
-0.26427
-0.26551
-0.266986
-0.268942
-0.268551
-0.254743
-0.263166
-0.259207
-0.261806
-0.261118
-0.262192
-0.262465
-0.26335
-0.264153
-0.265366
-0.266817
-0.26874
-0.269095
-0.254556
-0.263126
-0.259178
-0.261713
-0.261064
-0.2621
-0.262379
-0.26324
-0.264031
-0.265217
-0.266642
-0.268533
-0.269642
-0.254388
-0.263057
-0.259145
-0.261605
-0.261001
-0.261997
-0.262285
-0.263122
-0.263901
-0.265062
-0.266462
-0.26832
-0.270183
-0.254246
-0.262957
-0.259108
-0.26148
-0.260928
-0.261884
-0.262183
-0.262996
-0.263765
-0.2649
-0.266276
-0.2681
-0.270705
-0.254138
-0.262826
-0.259066
-0.261338
-0.260843
-0.26176
-0.26207
-0.262862
-0.263622
-0.264732
-0.266084
-0.267876
-0.271192
-0.254071
-0.262663
-0.259018
-0.261178
-0.260745
-0.261624
-0.261947
-0.262719
-0.26347
-0.264558
-0.265886
-0.267645
-0.269854
-0.27162
-0.254054
-0.262468
-0.258962
-0.261
-0.260634
-0.261476
-0.261812
-0.262566
-0.26331
-0.264376
-0.265682
-0.267408
-0.269582
-0.27196
-0.25409
-0.262241
-0.258896
-0.260803
-0.260507
-0.261314
-0.261666
-0.262403
-0.263142
-0.264187
-0.265471
-0.267166
-0.269303
-0.272171
-0.254185
-0.261985
-0.258818
-0.260587
-0.260364
-0.261138
-0.261506
-0.262229
-0.262963
-0.263989
-0.265252
-0.266916
-0.269017
-0.272204
-0.254338
-0.261701
-0.258727
-0.260351
-0.260203
-0.260947
-0.261333
-0.262043
-0.262774
-0.263783
-0.265026
-0.26666
-0.268725
-0.271994
-0.254544
-0.261393
-0.258621
-0.260094
-0.260022
-0.26074
-0.261145
-0.261845
-0.262574
-0.263566
-0.264791
-0.266396
-0.268426
-0.271459
-0.254788
-0.261063
-0.258496
-0.259814
-0.25982
-0.260515
-0.26094
-0.261632
-0.262361
-0.263339
-0.264547
-0.266123
-0.268119
-0.270497
-0.255042
-0.260714
-0.258352
-0.259511
-0.259594
-0.260272
-0.260718
-0.261404
-0.262134
-0.263101
-0.264293
-0.265843
-0.267805
-0.269032
-0.255296
-0.260365
-0.258198
-0.259193
-0.259351
-0.260016
-0.260483
-0.261165
-0.261898
-0.262855
-0.264032
-0.265557
-0.267486
-0.267025
-0.255548
-0.260035
-0.258047
-0.258867
-0.259093
-0.259746
-0.260234
-0.260913
-0.261648
-0.262593
-0.263755
-0.265253
-0.267147
-0.263954
-0.255565
-0.259621
-0.257835
-0.258465
-0.258758
-0.25941
-0.259924
-0.260604
-0.261346
-0.262284
-0.263434
-0.264907
-0.266766
-0.258212
-0.25475
-0.258946
-0.257412
-0.257871
-0.25827
-0.258951
-0.259517
-0.260223
-0.260995
-0.26195
-0.263112
-0.264585
-0.266437
-0.268764
-0.242845
-0.252308
-0.25802
-0.256917
-0.257087
-0.25766
-0.258386
-0.259029
-0.25977
-0.260589
-0.261573
-0.262763
-0.264255
-0.266122
-0.268457
-0.236205
-0.250026
-0.256781
-0.255552
-0.255343
-0.2561
-0.256974
-0.257744
-0.258575
-0.259495
-0.260566
-0.261835
-0.263387
-0.265298
-0.26765
-0.234303
-0.24731
-0.254424
-0.253418
-0.253064
-0.253993
-0.255073
-0.256009
-0.256971
-0.258021
-0.259208
-0.260581
-0.262216
-0.264185
-0.266565
-0.233688
-0.243854
-0.250717
-0.25039
-0.250163
-0.251267
-0.252589
-0.253738
-0.254871
-0.256082
-0.257414
-0.258912
-0.260646
-0.262686
-0.265099
-0.232534
-0.239803
-0.245876
-0.24641
-0.246563
-0.247864
-0.24944
-0.250842
-0.252186
-0.253586
-0.255088
-0.256731
-0.25858
-0.260701
-0.263153
-0.230104
-0.23519
-0.240201
-0.241543
-0.242262
-0.243803
-0.245627
-0.247298
-0.248879
-0.250488
-0.252177
-0.253981
-0.255956
-0.258164
-0.260657
-0.226232
-0.230009
-0.233986
-0.23597
-0.237337
-0.239165
-0.24122
-0.243154
-0.24498
-0.246805
-0.248684
-0.250652
-0.252756
-0.255051
-0.257583
-0.221111
-0.224307
-0.227481
-0.229921
-0.23192
-0.234068
-0.236336
-0.238506
-0.240566
-0.242599
-0.244659
-0.246781
-0.249006
-0.251379
-0.25394
-0.215085
-0.218185
-0.220863
-0.223609
-0.226154
-0.228631
-0.231099
-0.233474
-0.235744
-0.237965
-0.240187
-0.242445
-0.244772
-0.247208
-0.249783
-0.208487
-0.21177
-0.214233
-0.21719
-0.220172
-0.222962
-0.225621
-0.228172
-0.230622
-0.233007
-0.235368
-0.237737
-0.240145
-0.242622
-0.245193
-0.201584
-0.205183
-0.207644
-0.210763
-0.214077
-0.217149
-0.219992
-0.222696
-0.225297
-0.22782
-0.230296
-0.232753
-0.235218
-0.237717
-0.240265
-0.194574
-0.198524
-0.201121
-0.204383
-0.207946
-0.211261
-0.214279
-0.217118
-0.219846
-0.222484
-0.225052
-0.227576
-0.230078
-0.232579
-0.23509
-0.187589
-0.191872
-0.19468
-0.19808
-0.201829
-0.205348
-0.208527
-0.211489
-0.214324
-0.217056
-0.219699
-0.222271
-0.224794
-0.227283
-0.229744
-0.180713
-0.185287
-0.188332
-0.191869
-0.195762
-0.199446
-0.202769
-0.205843
-0.208769
-0.211578