/*--------------------------------*- C++ -*----------------------------------*\
  =========                 |
  \\      /  F ield         | OpenFOAM: The Open Source CFD Toolbox
   \\    /   O peration     | Website:  https://openfoam.org
    \\  /    A nd           | Version:  7
     \\/     M anipulation  |
\*---------------------------------------------------------------------------*/
FoamFile
{
    version     2.0;
    format      ascii;
    class       volVectorField;
    location    "20";
    object      U;
}
// * * * * * * * * * * * * * * * * * * * * * * * * * * * * * * * * * * * * * //

dimensions      [0 1 -1 0 0 0 0];

internalField   nonuniform List<vector> 
7156
(
(-0.0085901 0.000969153 8.87645e-23)
(-0.0122079 0.00109223 5.96978e-21)
(-0.0162077 0.00118893 6.14697e-21)
(-0.020503 0.00126212 1.92505e-22)
(-0.0250165 0.00131462 3.47195e-21)
(-0.029681 0.00134922 2.43369e-21)
(-0.0344383 0.00136863 -5.97082e-21)
(-0.03924 0.00137551 -3.59543e-21)
(-0.0440463 0.00137246 1.71849e-21)
(-0.0488268 0.001362 -1.64444e-21)
(-0.0535595 0.00134653 -1.91681e-21)
(-0.0582306 0.00132837 2.39578e-21)
(-0.0628343 0.00130965 -3.00395e-21)
(-0.067372 0.00129233 -4.64669e-21)
(-0.0718517 0.00127815 8.4692e-21)
(-0.0762871 0.00126852 1.25263e-21)
(-0.080696 0.00126451 2.9431e-21)
(-0.0850994 0.0012668 8.09629e-21)
(-0.0895262 0.00127556 2.05292e-22)
(-0.0939806 0.00129046 -1.00049e-21)
(-0.0984288 0.00131174 7.72759e-21)
(-0.0086373 0.00289782 -1.81324e-21)
(-0.012257 0.00326417 8.88516e-21)
(-0.0162563 0.00355124 2.82936e-21)
(-0.0205488 0.00376773 3.16075e-21)
(-0.0250575 0.00392215 -5.63456e-21)
(-0.0297151 0.00402287 1.38501e-21)
(-0.0344638 0.00407809 1.5952e-20)
(-0.039255 0.00409579 5.9311e-21)
(-0.0440493 0.00408376 -9.43332e-21)
(-0.0488161 0.00404953 -5.13568e-22)
(-0.0535334 0.00400035 1.15097e-20)
(-0.0581877 0.0039431 9.02521e-22)
(-0.0627731 0.00388419 8.50339e-21)
(-0.067291 0.00382948 -9.2908e-21)
(-0.0717497 0.00378411 -8.11358e-21)
(-0.0761628 0.00375234 -1.6656e-20)
(-0.0805484 0.00373736 -2.05134e-21)
(-0.0849277 0.00374116 -1.71522e-20)
(-0.0893299 0.00376424 1.55918e-20)
(-0.0937591 0.00380554 5.13406e-21)
(-0.0981799 0.00386579 7.29483e-21)
(-0.00873161 0.00481971 5.28327e-21)
(-0.0123552 0.00542854 -1.20333e-20)
(-0.0163535 0.00590535 8.01689e-21)
(-0.0206404 0.00626461 -2.4384e-21)
(-0.0251394 0.00652051 3.54427e-21)
(-0.0297834 0.00668696 2.68103e-21)
(-0.0345148 0.00677761 -3.5065e-20)
(-0.0392853 0.00680576 7.93737e-21)
(-0.0440554 0.00678439 7.40713e-21)
(-0.0487948 0.00672603 7.36844e-21)
(-0.0534817 0.00664275 1.93802e-20)
(-0.0581023 0.00654602 3.24904e-21)
(-0.0626511 0.00644654 -2.21785e-21)
(-0.0671297 0.0063541 2.03218e-20)
(-0.0715463 0.0062773 1.17785e-20)
(-0.0759149 0.00622325 3.27467e-20)
(-0.0802539 0.00619732 -7.93627e-21)
(-0.084585 0.00620284 3.20677e-20)
(-0.088938 0.00624064 -3.87977e-20)
(-0.0933169 0.00630896 -8.27947e-21)
(-0.097683 0.00640907 5.11562e-21)
(-0.00887275 0.00673036 -1.94396e-20)
(-0.0125021 0.00758036 9.56684e-21)
(-0.0164989 0.00824586 -2.37083e-20)
(-0.0207776 0.00874701 -5.73088e-21)
(-0.0252621 0.00910363 1.30864e-20)
(-0.0298858 0.00933515 -2.70523e-20)
(-0.0345914 0.00946062 4.25324e-20)
(-0.0393308 0.00949863 -6.01453e-21)
(-0.0440648 0.00946731 -8.24046e-22)
(-0.0487632 0.0093842 -2.55143e-20)
(-0.0534043 0.00926617 -2.81381e-20)
(-0.0579746 0.0091293 -3.38164e-21)
(-0.0624686 0.00898863 -1.67621e-21)
(-0.066888 0.0088579 -5.21016e-20)
(-0.0712414 0.00874922 -4.68406e-20)
(-0.0755434 0.00867265 -3.28963e-21)
(-0.0798126 0.00863579 1.58067e-20)
(-0.0840713 0.00864338 -1.14989e-20)
(-0.0883504 0.00869659 -1.09868e-20)
(-0.0926538 0.00879298 6.54137e-21)
(-0.0969382 0.00893446 1.39244e-20)
(-0.00906033 0.00862536 1.01587e-20)
(-0.0126975 0.00971473 -2.74673e-20)
(-0.0166923 0.0105674 2.34349e-20)
(-0.02096 0.0112092 1.90492e-20)
(-0.0254253 0.0116655 -6.44305e-21)
(-0.030022 0.0119612 4.30019e-20)
(-0.0346933 0.0121206 -4.14172e-20)
(-0.0393914 0.0121676 2.55403e-20)
(-0.0440774 0.0121255 -3.03879e-20)
(-0.0487213 0.0120168 5.02687e-20)
(-0.0533014 0.0118631 1.91921e-21)
(-0.0578047 0.0116852 -2.43669e-20)
(-0.0622255 0.0115024 -9.12343e-22)
(-0.0665661 0.0113326 5.65002e-20)
(-0.0708354 0.0111914 6.70495e-20)
(-0.0750483 0.0110919 -3.58613e-20)
(-0.0792242 0.0110442 -4.87098e-20)
(-0.0833864 0.0110543 3.59303e-20)
(-0.087567 0.0111239 -4.40763e-21)
(-0.0917698 0.0112499 9.07742e-21)
(-0.0959451 0.0114349 1.02047e-20)
(-0.00929382 0.0105004 6.04744e-21)
(-0.0129407 0.0118268 4.25034e-20)
(-0.0169332 0.0128648 -2.82752e-20)
(-0.0211874 0.0136456 -4.31263e-20)
(-0.0256288 0.0142003 -1.48169e-20)
(-0.0301919 0.0145589 -1.13258e-20)
(-0.0348204 0.0147511 -2.35804e-20)
(-0.039467 0.0148061 -3.16532e-21)
(-0.0440931 0.0147521 -5.63515e-22)
(-0.0486689 0.0146165 -1.21004e-20)
(-0.0531731 0.014426 1.22537e-20)
(-0.0575926 0.0142058 -6.08211e-21)
(-0.0619221 0.0139798 4.33902e-20)
(-0.0661642 0.0137698 3.38663e-20)
(-0.0703281 0.0135953 -6.34261e-21)
(-0.0744296 0.0134724 2.83413e-20)
(-0.0784889 0.0134138 4.15092e-20)
(-0.0825301 0.0134271 1.13789e-21)
(-0.0865874 0.0135144 5.58485e-20)
(-0.0906644 0.0136718 -3.65899e-20)
(-0.0947036 0.0139033 -5.46725e-20)
(-0.00957254 0.0123513 -1.61066e-21)
(-0.0132312 0.0139118 -1.69875e-20)
(-0.017221 0.0151327 -4.84505e-21)
(-0.0214591 0.0160507 6.40209e-20)
(-0.025872 0.016702 3.65475e-20)
(-0.030395 0.0171221 -4.122e-21)
(-0.0349724 0.0173458 6.3524e-20)
(-0.0395574 0.0174074 8.42728e-21)
(-0.0441119 0.0173401 1.08872e-20)
(-0.0486063 0.0171764 -6.57375e-20)
(-0.0530194 0.0169476 -4.06744e-20)
(-0.0573385 0.0166837 -9.9577e-21)
(-0.0615585 0.0164129 -6.92641e-20)
(-0.0656823 0.0161613 -1.91353e-20)
(-0.0697198 0.0159524 -3.8869e-20)
(-0.0736874 0.0158055 8.24773e-20)
(-0.0776064 0.0157359 -2.89192e-20)
(-0.0815022 0.0157532 -1.06962e-20)
(-0.0854113 0.0158597 -6.60622e-20)
(-0.0893373 0.0160512 4.50126e-20)
(-0.0932132 0.0163328 2.30991e-20)
(-0.00989572 0.0141739 -2.82458e-20)
(-0.0135682 0.0159652 1.02027e-20)
(-0.0175549 0.0173663 1.13696e-20)
(-0.0217745 0.0184192 -5.88298e-20)
(-0.0261543 0.0191651 -1.19264e-20)
(-0.0306308 0.0196449 4.49724e-20)
(-0.0351489 0.0198985 -8.07584e-20)
(-0.0396624 0.0199651 -3.50842e-20)
(-0.0441336 0.019883 9.31791e-21)
(-0.0485332 0.0196894 6.97772e-20)
(-0.0528404 0.0194205 -1.33879e-20)
(-0.0570425 0.019111 3.53576e-20)
(-0.0611348 0.0187937 6.84373e-20)
(-0.0651206 0.018499 -3.70418e-20)
(-0.0690104 0.0182542 -6.36376e-20)
(-0.0728215 0.0180825 1.33536e-21)
(-0.0765764 0.0180019 5.27007e-20)
(-0.0803021 0.0180238 1.17574e-20)
(-0.0840379 0.0181515 -4.82938e-21)
(-0.0877875 0.01838 -6.05911e-20)
(-0.0914731 0.0187163 -2.34256e-20)
(-0.0102624 0.0159642 -3.8151e-20)
(-0.0139508 0.0179825 -4.15885e-20)
(-0.0179342 0.0195606 -2.59621e-20)
(-0.0221328 0.0207457 2.01541e-20)
(-0.0264752 0.0215841 9.17704e-21)
(-0.0308989 0.0221216 -5.05009e-21)
(-0.0353496 0.0224031 1.81593e-20)
(-0.0397817 0.0224729 6.2404e-20)
(-0.044158 0.022374 -2.31622e-20)
(-0.0484497 0.0221487 4.13505e-20)
(-0.052636 0.0218377 2.58814e-20)
(-0.0567046 0.0214804 2.0913e-20)
(-0.0606511 0.0211145 5.08816e-20)
(-0.0644791 0.0207746 -4.82042e-20)
(-0.0681998 0.0204924 1.01816e-19)
(-0.0718316 0.0202947 -7.5094e-20)
(-0.0753985 0.0202028 4.05655e-20)
(-0.0789292 0.0202304 -4.8231e-20)
(-0.0824663 0.0203814 4.96253e-20)
(-0.0860139 0.0206506 -3.40855e-21)
(-0.0894821 0.0210471 3.07445e-20)
(-0.0106716 0.0177186 3.37513e-20)
(-0.0143779 0.0199594 5.17063e-20)
(-0.0183578 0.0217109 4.11934e-20)
(-0.0225331 0.0230252 4.2062e-20)
(-0.0268338 0.0239534 7.4949e-21)
(-0.0311984 0.0245463 4.24102e-20)
(-0.0355736 0.0248538 2.28037e-21)
(-0.0399147 0.0249246 -7.74906e-20)
(-0.0441847 0.0248069 1.7452e-20)
(-0.0483553 0.0245475 -5.81083e-20)
(-0.052406 0.024192 1.26513e-20)
(-0.0563247 0.0237846 -4.9497e-20)
(-0.0601072 0.0233674 -8.06534e-20)
(-0.0637576 0.02298 -5.20608e-20)
(-0.0672879 0.0226583 -3.52304e-20)
(-0.0707174 0.0224334 -3.3011e-20)
(-0.0740719 0.0223297 -4.20737e-20)
(-0.0773823 0.0223639 -6.23263e-21)
(-0.0806951 0.0225408 -1.45029e-21)
(-0.084015 0.022855 4.51003e-20)
(-0.0872384 0.0233183 1.18618e-20)
(-0.0111222 0.0194334 -1.36033e-20)
(-0.0148484 0.0218919 7.41634e-20)
(-0.0188246 0.0238128 -5.62215e-20)
(-0.0229743 0.0252528 -4.73288e-20)
(-0.0272291 0.026268 6.42534e-21)
(-0.0315285 0.0269138 -5.11841e-20)
(-0.0358205 0.0272447 3.88637e-20)
(-0.0400607 0.0273143 -2.10793e-20)
(-0.0442132 0.0271753 -5.01088e-20)
(-0.0482497 0.0268793 3.00223e-20)
(-0.0521502 0.0264767 -4.24946e-20)
(-0.0559025 0.0260163 -7.37066e-20)
(-0.059503 0.025545 9.93146e-20)
(-0.0629559 0.0251073 1.27309e-19)
(-0.066274 0.0247438 -2.46164e-20)
(-0.0694782 0.0244898 6.12467e-20)
(-0.0725958 0.0243738 2.92019e-20)
(-0.0756601 0.0244156 -2.46481e-20)
(-0.0787224 0.0246211 -3.83278e-20)
(-0.0817885 0.0249852 -6.95552e-20)
(-0.0847397 0.0255232 -2.10228e-20)
(-0.0116128 0.0211051 1.95772e-20)
(-0.015361 0.0237759 -5.17706e-20)
(-0.0193334 0.0258618 8.42869e-20)
(-0.0234553 0.0274239 -8.69864e-21)
(-0.0276599 0.0285229 2.43799e-20)
(-0.0318882 0.0292187 2.5412e-20)
(-0.036089 0.0295704 2.48131e-20)
(-0.0402191 0.0296362 9.30067e-20)
(-0.0442428 0.0294733 1.05285e-20)
(-0.0481324 0.0291379 6.4822e-20)
(-0.0518679 0.0286851 4.99037e-20)
(-0.0554376 0.0281685 1.39091e-19)
(-0.0588378 0.0276399 -5.82368e-20)
(-0.0620733 0.0271487 1.60358e-20)
(-0.0651577 0.0267403 -2.65057e-20)
(-0.0681129 0.0264552 -1.19463e-19)
(-0.0709685 0.0263261 6.6436e-20)
(-0.0737607 0.0263762 8.40786e-20)
(-0.0765458 0.0266134 6.77329e-21)
(-0.0793315 0.027033 6.98871e-20)
(-0.0819824 0.0276549 3.14717e-20)
(-0.0121421 0.0227306 -3.47477e-20)
(-0.0159142 0.0256079 -5.9235e-20)
(-0.0198826 0.0278539 -1.57734e-21)
(-0.0239745 0.029534 1.90246e-20)
(-0.0281249 0.0307132 -5.80266e-20)
(-0.0322762 0.0314559 7.21813e-20)
(-0.0363782 0.0318255 -1.49932e-20)
(-0.0403886 0.0318847 1.17601e-20)
(-0.0442724 0.031695 8.46552e-20)
(-0.0480023 0.0313172 -2.52681e-21)
(-0.0515584 0.0308109 8.35715e-21)
(-0.0549291 0.0302345 -4.34957e-20)
(-0.058111 0.0296448 -9.67368e-20)
(-0.0611091 0.0290963 -9.52585e-20)
(-0.0639376 0.0286398 6.46068e-20)
(-0.0666201 0.0283209 7.03989e-20)
(-0.0691883 0.0281774 -7.87647e-20)
(-0.0716815 0.0282367 -6.50036e-20)
(-0.0741621 0.0285088 1.55226e-19)
(-0.0766403 0.0289903 7.32362e-21)
(-0.0789625 0.0297065 -3.04548e-21)
(-0.0165064 0.0273844 5.03156e-20)
(-0.0204707 0.0297851 -3.91146e-20)
(-0.0245305 0.0315788 -1.23114e-19)
(-0.0286226 0.0328345 9.39911e-20)
(-0.0326909 0.0336208 -1.66744e-19)
(-0.0366865 0.0340052 -4.40106e-20)
(-0.040568 0.0340547 -1.4799e-19)
(-0.0443009 0.0338351 1.67706e-20)
(-0.0478582 0.0334115 -2.89211e-20)
(-0.0512205 0.0328481 1.85514e-20)
(-0.054376 0.0322079 -6.58879e-20)
(-0.0573213 0.0315529 1.23052e-19)
(-0.0600617 0.0309429 2.51992e-20)
(-0.0626123 0.0304343 -8.47062e-20)
(-0.0649979 0.0300784 6.40039e-20)
(-0.0672527 0.0299188 1.55484e-19)
(-0.0694194 0.0299877 5.41895e-20)
(-0.0715673 0.0302981 -1.03328e-19)
(-0.07371 0.0308485 1.31015e-20)
(-0.0756741 0.0316713 5.33884e-20)
(-0.017136 0.029102 -3.11622e-20)
(-0.0210959 0.0316519 1.00032e-19)
(-0.0251214 0.0335544 1.71161e-19)
(-0.0291512 0.0348825 -1.04866e-19)
(-0.0331307 0.0357087 1.76488e-19)
(-0.0370123 0.0361046 7.41879e-20)
(-0.0407554 0.0361411 1.59571e-19)
(-0.0443264 0.0358883 -3.0422e-20)
(-0.0476986 0.0354153 -1.04612e-19)
(-0.0508526 0.0347908 -1.07303e-19)
(-0.0537765 0.0340826 4.23239e-20)
(-0.056467 0.0333576 -3.97708e-21)
(-0.0589295 0.0326813 9.85358e-20)
(-0.0611796 0.0321159 1.16912e-19)
(-0.0632437 0.0317193 -1.59948e-19)
(-0.0651584 0.0315412 -2.61533e-19)
(-0.0669703 0.0316197 -8.73557e-20)
(-0.0687563 0.0319719 1.1552e-19)
(-0.0705345 0.0325989 -1.18932e-19)
(-0.0721104 0.0335421 -5.96732e-20)
(-0.0178011 0.0307578 1.17122e-19)
(-0.0217562 0.0334509 -3.04325e-20)
(-0.0257453 0.0354571 1.92402e-20)
(-0.0297086 0.0368532 9.35585e-21)
(-0.0335933 0.0377154 -3.30804e-20)
(-0.0373533 0.0381193 -7.04875e-20)
(-0.0409488 0.0381394 -1.76859e-19)
(-0.044347 0.0378497 -3.16164e-20)
(-0.0475213 0.0373236 -2.81855e-20)
(-0.0504524 0.0366337 3.91324e-20)
(-0.0531285 0.0358528 -2.82239e-20)
(-0.0555458 0.0350527 -3.89422e-20)
(-0.0577099 0.0343046 -1.31217e-19)
(-0.0596367 0.0336773 -1.83143e-19)
(-0.0613541 0.0332353 2.70421e-19)
(-0.0629013 0.0330356 1.00177e-20)
(-0.0643292 0.0331235 2.8261e-21)
(-0.065723 0.0335208 -1.21915e-19)
(-0.0671067 0.0342326 3.87521e-20)
(-0.0682625 0.0353117 9.60245e-20)
(-0.0184995 0.032349 -1.56668e-19)
(-0.0224495 0.0351788 -1.20898e-19)
(-0.0263997 0.0372833 -1.12537e-19)
(-0.0302924 0.0387428 -1.07481e-19)
(-0.0340764 0.039637 7.17577e-20)
(-0.0377071 0.0400451 -6.1264e-20)
(-0.0411457 0.0400452 5.85012e-20)
(-0.0443598 0.039715 -1.12802e-20)
(-0.0473235 0.0391316 5.94033e-20)
(-0.0500173 0.038372 3.74362e-20)
(-0.052429 0.0375133 2.36495e-20)
(-0.0545546 0.0366325 1.16715e-19)
(-0.0563995 0.0358067 9.5106e-20)
(-0.0579799 0.0351114 -4.14074e-20)
(-0.0593248 0.0346185 -2.65216e-19)
(-0.0604763 0.0343934 1.57211e-19)
(-0.0614896 0.0344895 6.06276e-20)
(-0.0624597 0.0349349 2.16412e-20)
(-0.0634174 0.0357402 8.65892e-20)
(-0.0641197 0.0369724 -4.73475e-21)
(-0.0192292 0.0338731 1.65795e-19)
(-0.0231734 0.0368328 9.11021e-20)
(-0.0270821 0.0390298 -6.93534e-20)
(-0.0308999 0.0405478 6.77339e-20)
(-0.0345771 0.0414698 -6.07122e-20)
(-0.0380706 0.0418781 -2.24669e-20)
(-0.0413427 0.0418545 1.30456e-19)
(-0.0443618 0.04148 1.23806e-19)
(-0.0471019 0.0408352 8.10124e-20)
(-0.0495436 0.0400012 -8.21468e-20)
(-0.0516744 0.0390594 7.76854e-20)
(-0.0534895 0.0380919 -2.53358e-19)
(-0.054994 0.0371818 5.15197e-20)
(-0.0562042 0.0364116 -1.53324e-20)
(-0.0571503 0.0358616 9.8153e-20)
(-0.0578769 0.0356062 -1.21697e-19)
(-0.0584441 0.0357084 -9.20844e-20)
(-0.0589571 0.0362045 3.22195e-20)
(-0.059456 0.0371123 -7.49114e-20)
(-0.0596693 0.0385163 -8.81315e-20)
(-0.0199877 0.0353276 -9.87284e-20)
(-0.0239252 0.0384101 8.3605e-20)
(-0.0277898 0.0406937 8.91073e-20)
(-0.0315279 0.042265 -1.23981e-20)
(-0.0350921 0.0432103 -6.37064e-20)
(-0.0384404 0.0436149 4.36254e-20)
(-0.0415363 0.0435637 -3.46183e-20)
(-0.0443488 0.043141 1.56228e-20)
(-0.0468522 0.0424307 -9.14144e-20)
(-0.049027 0.0415174 7.1795e-20)
(-0.0508598 0.0404869 2.14084e-20)
(-0.0523454 0.0394263 1.06571e-19)
(-0.053488 0.0384247 -1.58954e-19)
(-0.0543038 0.0375721 3.05277e-19)
(-0.0548237 0.0369576 1.31806e-19)
(-0.0550952 0.0366659 4.34708e-21)
(-0.0551832 0.0367713 9.8884e-20)
(-0.0552043 0.03732 -3.33631e-20)
(-0.0552098 0.0383392 1.65604e-19)
(-0.0548957 0.0399352 1.37435e-19)
(-0.0207724 0.0367106 2.00114e-19)
(-0.0247021 0.0399084 -2.32508e-20)
(-0.0285194 0.0422722 5.78327e-20)
(-0.0321731 0.0438915 1.03647e-19)
(-0.0356176 0.0448554 1.66029e-20)
(-0.0388123 0.0452523 8.59435e-21)
(-0.0417219 0.0451697 -7.23106e-20)
(-0.0443161 0.0446948 4.21873e-21)
(-0.0465694 0.0439147 2.98824e-20)
(-0.0484617 0.0429174 -6.4017e-21)
(-0.0499793 0.0417925 1.19697e-19)
(-0.0511158 0.0406321 -1.03947e-19)
(-0.0518745 0.0395313 1.62499e-19)
(-0.0522709 0.0385879 -4.1587e-20)
(-0.0523366 0.0379004 -2.98244e-19)
(-0.0521214 0.0375652 5.44371e-22)
(-0.0516956 0.0376695 -1.52501e-19)
(-0.051188 0.0382717 -8.84647e-20)
(-0.0506638 0.039411 -1.5336e-19)
(-0.0497811 0.0412201 -1.54786e-19)
(-0.0255008 0.0413254 -2.85529e-20)
(-0.0292675 0.0437628 -1.26908e-20)
(-0.0328315 0.0454246 -2.56943e-20)
(-0.0361491 0.0464025 2.47117e-20)
(-0.0391814 0.0467874 2.78678e-20)
(-0.0418943 0.0466695 -4.17667e-20)
(-0.0442579 0.0461386 -1.58421e-19)
(-0.0462471 0.0452846 1.702e-20)
(-0.0478413 0.0441984 -5.71494e-20)
(-0.0490258 0.0429734 -1.10536e-19)
(-0.0497931 0.0417063 5.34368e-20)
(-0.0501451 0.0404983 -2.86437e-20)
(-0.0500963 0.0394549 -4.72037e-20)
(-0.0496785 0.038685 2.66353e-19)
(-0.0489438 0.0382976 6.53759e-20)
(-0.0479676 0.0383952 4.36022e-20)
(-0.0468922 0.0390508 -1.06618e-19)
(-0.0458005 0.0403182 4.37507e-20)
(-0.0443041 0.0423616 9.66521e-20)
(-0.026318 0.0426591 -8.67515e-20)
(-0.03003 0.0451633 -9.08348e-20)
(-0.0334985 0.0468619 -1.08267e-19)
(-0.0366817 0.0478489 1.13383e-19)
(-0.0395423 0.0482177 -4.58328e-20)
(-0.0420473 0.0480608 1.01043e-19)
(-0.0441675 0.0474702 9.96773e-20)
(-0.0458779 0.0465383 1.87094e-20)
(-0.0471574 0.0453586 2.03526e-19)
(-0.0479904 0.0440278 -7.03615e-20)
(-0.0483676 0.0426471 -5.20746e-20)
(-0.0482892 0.0413233 4.93656e-20)
(-0.0477685 0.0401702 -6.5121e-20)
(-0.0468368 0.0393074 -1.86678e-19)
(-0.0455481 0.0388578 1.0068e-19)
(-0.0439829 0.0389413 1.21487e-19)
(-0.0422981 0.0396488 1.03316e-19)
(-0.0405996 0.0410514 -3.14535e-20)
(-0.0384398 0.0433492 -1.04421e-19)
(-0.0271497 0.0439077 -6.86629e-20)
(-0.0308026 0.0464717 6.44554e-20)
(-0.0341692 0.0482012 -4.68417e-20)
(-0.0372097 0.0491925 5.11938e-20)
(-0.0398885 0.0495411 1.06463e-19)
(-0.0421737 0.0493416 -1.1799e-19)
(-0.044037 0.0486878 -2.98225e-19)
(-0.0454531 0.0476742 -1.8469e-19)
(-0.0464006 0.0463967 -2.3656e-19)
(-0.0468624 0.0449548 1.1113e-19)
(-0.0468277 0.0434535 2.74552e-20)
(-0.0462944 0.0420054 -8.47987e-20)
(-0.0452738 0.0407323 -7.55533e-20)
(-0.0437962 0.039765 -2.51359e-20)
(-0.0419171 0.0392418 1.0363e-19)
(-0.039722 0.0393023 -1.16934e-19)
(-0.037383 0.040059 1.52531e-19)
(-0.0350379 0.0416024 3.73449e-20)
(-0.0321599 0.0441746 -2.65821e-20)
(-0.027992 0.0450696 -7.75559e-20)
(-0.0315805 0.0476862 1.44442e-19)
(-0.034838 0.0494405 -1.17274e-20)
(-0.0377268 0.0504313 -5.12125e-20)
(-0.0402128 0.0507557 -1.87722e-19)
(-0.0422655 0.0505101 -5.19057e-20)
(-0.043857 0.04979 1.722e-19)
(-0.0449624 0.0486915 1.84397e-19)
(-0.0455593 0.0473123 8.34577e-20)
(-0.0456294 0.0457543 -6.90808e-20)
(-0.0451597 0.044126 3.39469e-20)
(-0.0441455 0.0425451 5.91525e-20)
(-0.0425955 0.0411413 -1.37655e-19)
(-0.0405384 0.0400571 2.20257e-20)
(-0.0380304 0.0394472 4.71093e-20)
(-0.0351613 0.0394739 -1.29425e-19)
(-0.0321198 0.0402755 -2.322e-20)
(-0.0290872 0.041966 -3.18112e-19)
(-0.0254393 0.0448542 4.96087e-20)
(-0.0323583 0.048805 -6.52476e-21)
(-0.0354987 0.0505783 -1.67287e-21)
(-0.0382257 0.0515635 -5.41849e-20)
(-0.040507 0.0518599 4.36205e-20)
(-0.0423131 0.0515651 1.81827e-19)
(-0.0436171 0.050776 2.28684e-20)
(-0.0443938 0.0495898 -1.34259e-19)
(-0.0446203 0.0481057 -2.33254e-19)
(-0.0442765 0.0464273 2.28356e-19)
(-0.0433471 0.0446661 1.17009e-20)
(-0.0418245 0.0429443 -4.28057e-20)
(-0.039714 0.0413991 1.01256e-20)
(-0.0370417 0.0401848 3.14393e-20)
(-0.0338637 0.0394738 1.24575e-19)
(-0.0302734 0.0394536 -2.24472e-19)
(-0.026475 0.0402925 1.61167e-19)
(-0.0226995 0.0421362 1.34282e-20)
(-0.018255 0.0454414 2.36584e-19)
(-0.0331302 0.0498269 -4.86603e-20)
(-0.0361444 0.0516128 -8.86471e-20)
(-0.0386984 0.0525879 1.44388e-19)
(-0.0407617 0.0528525 -3.36119e-20)
(-0.042306 0.0525057 1.20698e-19)
(-0.0433051 0.0516453 1.11048e-19)
(-0.0437337 0.0503694 -1.16581e-19)
(-0.0435681 0.048778 1.59799e-19)
(-0.0427865 0.0469759 -6.24256e-20)
(-0.041371 0.0450767 -1.78754e-19)
(-0.0393104 0.0432065 9.29248e-21)
(-0.0366062 0.0415095 7.14675e-20)
(-0.0332808 0.0401516 1.12606e-20)
(-0.0293889 0.0393234 -1.71745e-19)
(-0.0250269 0.0392403 1.44634e-19)
(-0.020413 0.0401055 1.78495e-19)
(-0.0157984 0.0421097 6.39836e-20)
(-0.0105148 0.045867 -1.63884e-19)
(-0.0338899 0.0507504 3.32505e-20)
(-0.0367675 0.0525429 5.83819e-20)
(-0.039136 0.0535029 -8.80526e-20)
(-0.0409665 0.0537324 -8.35712e-20)
(-0.0422321 0.0533313 -2.09892e-19)
(-0.0429071 0.0523981 1.55957e-19)
(-0.0429662 0.0510312 2.29944e-20)
(-0.0423848 0.0493311 -1.74514e-20)
(-0.0411394 0.0474032 9.89548e-21)
(-0.0392089 0.0453622 1.86561e-19)
(-0.0365785 0.0433373 -2.59864e-20)
(-0.0332449 0.0414788 1.44138e-20)
(-0.029226 0.0399636 -6.52095e-20)
(-0.0245734 0.039001 -5.17964e-20)
(-0.0193855 0.0388361 5.7064e-20)
(-0.0138965 0.0397114 -5.14032e-19)
(-0.00836694 0.0418735 6.75523e-20)
(-0.00214486 0.0460461 4.70635e-20)
(-0.0346304 0.0515744 -4.60304e-20)
(-0.0373597 0.0533672 6.48405e-20)
(-0.0395287 0.0543077 1.12156e-19)
(-0.04111 0.0544989 1.73155e-19)
(-0.0420781 0.0540416 3.59881e-20)
(-0.0424077 0.0530347 -1.0994e-19)
(-0.0420736 0.0515766 2.43653e-19)
(-0.0410503 0.0497677 2.2597e-20)
(-0.0393122 0.0477131 2.93336e-20)
(-0.0368353 0.0455281 -6.22722e-20)
(-0.0336004 0.043344 4.94295e-20)
(-0.0295988 0.0413156 -9.45198e-20)
(-0.024843 0.0396301 1.22036e-19)
(-0.0193802 0.0385152 -4.86749e-20)
(-0.0133085 0.0382469 1.30276e-19)
(-0.00687852 0.0391118 2.61725e-19)
(-0.000368609 0.0414261 1.66223e-19)
(0.00688551 0.0460214 -1.88038e-19)
(-0.0379119 0.0540848 8.33971e-20)
(-0.0398655 0.0550012 -2.40667e-19)
(-0.0411793 0.0551512 4.85302e-20)
(-0.0418288 0.0546364 1.56728e-19)
(-0.0417895 0.0535558 2.14466e-20)
(-0.041036 0.0520074 -1.57211e-20)
(-0.0395417 0.050091 -1.0732e-19)
(-0.0372791 0.0479108 6.24935e-21)
(-0.0342209 0.0455818 -2.01017e-21)
(-0.0303433 0.0432357 -1.71704e-19)
(-0.0256318 0.0410312 -1.24468e-19)
(-0.0200924 0.0391637 -5.59036e-21)
(-0.0137664 0.0378786 2.24591e-20)
(-0.0067498 0.0374838 -3.49823e-19)
(0.000692128 0.0383143 1.40729e-20)
(0.00825423 0.0407654 -1.03827e-19)
(0.0166291 0.0458123 3.03274e-19)
(-0.0384142 0.0546945 -1.6108e-20)
(-0.0401347 0.0555825 -1.29264e-19)
(-0.0411604 0.055689 -3.54877e-19)
(-0.0414679 0.055116 -1.16452e-19)
(-0.0410333 0.0539624 2.27193e-19)
(-0.0398309 0.0523259 1.10903e-20)
(-0.0378332 0.0503048 1.47325e-19)
(-0.0350106 0.0480023 -1.22049e-19)
(-0.0313324 0.0455314 -3.27416e-20)
(-0.0267701 0.0430237 -1.88621e-20)
(-0.0213029 0.0406394 1.6445e-19)
(-0.0149293 0.0385807 -4.3356e-20)
(-0.00768327 0.0371088 1.19814e-19)
(0.000343286 0.0365635 6.34494e-20)
(0.0088722 0.0373316 1.76685e-19)
(0.0175659 0.0398968 -3.22524e-19)
(0.0271568 0.0454204 -1.03737e-19)
(-0.0388557 0.0551956 4.04092e-20)
(-0.0403233 0.0560511 2.91447e-19)
(-0.0410379 0.0561119 7.64455e-20)
(-0.0409773 0.0554805 1.38554e-19)
(-0.0401178 0.0542558 -1.55067e-19)
(-0.0384337 0.0525346 -8.01726e-20)
(-0.0358963 0.0504136 2.70044e-20)
(-0.032474 0.047994 -1.36831e-19)
(-0.0281327 0.0453866 8.17617e-20)
(-0.022839 0.0427208 1.68122e-19)
(-0.0165654 0.0401568 4.56144e-20)
(-0.00930232 0.037901 4.53306e-20)
(-0.00107534 0.0362283 2.32451e-19)
(0.00803022 0.0355086 9.84796e-20)
(0.0177256 0.0361834 -3.75866e-19)
(0.0276364 0.0388335 8.96433e-20)
(0.0385482 0.0448502 -9.72459e-20)
(-0.0392249 0.0555871 -8.47997e-20)
(-0.0404172 0.0564061 1.77151e-20)
(-0.0407951 0.0564196 5.93211e-22)
(-0.040337 0.0557304 -1.78396e-19)
(-0.0390197 0.0544374 6.25413e-20)
(-0.0368172 0.0526362 -2.48567e-20)
(-0.0336997 0.0504221 4.10276e-20)
(-0.0296332 0.0478934 5.93078e-20)
(-0.0245804 0.0451578 -8.91725e-20)
(-0.0185031 0.0423416 -1.89773e-19)
(-0.0113671 0.0396024 -5.54614e-20)
(-0.00315416 0.0371485 9.82334e-20)
(0.00611973 0.0352645 1.01119e-19)
(0.0163779 0.0343486 -1.64385e-19)
(0.0273236 0.0348972 2.73182e-19)
(0.0385427 0.0375963 -1.12852e-20)
(0.0508899 0.0441131 7.66467e-20)
(-0.0404013 0.0566471 -7.96823e-20)
(-0.0404137 0.0566119 -1.84277e-19)
(-0.0395256 0.0558661 5.13378e-20)
(-0.0377139 0.0545085 -1.96288e-19)
(-0.034952 0.0526337 -3.54228e-21)
(-0.0312087 0.0503351 -4.7202e-20)
(-0.0264483 0.047708 1.56369e-19)
(-0.02063 0.0448564 1.54665e-19)
(-0.0137109 0.0419017 -6.13928e-20)
(-0.0056501 0.0389974 1.67637e-19)
(0.00357925 0.0363501 1.60312e-19)
(0.0139715 0.0342504 -2.36173e-19)
(0.0254606 0.0331202 -6.93797e-20)
(0.0377453 0.0335094 -9.62893e-20)
(0.050369 0.0362146 1.2731e-19)
(0.0642753 0.043228 4.24143e-20)
(-0.0402593 0.0567734 -9.34818e-20)
(-0.0398745 0.0566886 2.89902e-19)
(-0.0385201 0.0558881 -1.17425e-19)
(-0.036173 0.0544706 1.54901e-19)
(-0.0328059 0.05253 1.57334e-19)
(-0.0283863 0.0501576 -4.30516e-20)
(-0.0228762 0.0474458 -4.7398e-20)
(-0.0162318 0.0444939 -9.07132e-20)
(-0.0084056 0.0414178 1.76652e-19)
(0.00064932 0.0383647 -2.78362e-19)
(0.0109684 0.0355361 1.36868e-19)
(0.0225566 0.0332237 4.05486e-20)
(0.0353603 0.0318672 -3.35727e-20)
(0.0490772 0.0320657 6.04363e-20)
(0.0632057 0.0347283 -1.85207e-19)
(0.0788038 0.0422231 7.29601e-20)
(-0.0399738 0.0567846 -8.81576e-20)
(-0.0391564 0.0566496 -2.69585e-20)
(-0.0372956 0.0557969 1.30556e-19)
(-0.0343677 0.0543253 -7.18222e-20)
(-0.0303446 0.0523281 -1.0665e-19)
(-0.0251922 0.0498947 8.34779e-20)
(-0.0188702 0.0471146 -2.76488e-19)
(-0.011332 0.0440822 2.29774e-19)
(-0.00252606 0.040907 2.26207e-19)
(0.00760028 0.0377282 2.76223e-20)
(0.0190902 0.0347389 -3.89941e-19)
(0.031959 0.0322262 -3.6391e-19)
(0.0461663 0.0306404 4.55522e-20)
(0.0614127 0.0306221 -1.83941e-19)
(0.0771488 0.033189 -6.34722e-20)
(0.0945797 0.0411378 -5.27157e-20)
(-0.0382372 0.0564949 -5.94479e-20)
(-0.0358255 0.055593 1.37602e-19)
(-0.0322668 0.054074 1.97708e-19)
(-0.0275314 0.0520307 -1.02447e-19)
(-0.0215836 0.0495512 -1.66219e-19)
(-0.0143808 0.0467219 -1.12065e-19)
(-0.00587352 0.0436328 -1.75632e-19)
(0.00399333 0.0403864 -9.22486e-20)
(0.015277 0.0371124 2.09861e-19)
(0.0280274 0.0339925 2.02868e-19)
(0.0422687 0.0313035 2.44873e-19)
(0.0579746 0.0294971 2.09348e-19)
(0.0748515 0.0292442 7.44435e-20)
(0.0922992 0.0316613 3.11412e-19)
(0.11171 0.0400248 -5.47222e-20)
(-0.0370932 0.0562245 9.4284e-20)
(-0.0340819 0.0552771 -1.65928e-19)
(-0.0298371 0.0537182 -2.53739e-19)
(-0.0243276 0.0516406 5.63706e-20)
(-0.0175153 0.0491315 -5.7834e-20)
(-0.00935533 0.046275 3.72124e-19)
(0.000204466 0.0431569 -7.959e-20)
(0.011222 0.0398726 9.42181e-21)
(0.0237581 0.0365415 3.53339e-19)
(0.0378676 0.0333314 1.52701e-19)
(0.0535818 0.0305029 -4.40988e-20)
(0.070887 0.0284993 1.38641e-19)
(0.0894986 0.0280075 2.94354e-19)
(0.108761 0.0302231 -1.2711e-19)
(0.130303 0.038952 6.14922e-21)
(-0.0356994 0.0558386 -1.79266e-20)
(-0.032035 0.0548499 -1.41816e-19)
(-0.0270438 0.0532594 1.32453e-19)
(-0.0206921 0.0511605 -6.02052e-20)
(-0.0129396 0.0486401 5.46096e-20)
(-0.00373865 0.0457808 2.29955e-20)
(0.00696541 0.0426648 9.0796e-20)
(0.0192327 0.0393811 9.56021e-20)
(0.033126 0.0360386 -5.79979e-19)
(0.0487029 0.0327892 -1.03886e-19)
(0.0659988 0.0298726 -3.01358e-19)
(0.0850103 0.0277126 -2.31865e-20)
(0.105463 0.0269955 -2.32976e-19)
(0.126639 0.0289661 -2.16286e-19)
(0.150466 0.0380044 6.52239e-20)
(-0.0296535 0.0543124 5.70992e-20)
(-0.02385 0.0526993 1.50078e-19)
(-0.0165823 0.0505931 -3.01695e-19)
(-0.00780699 0.0480812 1.57207e-19)
(0.00252653 0.0452456 -1.58293e-19)
(0.0144751 0.042166 -2.88926e-19)
(0.0281003 0.0389261 1.05621e-19)
(0.0434656 0.0356248 2.71203e-19)
(0.0606281 0.0323976 1.56069e-19)
(0.0796236 0.0294592 -5.76322e-20)
(0.100454 0.0272041 -2.38665e-19)
(0.122856 0.0262978 -4.17814e-20)
(0.146038 0.027995 1.89746e-19)
(0.172298 0.0372857 -1.49306e-19)
(-0.0269048 0.0536658 7.80167e-20)
(-0.0202176 0.0520398 8.50012e-20)
(-0.0119537 0.0499412 1.52178e-19)
(-0.00206597 0.0474589 -2.154e-19)
(0.00949921 0.0446752 9.60197e-20)
(0.022801 0.0416689 3.18746e-20)
(0.0379018 0.03852 -1.29073e-19)
(0.0548634 0.035319 1.52418e-19)
(0.0737398 0.0321854 -3.05426e-19)
(0.0945616 0.0293066 5.06907e-19)
(0.11733 0.0270389 -1.0207e-19)
(0.14179 0.0260079 3.07105e-19)
(0.167062 0.027426 -1.44879e-19)
(0.195893 0.0369199 3.27964e-19)
(-0.0161067 0.0512835 -1.39367e-19)
(-0.00676013 0.0492082 2.98587e-19)
(0.00433625 0.0467773 -1.89536e-19)
(0.0172397 0.0440752 -1.36939e-20)
(0.0320116 0.0411812 2.07308e-19)
(0.0487142 0.0381737 1.9255e-19)
(0.0674062 0.0351371 -1.9916e-19)
(0.0881345 0.0321771 1.35819e-20)
(0.110918 0.0294536 -4.0457e-19)
(0.13575 0.0272785 2.36516e-19)
(0.162376 0.0262189 -2.06575e-19)
(0.18981 0.0273842 2.44968e-19)
(0.221331 0.0370524 -1.62276e-19)
(-0.011476 0.0504333 -1.3415e-20)
(-0.000954351 0.0483978 -1.3478e-19)
(0.0114536 0.0460413 8.15942e-20)
(0.0258091 0.0434514 3.70202e-21)
(0.0421757 0.04071 -1.8487e-19)
(0.0606147 0.0378963 -4.93952e-19)
(0.0811798 0.0350918 -2.0088e-19)
(0.103907 0.0323921 6.54848e-20)
(0.128797 0.0299319 2.17821e-19)
(0.155823 0.0279767 1.93755e-19)
(0.184721 0.02702 -8.77712e-20)
(0.214378 0.0280005 -3.79333e-19)
(0.248676 0.0378507 -6.47808e-20)
(0.00551218 0.0475147 -8.47894e-20)
(0.0193409 0.0452562 8.35047e-20)
(0.0352688 0.0428099 1.2343e-19)
(0.0533614 0.040262 1.49793e-19)
(0.0736787 0.0376955 3.48694e-19)
(0.0962671 0.0351929 5.6099e-19)
(0.121148 0.0328445 -2.04416e-19)
(0.148296 0.0307653 -4.79316e-20)
(0.177653 0.0291769 -9.87571e-20)
(0.20893 0.0284915 3.26446e-19)
(0.240858 0.0294074 1.80453e-19)
(0.277973 0.0395063 3.21844e-19)
(0.0126889 0.0465649 2.71508e-19)
(0.0280534 0.0444285 -3.59182e-19)
(0.0456798 0.0421574 1.83991e-19)
(0.0656357 0.0398442 -1.32796e-19)
(0.0879789 0.0375781 1.78678e-19)
(0.112747 0.0354471 -3.08348e-20)
(0.139943 0.0335423 -8.2307e-20)
(0.169509 0.0319675 -4.63358e-20)
(0.201341 0.0309091 1.70821e-19)
(0.2351 0.0306989 -2.07191e-19)
(0.269343 0.0317347 -7.9384e-20)
(0.309245 0.0422362 -3.02365e-19)
(0.0206259 0.045556 3.06742e-21)
(0.0376463 0.0435664 2.39082e-19)
(0.0571022 0.0415023 -1.52733e-19)
(0.0790631 0.0394643 -1.75424e-19)
(0.103584 0.0375506 -1.37025e-19)
(0.130692 0.0358586 -1.11901e-19)
(0.160369 0.0344877 -6.27701e-20)
(0.192519 0.0335412 -4.86708e-20)
(0.226978 0.0331863 -1.26683e-19)
(0.263328 0.033686 -6.99494e-20)
(0.299938 0.0351005 2.51748e-19)