/*--------------------------------*- C++ -*----------------------------------*\
  =========                 |
  \\      /  F ield         | OpenFOAM: The Open Source CFD Toolbox
   \\    /   O peration     | Website:  https://openfoam.org
    \\  /    A nd           | Version:  7
     \\/     M anipulation  |
\*---------------------------------------------------------------------------*/
FoamFile
{
    version     2.0;
    format      ascii;
    class       volScalarField;
    location    "260";
    object      p;
}
// * * * * * * * * * * * * * * * * * * * * * * * * * * * * * * * * * * * * * //

dimensions      [0 2 -2 0 0 0 0];

internalField   nonuniform List<scalar> 
7156
(
-0.657008
-0.649662
-0.662571
-0.655005
-0.649281
-0.643266
-0.668085
-0.660306
-0.654441
-0.648261
-0.641548
-0.634185
-0.625927
-0.673531
-0.665546
-0.659543
-0.653196
-0.646256
-0.638584
-0.629918
-0.620043
-0.608809
-0.596159
-0.678889
-0.670707
-0.66457
-0.658054
-0.650876
-0.642879
-0.633784
-0.623375
-0.611516
-0.598174
-0.583429
-0.567462
-0.550529
-0.684138
-0.675768
-0.669501
-0.662813
-0.655389
-0.647049
-0.637504
-0.626537
-0.614029
-0.599978
-0.584497
-0.567805
-0.550186
-0.531957
-0.513425
-0.49486
-0.476483
-0.689257
-0.68071
-0.674315
-0.667452
-0.659772
-0.651073
-0.641055
-0.629506
-0.61633
-0.601554
-0.58533
-0.567912
-0.549616
-0.530776
-0.51171
-0.492691
-0.473933
-0.455591
-0.437765
-0.420511
-0.403853
-0.694225
-0.68551
-0.678992
-0.671951
-0.664003
-0.654928
-0.644415
-0.632264
-0.6184
-0.602886
-0.585914
-0.567774
-0.548809
-0.529373
-0.509791
-0.490336
-0.471214
-0.452573
-0.434502
-0.41705
-0.400231
-0.384043
-0.36846
-0.353469
-0.339175
-0.699017
-0.690146
-0.683508
-0.676286
-0.668061
-0.658591
-0.647563
-0.634788
-0.620219
-0.603957
-0.586235
-0.567378
-0.547757
-0.527741
-0.507661
-0.487787
-0.46832
-0.449396
-0.431095
-0.413457
-0.396489
-0.380182
-0.364506
-0.349451
-0.33508
-0.703612
-0.694597
-0.687842
-0.680435
-0.67192
-0.66204
-0.650476
-0.637057
-0.621769
-0.604752
-0.58628
-0.566714
-0.546451
-0.525873
-0.505314
-0.485041
-0.465246
-0.446055
-0.427538
-0.409726
-0.39262
-0.376204
-0.360445
-0.345333
-0.330892
-0.707985
-0.698838
-0.69197
-0.684374
-0.675559
-0.66525
-0.653132
-0.639052
-0.623032
-0.605255
-0.586036
-0.565772
-0.544883
-0.523761
-0.502744
-0.482092
-0.461986
-0.442544
-0.423826
-0.405853
-0.388619
-0.372104
-0.356271
-0.34111
-0.326607
-0.712112
-0.702846
-0.695868
-0.688079
-0.678953
-0.6682
-0.655509
-0.640753
-0.623991
-0.605451
-0.585492
-0.564543
-0.543044
-0.5214
-0.499945
-0.478933
-0.458536
-0.438859
-0.419953
-0.401832
-0.384483
-0.367878
-0.35198
-0.336778
-0.32222
-0.71597
-0.706598
-0.699514
-0.691528
-0.682078
-0.670864
-0.657584
-0.642138
-0.624627
-0.605327
-0.584636
-0.563017
-0.540929
-0.518783
-0.496911
-0.475559
-0.454889
-0.434994
-0.415916
-0.397659
-0.380205
-0.363522
-0.347568
-0.332333
-0.317729
-0.719535
-0.71007
-0.702882
-0.694694
-0.684911
-0.673222
-0.659337
-0.643189
-0.624925
-0.604867
-0.583456
-0.561184
-0.538528
-0.515903
-0.493637
-0.471966
-0.451041
-0.430944
-0.411708
-0.393329
-0.375782
-0.359031
-0.343032
-0.327772
-0.313128
-0.722781
-0.713237
-0.705949
-0.697555
-0.687427
-0.675248
-0.660746
-0.643888
-0.624869
-0.60406
-0.581943
-0.559038
-0.535836
-0.512754
-0.490116
-0.468147
-0.446986
-0.426705
-0.407326
-0.388837
-0.371209
-0.354401
-0.338366
-0.323089
-0.308416
-0.725686
-0.716077
-0.708691
-0.700087
-0.689604
-0.676923
-0.66179
-0.644216
-0.624444
-0.602893
-0.580086
-0.556569
-0.532844
-0.509331
-0.486345
-0.464098
-0.442721
-0.422271
-0.402764
-0.384179
-0.366483
-0.349628
-0.333568
-0.318283
-0.303589
-0.728224
-0.718564
-0.711084
-0.702265
-0.691417
-0.678222
-0.66245
-0.644156
-0.623635
-0.601355
-0.577876
-0.55377
-0.529548
-0.505628
-0.482316
-0.459815
-0.438239
-0.417639
-0.398018
-0.379352
-0.361599
-0.344708
-0.328633
-0.31335
-0.298644
-0.730372
-0.720675
-0.713104
-0.704066
-0.692844
-0.679124
-0.662707
-0.643692
-0.622428
-0.599433
-0.575305
-0.550634
-0.525942
-0.50164
-0.478027
-0.455291
-0.433537
-0.412803
-0.393085
-0.37435
-0.356553
-0.339638
-0.32356
-0.308287
-0.293579
-0.732106
-0.722387
-0.714727
-0.705466
-0.693863
-0.67961
-0.662542
-0.642807
-0.620811
-0.597119
-0.572364
-0.547155
-0.522018
-0.497362
-0.473471
-0.450524
-0.428611
-0.407761
-0.38796
-0.36917
-0.351342
-0.334416
-0.318344
-0.303091
-0.28839
-0.733404
-0.723677
-0.715932
-0.706445
-0.694452
-0.679659
-0.661937
-0.641488
-0.618772
-0.594403
-0.569045
-0.543326
-0.517773
-0.492788
-0.468645
-0.445508
-0.423456
-0.402507
-0.382639
-0.36381
-0.345963
-0.329037
-0.312984
-0.29776
-0.283075
-0.734244
-0.724524
-0.716696
-0.706978
-0.694591
-0.679253
-0.660876
-0.63972
-0.6163
-0.591275
-0.565342
-0.539142
-0.513202
-0.487916
-0.463545
-0.440241
-0.418069
-0.397039
-0.37712
-0.358265
-0.340413
-0.323499
-0.307475
-0.292291
-0.277633
-0.734604
-0.724904
-0.716997
-0.707047
-0.694259
-0.678373
-0.659345
-0.637491
-0.613385
-0.587729
-0.56125
-0.534598
-0.5083
-0.482741
-0.458167
-0.434718
-0.412446
-0.391352
-0.371399
-0.352533
-0.334689
-0.317799
-0.301817
-0.286683
-0.272062
-0.734464
-0.724799
-0.716814
-0.706629
-0.693438
-0.677002
-0.657327
-0.634789
-0.610017
-0.583757
-0.556761
-0.529689
-0.503064
-0.477258
-0.452508
-0.428936
-0.406585
-0.385445
-0.365474
-0.346611
-0.328789
-0.311936
-0.296007
-0.280932
-0.266359
-0.733803
-0.724187
-0.716128
-0.705707
-0.69211
-0.675125
-0.654811
-0.631604
-0.606188
-0.579353
-0.551872
-0.524411
-0.497489
-0.471467
-0.446564
-0.422892
-0.400482
-0.379315
-0.359341
-0.340497
-0.32271
-0.305907
-0.290043
-0.275039
-0.260524
-0.732603
-0.723049
-0.714919
-0.704261
-0.690257
-0.672727
-0.651783
-0.627925
-0.601892
-0.574512
-0.546577
-0.518761
-0.491573
-0.465362
-0.440333
-0.416584
-0.394135
-0.372959
-0.353
-0.334188
-0.316451
-0.299711
-0.283924
-0.269
-0.254555
-0.730846
-0.721368
-0.713171
-0.702275
-0.687865
-0.669794
-0.648233
-0.623744
-0.597121
-0.569228
-0.540875
-0.512736
-0.485314
-0.458943
-0.433813
-0.410009
-0.387542
-0.366375
-0.346447
-0.327684
-0.31001
-0.293345
-0.277647
-0.262817
-0.248456
-0.728516
-0.719127
-0.710865
-0.699733
-0.684919
-0.666314
-0.644151
-0.619055
-0.591871
-0.563497
-0.534761
-0.506334
-0.478709
-0.452206
-0.427002
-0.403167
-0.380701
-0.359562
-0.339681
-0.320983
-0.303386
-0.286809
-0.271211
-0.256489
-0.242225
-0.725596
-0.71631
-0.707987
-0.69662
-0.681405
-0.662277
-0.639529
-0.61385
-0.586136
-0.557318
-0.528233
-0.499553
-0.471758
-0.445152
-0.419898
-0.396055
-0.373612
-0.352518
-0.332702
-0.314083
-0.296577
-0.2801
-0.264615
-0.250012
-0.235844
-0.722073
-0.712902
-0.704522
-0.692923
-0.677313
-0.657672
-0.634358
-0.608125
-0.579914
-0.550687
-0.521291
-0.492392
-0.464458
-0.437779
-0.412502
-0.388673
-0.366273
-0.345244
-0.325509
-0.306985
-0.289584
-0.27322
-0.257859
-0.243376
-0.229266
-0.717934
-0.708891
-0.700458
-0.688629
-0.672631
-0.652491
-0.628634
-0.601875
-0.573203
-0.543604
-0.513933
-0.48485
-0.45681
-0.430086
-0.404811
-0.381019
-0.358683
-0.337738
-0.318101
-0.299687
-0.282406
-0.266169
-0.250946
-0.236582
-0.22248
-0.713167
-0.704263
-0.695782
-0.683728
-0.66735
-0.646728
-0.622352
-0.595097
-0.566
-0.536067
-0.506159
-0.476928
-0.448813
-0.422073
-0.396827
-0.373095
-0.350843
-0.33
-0.310479
-0.292191
-0.275044
-0.258948
-0.243877
-0.229655
-0.215681
-0.707763
-0.69901
-0.690484
-0.678211
-0.661464
-0.640376
-0.615507
-0.587791
-0.558304
-0.528077
-0.49797
-0.468626
-0.440469
-0.413742
-0.388549
-0.364901
-0.342753
-0.322031
-0.302643
-0.284497
-0.267499
-0.251558
-0.236649
-0.222565
-0.208785
-0.701711
-0.693121
-0.684557
-0.67207
-0.654966
-0.633433
-0.608098
-0.579954
-0.550118
-0.519635
-0.489367
-0.459945
-0.431779
-0.405093
-0.379979
-0.356437
-0.334415
-0.313831
-0.294593
-0.276605
-0.259771
-0.243999
-0.229265
-0.215337
-0.201745
-0.695006
-0.68659
-0.677991
-0.665299
-0.647851
-0.625894
-0.600123
-0.571588
-0.541441
-0.510742
-0.480352
-0.450888
-0.422743
-0.396128
-0.371118
-0.347705
-0.325828
-0.305403
-0.286332
-0.268517
-0.251861
-0.236272
-0.221726
-0.20797
-0.194563
-0.687641
-0.679409
-0.670782
-0.657893
-0.640117
-0.617759
-0.591583
-0.562693
-0.532276
-0.501402
-0.470927
-0.441457
-0.413366
-0.386848
-0.361968
-0.338706
-0.316996
-0.296747
-0.27786
-0.260235
-0.243771
-0.228378
-0.214033
-0.200462
-0.187242
-0.679612
-0.671575
-0.662926
-0.649849
-0.63176
-0.609027
-0.582479
-0.553273
-0.522626
-0.491618
-0.461097
-0.431654
-0.403649
-0.377257
-0.352532
-0.329443
-0.30792
-0.287866
-0.26918
-0.251759
-0.235503
-0.220319
-0.206188
-0.192812
-0.179785
-0.670917
-0.663084
-0.654419
-0.641165
-0.622782
-0.599699
-0.572813
-0.543331
-0.512495
-0.481393
-0.450865
-0.421485
-0.393595
-0.367358
-0.342812
-0.319919
-0.298602
-0.278762
-0.260293
-0.243093
-0.227059
-0.212097
-0.198192
-0.185022
-0.172197
-0.661554
-0.653935
-0.645261
-0.631841
-0.613183
-0.589779
-0.56259
-0.532872
-0.501889
-0.470733
-0.440235
-0.410953
-0.38321
-0.357154
-0.332812
-0.310137
-0.289047
-0.269438
-0.251203
-0.234239
-0.21844
-0.203715
-0.190047
-0.177094
-0.164478
-0.651523
-0.644127
-0.635451
-0.621878
-0.602965
-0.579269
-0.551815
-0.5219
-0.490812
-0.459644
-0.429214
-0.400063
-0.372498
-0.34665
-0.322536
-0.300101
-0.279256
-0.259897
-0.241913
-0.2252
-0.209651
-0.195174
-0.181757
-0.16903
-0.156633
-0.640827
-0.633662
-0.624991
-0.611278
-0.592133
-0.568176
-0.540492
-0.510423
-0.479272
-0.448131
-0.417807
-0.388821
-0.361463
-0.335851
-0.311988
-0.289814
-0.269235
-0.250143
-0.232427
-0.215979
-0.200693
-0.186478
-0.173323
-0.160833
-0.629468
-0.622543
-0.613886
-0.600047
-0.580692
-0.556505
-0.528631
-0.498447
-0.467276
-0.436203
-0.40602
-0.377233
-0.350112
-0.324761
-0.301174
-0.279282
-0.258988
-0.240181
-0.222747
-0.20658
-0.191572
-0.177631
-0.617451
-0.610774
-0.602138
-0.588189
-0.568649
-0.544264
-0.516237
-0.485983
-0.454832
-0.423866
-0.393862
-0.365306
-0.338451
-0.313387
-0.290098
-0.26851
-0.24852
-0.230014
-0.21288
-0.197008
-0.18229
-0.604783
-0.598362
-0.589756
-0.575711
-0.556011
-0.531462
-0.503322
-0.473038
-0.441949
-0.41113
-0.381341
-0.353047
-0.326487
-0.301735
-0.278767
-0.257502
-0.237835
-0.219648
-0.202829
-0.187266
-0.591471
-0.585313
-0.576746
-0.562623
-0.542788
-0.518108
-0.489895
-0.459622
-0.428637
-0.398004
-0.368464
-0.340464
-0.314226
-0.289811
-0.267187
-0.246266
-0.226939
-0.209089
-0.192599
-0.577525
-0.571636
-0.563117
-0.548933
-0.528989
-0.504214
-0.475967
-0.445748
-0.414907
-0.384497
-0.35524
-0.327566
-0.301677
-0.277624
-0.255365
-0.234808
-0.21584
-0.562954
-0.557341
-0.54888
-0.534652
-0.514628
-0.489792
-0.461551
-0.431427
-0.400771
-0.370618
-0.34168
-0.314361
-0.288848
-0.26518
-0.243308
-0.223134
-0.547771
-0.542441
-0.534046
-0.519793
-0.499716
-0.474854
-0.446659
-0.416671
-0.386237
-0.356383
-0.327795
-0.300859
-0.275748
-0.252489
-0.231024
-0.531988
-0.526946
-0.518629
-0.50437
-0.484267
-0.459415
-0.431306
-0.401493
-0.371321
-0.341801
-0.313594
-0.28707
-0.262386
-0.239558
-0.515621
-0.510873
-0.502642
-0.488396
-0.468296
-0.44349
-0.415506
-0.385907
-0.356036
-0.326883
-0.299089
-0.273005
-0.248773
-0.498684
-0.494235
-0.486102
-0.471888
-0.45182
-0.427096
-0.399272
-0.369929
-0.340396
-0.311644
-0.284292
-0.258675
-0.481195
-0.477049
-0.469024
-0.454862
-0.434857
-0.410252
-0.382619
-0.353574
-0.324414
-0.296095
-0.269216
-0.463172
-0.459333
-0.451426
-0.437337
-0.417422
-0.392962
-0.365576
-0.336858
-0.308106
-0.280252
-0.253874
-0.444632
-0.441105
-0.433326
-0.419332
-0.399534
-0.375257
-0.34815
-0.319798
-0.291488
-0.264129
-0.425595
-0.422385
-0.414746
-0.400866
-0.381209
-0.357155
-0.33036
-0.30241
-0.274575
-0.406081
-0.403195
-0.395704
-0.381955
-0.362476
-0.338675
-0.312227
-0.284713
-0.386113
-0.383556
-0.376225
-0.362622
-0.343352
-0.319836
-0.29377
-0.365709
-0.36349
-0.356322
-0.342899
-0.323858
-0.300659
-0.344887
-0.343028
-0.336027
-0.3228
-0.304017
-0.281167
-0.323668
-0.322202
-0.315364
-0.30235
-0.283852
-0.302116
-0.301003
-0.294358
-0.281574
-0.28026
-0.279452
-0.273031
-0.260498
-0.258091
-0.2576
-0.251411
-0.235637
-0.235475
-0.21293
-0.2131
-0.189999
-0.166872
-0.0543613
-0.074858
-0.0951491
-0.0952931
-0.115205
-0.115019
-0.134996
-0.134489
-0.129372
-0.154496
-0.153677
-0.148343
-0.137946
-0.173711
-0.172535
-0.167013
-0.1564
-0.192605
-0.191047
-0.185361
-0.174546
-0.159126
-0.211124
-0.209217
-0.203358
-0.192361
-0.176708
-0.157586
-0.229252
-0.22701
-0.220985
-0.209822
-0.193961
-0.17456
-0.153017
-0.246969
-0.244401
-0.238215
-0.226909
-0.210863
-0.191213
-0.169339
-0.264256
-0.261366
-0.25503
-0.243596
-0.227396
-0.207523
-0.185352
-0.162195
-0.281094
-0.277887
-0.271409
-0.259864
-0.243541
-0.223469
-0.201037
-0.177536
-0.154063
-0.297462
-0.293944
-0.287333
-0.275695
-0.259262
-0.239047
-0.216376
-0.192563
-0.168711
-0.145622
-0.313343
-0.309517
-0.302783
-0.291071
-0.274557
-0.254221
-0.231352
-0.20726
-0.183062
-0.159572
-0.137317
-0.328718
-0.324589
-0.317741
-0.305975
-0.289407
-0.268978
-0.245949
-0.221612
-0.1971
-0.17324
-0.150577
-0.129411
-0.343572
-0.339145
-0.332192
-0.320388
-0.303793
-0.283302
-0.260145
-0.235606
-0.210813
-0.186614
-0.163571
-0.142
-0.357888
-0.353168
-0.34612
-0.334296
-0.317699
-0.29718
-0.27393
-0.249224
-0.224185
-0.199679
-0.176285
-0.154336
-0.13398
-0.371654
-0.366647
-0.359512
-0.347684
-0.331111
-0.310596
-0.28729
-0.262451
-0.237204
-0.212424
-0.188709
-0.166408
-0.145683
-0.126567
-0.384855
-0.379567
-0.372355
-0.360539
-0.344016
-0.323536
-0.30021
-0.275276
-0.249857
-0.224838
-0.200832
-0.178206
-0.157136
-0.137667
-0.119763
-0.39748
-0.391918
-0.384637
-0.37285
-0.3564
-0.335987
-0.312678
-0.287686
-0.262132
-0.236908
-0.212643
-0.189721
-0.168331
-0.148531
-0.130293
-0.11354
-0.409519
-0.40369
-0.396349
-0.384606
-0.368252
-0.347937
-0.324681
-0.29967
-0.274018
-0.248624
-0.224133
-0.200942
-0.17926
-0.159151
-0.140598
-0.123531
-0.107856
-0.0934741
-0.420963
-0.414874
-0.407481
-0.395797
-0.379563
-0.359377
-0.336209
-0.311217
-0.285505
-0.259977
-0.235291
-0.211863
-0.189913
-0.16952
-0.150673
-0.13331
-0.11734
-0.102666
-0.0891884
-0.431805
-0.425464
-0.418027
-0.406416
-0.390324
-0.370296
-0.347252
-0.322317
-0.296583
-0.270958
-0.246111
-0.222474
-0.200283
-0.17963
-0.160512
-0.142872
-0.126625
-0.111675
-0.0979237
-0.0852783
-0.442039
-0.435455
-0.42798
-0.416455
-0.400527
-0.380686
-0.3578
-0.332961
-0.307243
-0.281557
-0.256583
-0.232769
-0.210365
-0.189475
-0.170107
-0.15221
-0.135704
-0.120494
-0.106485
-0.093584
-0.0816972
-0.45166
-0.44484
-0.437337
-0.425911
-0.410166
-0.39054
-0.367847
-0.34314
-0.317477
-0.291767
-0.266701
-0.24274
-0.22015
-0.199049
-0.179453
-0.16132
-0.144572
-0.129119
-0.114868
-0.101725
-0.0895989
-0.0784088
-0.460665
-0.45362
-0.446094
-0.434779
-0.419237
-0.399853
-0.377386
-0.352848
-0.327278
-0.301582
-0.276457
-0.252381
-0.229634
-0.208346
-0.188546
-0.170196
-0.153225
-0.137546
-0.123067
-0.109697
-0.0973447
-0.0859293
-0.0754399
-0.0655692
-0.469053
-0.461791
-0.454249
-0.443056
-0.427736
-0.408619
-0.38641
-0.362079
-0.33664
-0.310994
-0.285847
-0.261687
-0.238811
-0.217362
-0.197379
-0.178833
-0.161659
-0.145771
-0.13108
-0.117496
-0.104931
-0.0933026
-0.0825982
-0.0725319
-0.062728
-0.476824
-0.469356
-0.461804
-0.450743
-0.435661
-0.416836
-0.394916
-0.370827
-0.345557
-0.319999
-0.294863
-0.270652
-0.247676
-0.226092
-0.20595
-0.187229
-0.169869
-0.153789
-0.138902
-0.12512
-0.112355
-0.100526
-0.0896178
-0.0793659
-0.0693819
-0.483979
-0.476314
-0.46876
-0.45784
-0.443011
-0.424502
-0.402901
-0.379089
-0.354024
-0.328591
-0.303503
-0.279272
-0.256225
-0.234532
-0.214254
-0.195379
-0.177852
-0.161598
-0.14653
-0.132564
-0.119613
-0.107596
-0.0964964
-0.0860692
-0.0759117
-0.490521
-0.482671
-0.47512
-0.464349
-0.449788
-0.431615
-0.410362
-0.38686
-0.362039
-0.336767
-0.311761
-0.287544
-0.264455
-0.242679
-0.222289
-0.20328
-0.185606
-0.169194
-0.153962
-0.139826
-0.126702
-0.11451
-0.103232
-0.0926408
-0.0823136
-0.496456
-0.488432
-0.480888
-0.470275
-0.455993
-0.438177
-0.417299
-0.39414
-0.369597
-0.344523
-0.319634
-0.295463
-0.272362
-0.25053
-0.23005
-0.21093
-0.193128
-0.176576
-0.161195
-0.146905
-0.133622
-0.121266
-0.109821
-0.0990812
-0.0885833
-0.501788
-0.493601
-0.486071
-0.475621
-0.461631
-0.44419
-0.423712
-0.400927
-0.376697
-0.351857
-0.327121
-0.303028
-0.279944
-0.258082
-0.237538
-0.218326
-0.200415
-0.18374
-0.168227
-0.153797
-0.140369
-0.127863
-0.116262
-0.105394
-0.0947156
-0.506526
-0.498188
-0.490676
-0.480396
-0.466707
-0.449657
-0.429602
-0.407222
-0.383339
-0.358768
-0.334219
-0.310237
-0.2872
-0.265334
-0.244748
-0.225468
-0.207466
-0.190686
-0.175057
-0.160501
-0.146942
-0.134298
-0.122552
-0.111582
-0.100711
-0.510678
-0.502202
-0.494713
-0.484606
-0.471228
-0.454583
-0.434974
-0.413026
-0.389522
-0.365255
-0.340926
-0.317088
-0.294128
-0.272285
-0.251682
-0.232353
-0.21428
-0.197413
-0.181683
-0.167017
-0.153339
-0.140571
-0.128686
-0.117564
-0.106682
-0.514256
-0.505653
-0.498192
-0.488263
-0.475201
-0.458974
-0.43983
-0.418342
-0.395248
-0.371318
-0.347244
-0.323581
-0.300727
-0.278934
-0.258336
-0.238981
-0.220857
-0.203919
-0.188104
-0.173342
-0.15956
-0.146682
-0.134675
-0.123434
-0.112524
-0.517269
-0.508554
-0.501125
-0.491376
-0.478636
-0.462839
-0.444178
-0.423172
-0.400519
-0.376958
-0.353172
-0.329715
-0.306997
-0.28528
-0.264713
-0.245352
-0.227195
-0.210204
-0.194321
-0.179477
-0.165604
-0.152628
-0.140516
-0.129168
-0.118183
-0.519733
-0.510918
-0.503525
-0.493959
-0.481545
-0.466185
-0.448022
-0.427522
-0.405337
-0.382177
-0.35871
-0.335492
-0.312938
-0.291325
-0.270811
-0.251465
-0.233295
-0.216269
-0.200332
-0.185422
-0.17147
-0.158408
-0.146201
-0.134754
-0.123682
-0.52166
-0.51276
-0.505407
-0.496025
-0.48394
-0.469024
-0.451373
-0.431399
-0.409707
-0.386978
-0.363862
-0.340913
-0.318552
-0.297068
-0.276631
-0.257322
-0.239158
-0.222112
-0.206138
-0.191175
-0.177159
-0.164022
-0.15173
-0.140194
-0.129044
-0.523067
-0.514094
-0.506786
-0.497589
-0.485834
-0.471366
-0.454238
-0.434808
-0.413635
-0.391364
-0.368629
-0.345979
-0.32384
-0.302511
-0.282175
-0.262924
-0.244783
-0.227736
-0.21174
-0.196738
-0.18267
-0.169471
-0.157104
-0.145491
-0.134273
-0.52397
-0.51494
-0.507679
-0.498668
-0.487241
-0.473226
-0.456629
-0.437758
-0.417125
-0.39534
-0.373015
-0.350693
-0.328804
-0.307656
-0.287444
-0.268271
-0.250174
-0.233142
-0.217138
-0.202112
-0.188005
-0.174754
-0.162324
-0.150644
-0.139371
-0.524387
-0.515313
-0.508104
-0.499278
-0.488179
-0.474616
-0.458557
-0.440259
-0.420186
-0.398911
-0.377024
-0.355058
-0.333446
-0.312505
-0.29244
-0.273367
-0.25533
-0.23833
-0.222334
-0.207297
-0.193163
-0.179874
-0.167391
-0.155654
-0.144335
-0.524337
-0.515234
-0.508081
-0.499437
-0.488663
-0.475553
-0.460035
-0.44232
-0.422825
-0.402084
-0.380661
-0.359079
-0.337771
-0.317061
-0.297166
-0.278212
-0.260255
-0.243302
-0.22733
-0.212295
-0.198147
-0.18483
-0.172306
-0.160522
-0.149166
-0.523839
-0.514721
-0.507627
-0.499166
-0.488713
-0.476052
-0.461077
-0.443954
-0.425052
-0.404865
-0.38393
-0.362758
-0.34178
-0.321326
-0.301624
-0.282809
-0.26495
-0.248062
-0.232126
-0.217107
-0.202958
-0.189624
-0.17707
-0.165248
-0.153864
-0.522913
-0.513796
-0.506765
-0.498484
-0.488347
-0.476131
-0.461699
-0.445173
-0.426876
-0.407262
-0.386839
-0.366102
-0.345479
-0.325305
-0.305817
-0.287163
-0.269419
-0.25261
-0.236727
-0.221736
-0.207597
-0.194259
-0.181683
-0.169833
-0.158432
-0.521581
-0.512479
-0.505515
-0.497411
-0.487586
-0.475808
-0.461916
-0.44599
-0.428309
-0.409284
-0.389394
-0.369116
-0.348872
-0.329002
-0.30975
-0.291275
-0.273664
-0.256951
-0.241133
-0.226184
-0.212067
-0.198734
-0.186149
-0.174279
-0.162869
-0.519865
-0.510792
-0.503899
-0.495971
-0.486449
-0.475102
-0.461745
-0.446421
-0.429362
-0.41094
-0.391602
-0.371805
-0.351964
-0.33242
-0.313426
-0.295149
-0.277688
-0.261086
-0.245348
-0.230454
-0.216369
-0.203053
-0.190467
-0.178587
-0.167177
-0.517786
-0.508758
-0.501939
-0.494183
-0.484959
-0.474034
-0.461205
-0.44648
-0.430049
-0.412241
-0.393472
-0.374177
-0.354761
-0.335565
-0.316849
-0.29879
-0.281496
-0.26502
-0.249375
-0.234547
-0.220507
-0.207217
-0.194641
-0.182759
-0.171357
-0.515368
-0.506398
-0.499657
-0.492072
-0.483137
-0.472624
-0.460315
-0.446184
-0.430382
-0.413199
-0.395013
-0.376238
-0.357268
-0.338442
-0.320024
-0.302201
-0.285091
-0.268756
-0.253217
-0.238467
-0.224482
-0.211229
-0.198672
-0.186796
-0.17541
-0.512632
-0.503736
-0.497078
-0.48966
-0.481005
-0.470893
-0.459093
-0.44555
-0.430378
-0.413824
-0.396235
-0.377997
-0.359492
-0.341056
-0.322955
-0.305386
-0.288476
-0.272297
-0.256877
-0.242217
-0.228298
-0.215091
-0.202562
-0.1907
-0.179338
-0.509603
-0.500794
-0.494223
-0.486969
-0.478587
-0.468863
-0.45756
-0.444597
-0.43005
-0.41413
-0.397147
-0.379462
-0.36144
-0.343413
-0.325649
-0.308351
-0.291657
-0.275648
-0.26036
-0.245801
-0.231958
-0.218806
-0.206314
-0.194473
-0.183143
-0.506304
-0.497595
-0.491115
-0.484023
-0.475905
-0.466557
-0.455736
-0.443341
-0.429415
-0.41413
-0.397761
-0.380641
-0.36312
-0.345518
-0.328109
-0.311101
-0.294638
-0.278812
-0.263668
-0.249221
-0.235465
-0.222377
-0.20993
-0.198118
-0.186827
-0.502757
-0.494163
-0.487777
-0.480846
-0.472981
-0.463996
-0.453643
-0.441803
-0.42849
-0.413838
-0.398088
-0.381545
-0.364538
-0.34738
-0.330343
-0.31364
-0.297424
-0.281794
-0.266807
-0.252483
-0.238821
-0.225806
-0.213413
-0.201636
-0.190392
-0.498986
-0.49052
-0.484233
-0.477458
-0.46984
-0.461203
-0.451301
-0.440003
-0.427291
-0.413269
-0.39814
-0.382182
-0.365702
-0.349004
-0.332355
-0.315973
-0.300018
-0.284599
-0.26978
-0.255588
-0.242031
-0.229098
-0.216765
-0.205031
-0.193839
-0.495015
-0.486688
-0.480505
-0.473885
-0.466503
-0.4582
-0.448734
-0.43796
-0.425837
-0.412437
-0.397931
-0.382564
-0.366623
-0.350397
-0.334152
-0.318106
-0.302427
-0.287231
-0.272591
-0.258542
-0.245099
-0.232254
-0.219991
-0.208305
-0.197171
-0.490864
-0.482688
-0.476613
-0.470147
-0.462993
-0.45501
-0.445961
-0.435694
-0.424147
-0.41136
-0.397472
-0.382701
-0.367307
-0.351568
-0.33574
-0.320045
-0.304655
-0.289695
-0.275244
-0.261349
-0.248027
-0.235279
-0.223091
-0.21146
-0.20039
-0.486556
-0.478544
-0.472581
-0.466266
-0.459332
-0.451655
-0.443006
-0.433226
-0.422237
-0.410053
-0.396779
-0.382604
-0.367766
-0.352523
-0.337126
-0.321795
-0.306707
-0.291995
-0.277745
-0.264012
-0.25082
-0.238176
-0.226071
-0.2145
-0.203499
-0.482114
-0.474274
-0.468428
-0.462263
-0.455542
-0.448156
-0.439888
-0.430577
-0.420128
-0.408532
-0.395866
-0.382286
-0.368007
-0.35327
-0.338316
-0.323362
-0.308589
-0.294136
-0.280098
-0.266535
-0.253482
-0.240949
-0.228932
-0.217427
-0.206501
-0.477557
-0.469901
-0.464176
-0.45816
-0.451643
-0.444535
-0.43663
-0.427766
-0.417839
-0.406815
-0.394746
-0.381758
-0.368042
-0.353818
-0.339317
-0.324752
-0.310306
-0.296123
-0.282306
-0.268924
-0.256016
-0.243601
-0.231678
-0.220244
-0.209396
-0.472907
-0.465443
-0.459843
-0.453975
-0.447656
-0.440813
-0.433252
-0.424815
-0.415388
-0.40492
-0.393435
-0.381034
-0.36788
-0.354175
-0.340136
-0.325971
-0.311863
-0.297961
-0.284375
-0.271182
-0.468182
-0.460919
-0.455448
-0.449728
-0.443601
-0.437009
-0.429775
-0.421743
-0.412795
-0.402863
-0.391948
-0.380126
-0.367533
-0.35435
-0.34078
-0.327025
-0.463402
-0.456347
-0.45101
-0.445437
-0.439495
-0.433143
-0.426217
-0.41857
-0.410078
-0.400662
-0.390302
-0.379047
-0.367011
-0.458584
-0.451745
-0.446544
-0.441118
-0.435356
-0.429233
-0.422599
-0.415315
-0.407257
-0.453746
-0.447127
-0.442067
-0.436789
-0.431202
-0.425296
-0.448903
-0.442511
-0.437594
-0.432464
-0.444072
-0.29088
-0.295405
-0.299835
-0.304173
-0.308424
-0.312589
-0.316673
-0.32068
-0.271738
-0.276032
-0.280251
-0.284397
-0.288474
-0.292484
-0.296429
-0.300314
-0.254206
-0.258257
-0.262248
-0.266182
-0.270062
-0.273888
-0.277665
-0.281393
-0.238115
-0.241928
-0.245694
-0.249414
-0.25309
-0.256725
-0.260321
-0.263879
-0.223277
-0.226858
-0.230401
-0.233908
-0.23738
-0.240819
-0.244227
-0.247605
-0.209544
-0.2129
-0.216225
-0.219522
-0.222791
-0.226034
-0.229252
-0.232447
-0.196789
-0.199929
-0.203044
-0.206136
-0.209206
-0.212255
-0.215285
-0.218296
-0.184914
-0.187847
-0.190759
-0.193653
-0.19653
-0.19939
-0.202234
-0.205064
-0.173828
-0.176563
-0.179282
-0.181986
-0.184676
-0.187353
-0.190017
-0.19267
-0.163459
-0.166007
-0.168541
-0.171064
-0.173575
-0.176075
-0.178566
-0.181047
-0.153738
-0.156109
-0.158469
-0.160819
-0.16316
-0.165492
-0.167816
-0.170133
-0.144614
-0.146818
-0.149012
-0.151199
-0.153378
-0.15555
-0.157716
-0.159876
-0.136032
-0.138079
-0.140118
-0.142151
-0.144177
-0.146198
-0.148214
-0.150225
-0.127953
-0.129852
-0.131746
-0.133633
-0.135516
-0.137394
-0.139268
-0.141138
-0.120336
-0.122098
-0.123854
-0.125606
-0.127354
-0.129098
-0.130838
-0.132575
-0.113148
-0.114781
-0.11641
-0.118035
-0.119656
-0.121274
-0.122889
-0.124502
-0.106359
-0.107873
-0.109382
-0.110888
-0.112391
-0.113891
-0.115389
-0.116885
-0.0999426
-0.101344
-0.102742
-0.104138
-0.10553
-0.106921
-0.108309
-0.109696
-0.0938734
-0.0951708
-0.0964656
-0.0977579
-0.099048
-0.100336
-0.101622
-0.102907
-0.0881297
-0.0893307
-0.0905293
-0.0917258
-0.0929203
-0.0941131
-0.0953042
-0.096494
-0.0826923
-0.0838037
-0.084913
-0.0860205
-0.0871262
-0.0882303
-0.0893331
-0.0904346
-0.0775425
-0.0785709
-0.0795974
-0.0806222
-0.0816455
-0.0826674
-0.0836881
-0.0847077
-0.0726634
-0.0736149
-0.0745647
-0.075513
-0.07646
-0.0774056
-0.0783502
-0.0792938
-0.0680413
-0.0689214
-0.0698
-0.0706773
-0.0715534
-0.0724284
-0.0733023
-0.0741754
-0.0636596
-0.0644738
-0.0652868
-0.0660986
-0.0669092
-0.0677188
-0.0685275
-0.0693353
-0.0595074
-0.0602607
-0.0610128
-0.0617639
-0.0625139
-0.0632629
-0.0640111
-0.0647586
-0.0555715
-0.0562685
-0.0569644
-0.0576594
-0.0583533
-0.0590464
-0.0597387
-0.0604303
-0.0518411
-0.0524861
-0.0531301
-0.0537732
-0.0544154
-0.0550567
-0.0556973
-0.0563373
-0.0483057
-0.0489026
-0.0494986
-0.0500938
-0.0506881
-0.0512817
-0.0518746
-0.0524668
-0.0449551
-0.0455077
-0.0460595
-0.0466104
-0.0471605
-0.0477099
-0.0482587
-0.0488068
-0.0417808
-0.0422924
-0.0428032
-0.0433132
-0.0438225
-0.0443311
-0.0448391
-0.0453465
-0.0387731
-0.0392469
-0.0397199
-0.0401922
-0.0406639
-0.0411348
-0.0416052
-0.042075
-0.0359245
-0.0363633
-0.0368015
-0.037239
-0.0376758
-0.038112
-0.0385477
-0.0389828
-0.0332269
-0.0336335
-0.0340395
-0.0344448
-0.0348495
-0.0352536
-0.0356572
-0.0360602
-0.0306731
-0.0310499
-0.0314262
-0.0318018
-0.0321769
-0.0325514
-0.0329253
-0.0332987
-0.0282561
-0.0286055
-0.0289543
-0.0293025
-0.0296502
-0.0299973
-0.0303439
-0.0306899
-0.0259693
-0.0262933
-0.0266168
-0.0269397
-0.027262
-0.0275839
-0.0279052
-0.028226
-0.0238065
-0.0241071
-0.0244071
-0.0247066
-0.0250056
-0.0253041
-0.0256021
-0.0258995
-0.0217617
-0.0220406
-0.022319
-0.0225969
-0.0228743
-0.0231512
-0.0234276
-0.0237035
-0.0198292
-0.0200881
-0.0203465
-0.0206044
-0.0208619
-0.0211188
-0.0213753
-0.0216313
-0.0180037
-0.0182441
-0.018484
-0.0187235
-0.0189624
-0.0192009
-0.0194389
-0.0196765
-0.0162801
-0.0165034
-0.0167262
-0.0169485
-0.0171704
-0.0173918
-0.0176128
-0.0178333
-0.0146533
-0.0148608
-0.0150678
-0.0152743
-0.0154804
-0.015686
-0.0158912
-0.0160959
-0.013119
-0.0133118
-0.0135041
-0.013696
-0.0138874
-0.0140784
-0.014269
-0.0144591
-0.0116725
-0.0118517
-0.0120305
-0.0122088
-0.0123867
-0.0125641
-0.0127412
-0.0129178
-0.0103097
-0.0104763
-0.0106425
-0.0108082
-0.0109736
-0.0111385
-0.011303
-0.0114671
-0.00902653
-0.00918146
-0.00933598
-0.00949009
-0.00964379
-0.00979708
-0.00994996
-0.0101024
-0.00781918
-0.00796329
-0.008107
-0.00825031
-0.00839322
-0.00853573
-0.00867784
-0.00881955
-0.00668401
-0.00681808
-0.00695177
-0.00708506
-0.00721796
-0.00735047
-0.00748258
-0.00761431
-0.00561754
-0.0057423
-0.00586669
-0.00599068
-0.0061143
-0.00623753
-0.00636037
-0.00648283
-0.00461647
-0.00473259
-0.00484834
-0.00496371
-0.00507871
-0.00519333
-0.00530757
-0.00542143
-0.00367766
-0.00378576
-0.00389349
-0.00400085
-0.00410785
-0.00421448
-0.00432074
-0.00442662
-0.00279812
-0.00289877
-0.00299906
-0.00309899
-0.00319856
-0.00329777
-0.00339662
-0.00349511
-0.00197502
-0.00206875
-0.00216213
-0.00225517
-0.00234785
-0.00244017
-0.00253214
-0.00262376
-0.00120567
-0.00129298
-0.00137995
-0.00146658
-0.00155286
-0.0016388
-0.00172439
-0.00180963
-0.000487514
-0.00056887
-0.000649893
-0.000730581
-0.000810933
-0.000890945
-0.000970617
-0.00104995
0.000181837
0.000106005
3.04985e-05
-4.4681e-05
-0.000119531
-0.00019405
-0.000268235
-0.000342085
0.000804656
0.000733943
0.000663548
0.000593473
0.000523719
0.00045429
0.000385188
0.000316414
0.00138307
0.0013171
0.00125143
0.00118608
0.00112105
0.00105633
0.000991927
0.000927849
0.00191908
0.00185748
0.0017962
0.00173521
0.00167453
0.00161417
0.00155412
0.00149438
0.00241453
0.00235698
0.00229973
0.00224277
0.00218612
0.00212977
0.00207372
0.00201799
0.00287115
0.00281732
0.00276379
0.00271054
0.00265759
0.00260494
0.00255259
0.00250053
0.00329051
0.00324011
0.00318999
0.00314015
0.0030906
0.00304134
0.00299237
0.0029437
0.00367408
0.0036268
0.0035798
0.00353307
0.00348663
0.00344048
0.00339461
0.00334903
0.0040231
0.00397867
0.00393451
0.00389063
0.00384702
0.00380369
0.00376064
0.00371788
0.0036754
0.00433874
0.0042969
0.00425532
0.00421401
0.00417296
0.00413219
0.0040917
0.00405148
0.00401155
0.00462193
0.00458241
0.00454315
0.00450415
0.00446542
0.00442695
0.00438875
0.00435083
0.00431317
0.00487355
0.0048361
0.0047989
0.00476197
0.00472529
0.00468887
0.00465272
0.00461683
0.00458121
0.00509407
0.00505845
0.00502307
0.00498795
0.00495308
0.00491847
0.00488412
0.00485003
0.0048162
0.0052841
0.00525005
0.00521625
0.00518269
0.00514939
0.00511634
0.00508355
0.00505101
0.00501873
0.00544353
0.00541082
0.00537835
0.00534613
0.00531416
0.00528243
0.00525096
0.00521974
0.00518878
0.00557268
0.00554106
0.00550968
0.00547854
0.00544765
0.005417
0.0053866
0.00535645
0.00532655
0.00567066
0.0056399
0.00560938
0.0055791
0.00554906
0.00551926
0.0054897
0.00546039
0.00543133