/*--------------------------------*- C++ -*----------------------------------*\
  =========                 |
  \\      /  F ield         | OpenFOAM: The Open Source CFD Toolbox
   \\    /   O peration     | Website:  https://openfoam.org
    \\  /    A nd           | Version:  7
     \\/     M anipulation  |
\*---------------------------------------------------------------------------*/
FoamFile
{
    version     2.0;
    format      ascii;
    class       volVectorField;
    location    "260";
    object      U;
}
// * * * * * * * * * * * * * * * * * * * * * * * * * * * * * * * * * * * * * //

dimensions      [0 1 -1 0 0 0 0];

internalField   nonuniform List<vector> 
7156
(
(0.0267382 -0.00513473 1.86301e-20)
(0.0946161 -0.0133163 1.05295e-20)
(0.029294 -0.00520101 -1.66641e-19)
(0.102101 -0.0131013 6.24164e-20)
(0.189837 -0.0145211 1.92434e-19)
(0.290474 -0.0110967 -1.33717e-19)
(0.0319441 -0.00520575 3.98546e-20)
(0.109809 -0.0127027 1.3364e-19)
(0.202356 -0.0132494 1.29727e-20)
(0.307435 -0.00863474 -1.27911e-20)
(0.422507 0.000839212 -1.58339e-19)
(0.544327 0.014629 -1.49245e-20)
(0.66907 0.0319025 2.0235e-19)
(0.0346855 -0.00514449 -1.22684e-19)
(0.117726 -0.0121097 -1.13703e-19)
(0.215137 -0.011666 -1.6567e-19)
(0.324646 -0.00576016 -8.05096e-20)
(0.443522 0.00519365 1.00014e-19)
(0.568314 0.0205288 1.21432e-19)
(0.695008 0.0392856 -1.34226e-19)
(0.819319 0.0603254 -1.21715e-19)
(0.937051 0.0823903 -8.28154e-20)
(1.04449 0.104212 3.2728e-20)
(0.0375144 -0.00501281 6.70119e-20)
(0.125841 -0.0113122 8.72377e-20)
(0.228159 -0.0097584 6.32929e-20)
(0.342069 -0.00246092 3.21766e-20)
(0.464652 0.0100466 -5.88857e-21)
(0.592252 0.0269684 -1.40953e-19)
(0.720683 0.0472142 7.4968e-20)
(0.845553 0.0695287 9.90182e-21)
(0.962662 0.0925654 -1.22842e-20)
(1.06841 0.115006 1.98306e-19)
(1.16014 0.135691 -5.16963e-21)
(1.23635 0.153722 -2.89787e-20)
(1.29674 0.168524 5.83936e-20)
(0.0404268 -0.00480641 1.58848e-20)
(0.134139 -0.0103004 -1.34989e-19)
(0.241393 -0.00751482 -1.57931e-20)
(0.359665 0.00127347 1.49359e-19)
(0.485845 0.0154046 -3.07841e-20)
(0.616083 0.0339483 7.33956e-20)
(0.746031 0.0556816 -7.74582e-20)
(0.871218 0.0792347 2.0649e-20)
(0.987467 0.103179 -2.79635e-20)
(1.09132 0.126158 3.51291e-21)
(1.18034 0.147015 -4.95977e-20)
(1.25334 0.164898 -1.3641e-19)
(1.3103 0.179304 7.04402e-20)
(1.35224 0.190072 -2.10466e-20)
(1.38092 0.19734 1.23885e-19)
(1.39853 0.201456 -7.91319e-21)
(1.40738 0.202896 -1.91293e-19)
(0.0434179 -0.00452116 4.37461e-20)
(0.142605 -0.0090652 6.76402e-20)
(0.254812 -0.0049246 -1.70986e-20)
(0.377394 0.00545203 -6.64356e-20)
(0.507051 0.0212722 -1.27859e-20)
(0.639746 0.0414668 1.33908e-19)
(0.770989 0.0646788 5.60776e-20)
(0.896254 0.0894279 -1.31301e-20)
(1.01142 0.114211 6.14226e-20)
(1.11319 0.137643 -6.13118e-20)
(1.19939 0.158586 5.68403e-20)
(1.26912 0.17624 5.11141e-21)
(1.32268 0.190182 -6.18197e-20)
(1.36134 0.200338 -8.64156e-20)
(1.38706 0.206926 -1.20737e-19)
(1.40215 0.210361 -8.71061e-20)
(1.40896 0.211165 1.26526e-19)
(1.40967 0.209882 -2.61965e-20)
(1.40614 0.207025 -7.14414e-20)
(1.39984 0.203033 -4.2899e-20)
(1.39188 0.19826 -6.40401e-20)
(0.0464829 -0.00415309 -5.52879e-20)
(0.151221 -0.00759796 2.47382e-20)
(0.268389 -0.00197826 7.01706e-20)
(0.395215 0.0100821 3.05705e-20)
(0.528218 0.0276522 7.95767e-20)
(0.663182 0.0495201 -1.20084e-19)
(0.795497 0.0741952 -2.84489e-20)
(0.920607 0.100091 2.42508e-20)
(1.03447 0.12564 3.75553e-20)
(1.13399 0.149439 1.29266e-19)
(1.21727 0.17038 -4.06653e-20)
(1.28371 0.187727 6.67718e-20)
(1.3339 0.201142 -3.71146e-20)
(1.36938 0.210641 -3.41192e-20)
(1.39227 0.216522 6.13299e-20)
(1.40499 0.219262 9.25063e-20)
(1.40991 0.219426 -8.12481e-20)
(1.40919 0.21758 -2.59215e-20)
(1.40462 0.214243 1.68671e-20)
(1.39761 0.209849 1.10212e-19)
(1.38918 0.204741 1.75081e-19)
(1.38001 0.199172 8.0766e-20)
(1.37051 0.193329 1.96425e-20)
(1.36089 0.187337 1.02672e-19)
(1.35114 0.181013 -1.96276e-20)
(0.0496161 -0.00369849 1.33825e-19)
(0.159971 -0.00589092 -5.88067e-20)
(0.282092 0.00133244 -4.81573e-20)
(0.413087 0.0151693 4.57374e-20)
(0.549293 0.034545 -2.16541e-19)
(0.686333 0.058102 3.1229e-20)
(0.819497 0.0842177 5.40248e-20)
(0.944226 0.111206 8.79777e-21)
(1.0566 0.137443 -5.46481e-20)
(1.15372 0.161523 -1.30761e-19)
(1.23399 0.182375 -1.60064e-21)
(1.29712 0.199341 -5.29305e-20)
(1.34401 0.21217 5.94595e-21)
(1.3764 0.220971 1.28732e-19)
(1.3966 0.226121 4.38171e-20)
(1.40709 0.228156 -4.54166e-20)
(1.41026 0.227677 1.51202e-19)
(1.40823 0.225272 -1.99143e-20)
(1.40274 0.221459 7.89019e-20)
(1.3951 0.216668 -1.35757e-19)
(1.38626 0.211228 -4.76199e-20)
(1.37684 0.205379 -1.06055e-19)
(1.36719 0.199295 1.06286e-19)
(1.35748 0.193082 -3.03681e-20)
(1.34769 0.186611 -3.94002e-20)
(0.0528118 -0.00315384 -4.10253e-20)
(0.168837 -0.00393707 2.38982e-20)
(0.295891 0.00501441 1.07886e-20)
(0.430965 0.0207176 -1.248e-19)
(0.570226 0.0419491 1.1672e-20)
(0.709144 0.0672046 -3.08271e-20)
(0.842934 0.0947318 -5.94075e-21)
(0.967065 0.122752 5.61044e-20)
(1.07775 0.149598 2.55916e-20)
(1.17235 0.173869 7.93042e-20)
(1.24955 0.19455 4.26528e-20)
(1.30939 0.211062 2.22774e-21)
(1.35303 0.223251 -2.6339e-23)
(1.38245 0.231318 -4.74422e-20)
(1.40009 0.235716 5.38833e-20)
(1.40849 0.237038 -5.55124e-21)
(1.41005 0.235918 -5.20972e-20)
(1.40684 0.232956 -1.27052e-19)
(1.40051 0.228673 -2.03416e-20)
(1.39232 0.223488 -6.22151e-21)
(1.38312 0.217717 -5.27461e-20)
(1.37349 0.211588 9.48521e-20)
(1.36373 0.205261 -7.71396e-20)
(1.35395 0.198824 -2.6819e-20)
(1.34414 0.192201 6.12833e-20)
(0.0560634 -0.00251594 2.19614e-20)
(0.177798 -0.00173024 -3.67501e-20)
(0.309753 0.00907322 6.30171e-20)
(0.448808 0.0267288 9.52962e-20)
(0.590963 0.049861 1.88694e-20)
(0.731559 0.0768176 4.49325e-20)
(0.865757 0.105721 -9.52433e-20)
(0.98908 0.134708 -3.96297e-20)
(1.09791 0.16208 1.64782e-20)
(1.18987 0.186456 2.32114e-22)
(1.26396 0.206883 -9.02883e-21)
(1.32052 0.222874 4.13057e-20)
(1.36099 0.234373 3.52065e-20)
(1.38756 0.241673 5.50726e-20)
(1.40278 0.245303 -7.47875e-20)
(1.40924 0.245906 -2.12295e-20)
(1.40932 0.244145 -2.06449e-21)
(1.40503 0.240632 8.11341e-20)
(1.39796 0.235884 -4.72516e-20)
(1.38928 0.230308 4.36567e-20)
(1.37979 0.224208 -5.09586e-20)
(1.36998 0.217798 -4.15366e-20)
(1.36012 0.211226 -2.93617e-20)
(1.3503 0.204561 4.02811e-20)
(1.34047 0.197782 2.39005e-21)
(0.0593643 -0.00178182 -3.13759e-20)
(0.186835 0.000734884 -2.90091e-20)
(0.323647 0.013513 -9.02468e-20)
(0.466571 0.0332033 5.57078e-20)
(0.611455 0.058275 5.44467e-20)
(0.753525 0.0869288 -3.71537e-20)
(0.887916 0.117167 7.50358e-20)
(1.01023 0.147052 -1.33341e-21)
(1.11706 0.174866 2.95274e-21)
(1.20628 0.199259 -2.77078e-20)
(1.27723 0.219354 2.31573e-20)
(1.33055 0.234759 -2.13788e-20)
(1.36795 0.245522 -5.60278e-20)
(1.39179 0.252028 -1.14584e-20)
(1.40472 0.254876 8.07138e-21)
(1.40937 0.254756 2.94549e-20)
(1.40809 0.252358 2.49278e-20)
(1.40283 0.248298 -1.23327e-20)
(1.3951 0.243088 -2.53361e-20)
(1.386 0.237125 1.86415e-20)
(1.37626 0.230698 3.50247e-20)
(1.36631 0.224005 3.54239e-20)
(1.35637 0.217185 2.29176e-21)
(1.34652 0.21029 3.95137e-20)
(1.33668 0.203349 -8.7344e-21)
(0.0627074 -0.000948892 1.27406e-20)
(0.195928 0.00346264 2.48726e-20)
(0.337539 0.0183364 2.45658e-20)
(0.484211 0.0401394 -1.03131e-20)
(0.631651 0.0671836 -1.99199e-20)
(0.774992 0.0975242 2.37342e-20)
(0.909366 0.12905 -1.47906e-20)
(1.03049 0.159761 1.50727e-20)
(1.13516 0.18793 -4.64261e-20)
(1.22158 0.212255 2.02393e-20)
(1.28937 0.231941 1.28671e-20)
(1.33951 0.246701 3.93684e-20)
(1.37392 0.256687 2.86172e-20)
(1.39515 0.262374 -1.14577e-20)
(1.40594 0.264429 -1.13451e-20)
(1.40891 0.263586 3.24919e-21)
(1.40639 0.260553 -1.58163e-20)
(1.40026 0.255951 6.5391e-21)
(1.39195 0.250285 1.74864e-20)
(1.38249 0.243937 -2.10883e-20)
(1.37253 0.237182 9.36137e-21)
(1.36247 0.230206 -2.55055e-20)
(1.35248 0.223135 2.37089e-20)
(1.34261 0.216006 -2.98575e-20)
(1.33278 0.208898 1.1672e-20)
(0.0660853 -1.48599e-05 -2.0305e-20)
(0.205054 0.00645642 2.18114e-21)
(0.351394 0.0235445 1.44126e-20)
(0.501684 0.0475335 -2.44854e-20)
(0.651503 0.0765771 -5.04433e-21)
(0.795911 0.108588 -2.73884e-20)
(0.930065 0.14135 -3.00266e-20)
(1.04982 0.17281 -8.93887e-21)
(1.15222 0.201249 4.19786e-21)
(1.23576 0.225422 7.67522e-21)
(1.30041 0.244627 -2.75661e-20)
(1.34742 0.258686 -6.88647e-21)
(1.37895 0.267857 -2.75534e-20)
(1.3977 0.272704 -1.62161e-20)
(1.40647 0.273958 1.18353e-20)
(1.4079 0.272391 -1.02428e-20)
(1.40425 0.268728 -1.98866e-20)
(1.39733 0.26359 -1.84984e-20)
(1.38852 0.257471 -1.77478e-21)
(1.37875 0.25074 -2.65942e-20)
(1.36862 0.243658 1.00864e-21)
(1.35847 0.236398 3.12349e-20)
(1.34845 0.229071 4.21639e-22)
(1.33858 0.221706 -7.97454e-21)
(1.32876 0.214428 8.23109e-21)
(0.0694903 0.00102219 9.72962e-21)
(0.214192 0.00971859 3.73419e-21)
(0.36518 0.0291371 -4.40001e-21)
(0.518949 0.0553804 4.16324e-21)
(0.670965 0.0864441 -1.83686e-21)
(0.816237 0.120103 7.80939e-21)
(0.949974 0.154044 -2.16083e-21)
(1.0682 0.186176 1.75977e-21)
(1.16821 0.214798 -6.10786e-21)
(1.24883 0.238736 -7.11583e-21)
(1.31035 0.25739 -3.89577e-21)
(1.35431 0.270697 1.23317e-20)
(1.38308 0.279021 5.75521e-21)
(1.39947 0.283011 -6.70374e-21)
(1.40636 0.283457 5.94444e-21)
(1.40636 0.281168 -7.34067e-22)
(1.40168 0.276879 1.11444e-20)
(1.39408 0.27121 4.94707e-21)
(1.38482 0.264643 1.67596e-21)
(1.37479 0.257532 1.56939e-20)
(1.36452 0.250122 -2.95995e-21)
(1.35431 0.242575 -1.29188e-20)
(1.34428 0.23499 -6.4922e-22)
(1.33442 0.227385 2.00346e-21)
(1.32463 0.219932 -5.94563e-21)
(0.0729146 0.00216383 5.26645e-21)
(0.22332 0.0132505 6.31675e-21)
(0.378863 0.0351123 -7.0925e-21)
(0.535963 0.063673 1.02015e-20)
(0.689989 0.0967712 -3.3414e-21)
(0.835925 0.13205 3.27727e-21)
(0.969058 0.167109 -6.6855e-22)
(1.0856 0.199831 1.76678e-21)
(1.18314 0.228551 -3.96629e-21)
(1.26081 0.252174 -1.05224e-20)
(1.31923 0.270213 -6.69121e-22)
(1.36021 0.282721 1.07107e-20)
(1.38632 0.290167 7.77942e-21)
(1.4005 0.293285 -7.43477e-21)
(1.40563 0.292922 5.24252e-21)
(1.40431 0.289912 1.21768e-21)
(1.39872 0.285004 7.14459e-21)
(1.3905 0.278808 5.28081e-21)
(1.38086 0.271796 3.32129e-21)
(1.37061 0.264306 1.36524e-20)
(1.36023 0.256569 -1.4503e-22)
(1.34999 0.248733 -1.31951e-20)
(1.33996 0.240888 -3.74169e-21)
(1.33012 0.23304 3.68714e-21)
(1.32037 0.225407 -2.75724e-21)
(0.0763502 0.00341122 -1.30963e-20)
(0.232416 0.0170525 -5.7605e-21)
(0.392409 0.0414667 5.91367e-21)
(0.552684 0.0724024 -1.43819e-20)
(0.708533 0.107544 8.2125e-22)
(0.854936 0.144408 -4.39188e-20)
(0.987285 0.180521 -2.65021e-20)
(1.10201 0.213752 -7.98107e-21)
(1.19699 0.242484 1.38406e-20)
(1.27169 0.265716 -1.11968e-20)
(1.32706 0.283078 -2.08928e-20)
(1.36515 0.294743 -1.27452e-20)
(1.38872 0.301287 -1.30089e-20)
(1.4008 0.303522 -1.11293e-20)
(1.4043 0.302346 6.10225e-21)
(1.40179 0.298621 -1.2023e-20)
(1.39537 0.293098 -2.40477e-20)
(1.38661 0.286381 -6.94803e-21)
(1.37664 0.278928 -1.18718e-20)
(1.36622 0.27106 -2.03461e-20)
(1.35576 0.262994 -3.95638e-21)
(1.34551 0.254868 2.3104e-20)
(1.33549 0.246759 3.61348e-21)
(1.3257 0.238666 -6.10458e-21)
(1.31598 0.23085 2.1346e-20)
(0.0797884 0.00476514 8.82054e-21)
(0.241457 0.0211238 -1.12268e-20)
(0.405784 0.0481953 4.31822e-20)
(0.569073 0.0815578 -2.41388e-20)
(0.726555 0.118744 -8.15221e-21)
(0.873231 0.157155 3.22429e-20)
(1.00463 0.194254 -1.14182e-20)
(1.11741 0.227912 6.08367e-21)
(1.20976 0.256572 -1.75195e-20)
(1.2815 0.279339 -6.53254e-21)
(1.33386 0.295966 4.2998e-21)
(1.36915 0.30675 3.8975e-20)
(1.39031 0.312369 2.40557e-20)
(1.40042 0.313712 9.77905e-21)
(1.40242 0.311725 -1.41454e-20)
(1.39882 0.307288 -5.58522e-21)
(1.39165 0.301157 3.8044e-21)
(1.38242 0.293924 1.90331e-21)
(1.37218 0.286033 5.88808e-21)
(1.36161 0.277788 -1.06367e-20)
(1.35111 0.269394 -2.6133e-21)
(1.34086 0.260976 -1.74547e-20)
(1.33088 0.252599 2.88618e-21)
(1.32113 0.244258 -2.11546e-20)
(1.31147 0.236255 4.11122e-21)
(0.0832207 0.00622592 -4.03091e-20)
(0.25042 0.0254625 -3.07749e-20)
(0.418955 0.0552918 -4.84942e-20)
(0.585089 0.091127 2.1632e-20)
(0.744013 0.130355 3.78331e-20)
(0.890776 0.170269 -5.46058e-21)
(1.02106 0.208282 6.18665e-20)
(1.13178 0.242283 1.44346e-20)
(1.22146 0.27079 -3.17092e-20)
(1.29024 0.293022 -1.61863e-20)
(1.33966 0.308861 2.42315e-20)
(1.37226 0.318728 -2.8666e-20)
(1.39112 0.323404 -6.20308e-20)
(1.39939 0.32385 1.44075e-20)
(1.39999 0.321052 -1.37292e-20)
(1.3954 0.31591 6.67668e-20)
(1.38757 0.309176 2.75127e-21)
(1.37793 0.301433 1.3729e-20)
(1.36747 0.293106 -2.48155e-20)
(1.3568 0.284486 4.68044e-21)
(1.34628 0.275761 3.16295e-20)
(1.33605 0.267049 1.48867e-20)
(1.32612 0.258402 1.34337e-20)
(1.31644 0.249812 2.37769e-20)
(1.30683 0.241618 3.69636e-21)
(0.0866385 0.00779346 4.84773e-20)
(0.259283 0.0300657 -3.62108e-20)
(0.43189 0.0627481 1.07982e-19)
(0.600695 0.101096 3.56644e-20)
(0.760871 0.142357 7.65944e-20)
(0.907538 0.183725 -7.03693e-21)
(1.03656 0.222579 -4.21065e-20)
(1.14513 0.25684 -6.65028e-20)
(1.2321 0.285114 1.5613e-20)
(1.29794 0.306743 -3.62132e-20)
(1.34448 0.321746 3.79007e-21)
(1.3745 0.330665 2.85476e-20)
(1.39117 0.334382 6.20822e-20)
(1.39772 0.333927 4.46881e-20)
(1.39705 0.330322 -8.99329e-20)
(1.39157 0.324481 -1.75697e-20)
(1.38316 0.31715 2.00896e-20)
(1.37317 0.308901 4.69947e-20)
(1.36253 0.300141 -3.64263e-20)
(1.35179 0.291147 5.10037e-20)
(1.34127 0.282092 -4.01195e-20)
(1.33108 0.273084 -3.39512e-20)
(1.32121 0.264164 -6.29161e-21)
(1.3116 0.255323 9.41776e-21)
(1.30207 0.246935 -2.94427e-20)
(0.0900332 0.00946724 -9.01339e-20)
(0.268023 0.0349293 3.73791e-20)
(0.444556 0.0705548 -2.14496e-20)
(0.615855 0.111449 -8.21822e-20)
(0.777094 0.154727 -9.78547e-21)
(0.923488 0.197497 -1.31833e-20)
(1.05111 0.237118 -2.19688e-20)
(1.15744 0.271556 1.08138e-19)
(1.24167 0.29952 3.48996e-20)
(1.3046 0.320483 2.58065e-20)
(1.34835 0.334603 2.30779e-20)
(1.37588 0.342548 -2.00231e-20)
(1.3905 0.345294 7.69026e-20)
(1.39545 0.343936 -9.40591e-20)
(1.39361 0.339528 6.46474e-20)
(1.38733 0.332994 9.96102e-21)
(1.37841 0.325074 -7.04889e-20)
(1.36813 0.316324 -1.19468e-19)
(1.35735 0.307134 1.01447e-20)
(1.34657 0.297766 -1.19376e-20)
(1.33607 0.28838 -3.34292e-21)
(1.32594 0.279074 2.17513e-20)
(1.31615 0.26988 -6.59288e-20)
(1.30663 0.260785 2.08575e-20)
(1.29717 0.2522 3.84513e-20)
(0.0933961 0.0112463 1.3723e-19)
(0.276619 0.0400481 -6.00994e-20)
(0.456922 0.0787012 -7.11765e-20)
(0.630533 0.12217 -2.85987e-20)
(0.792647 0.167444 -8.18809e-20)
(0.938599 0.21156 4.64504e-21)
(1.06469 0.25187 5.03682e-20)
(1.16871 0.286405 -1.67647e-20)
(1.25019 0.313983 -8.75019e-20)
(1.31025 0.334221 -1.15594e-19)
(1.3513 0.347417 -2.21497e-20)
(1.37645 0.354364 -1.7174e-20)
(1.38913 0.35613 -2.1478e-20)
(1.3926 0.353869 1.24621e-19)
(1.38969 0.348665 7.29216e-20)
(1.38269 0.341445 -6.13677e-20)
(1.37334 0.332942 1.12114e-19)
(1.36282 0.323695 6.26951e-20)
(1.35193 0.314079 2.57772e-20)
(1.34114 0.304337 -8.53405e-20)
(1.33069 0.294619 -8.90625e-20)
(1.32064 0.285014 -3.39022e-20)
(1.31094 0.275543 7.71134e-20)
(1.30151 0.266193 -5.04308e-20)
(1.29214 0.257409 -6.83036e-21)
(0.0967186 0.0131293 -6.58634e-20)
(0.285048 0.0454162 4.28827e-20)
(0.468959 0.0871751 2.78814e-20)
(0.644696 0.133239 9.74327e-20)
(0.8075 0.180484 2.43279e-20)
(0.952849 0.225886 -1.07383e-19)
(1.07729 0.266809 -2.95197e-20)
(1.17894 0.301358 3.20498e-21)
(1.25766 0.328479 2.91561e-20)
(1.31491 0.347936 1.4798e-19)
(1.35334 0.360172 -5.63694e-20)
(1.37623 0.3661 7.26213e-20)
(1.38709 0.36688 5.78705e-21)
(1.38919 0.363719 -6.28081e-20)
(1.38531 0.357724 -1.82318e-20)
(1.37768 0.349827 9.68092e-20)
(1.36795 0.340747 -7.21155e-20)
(1.35724 0.331009 5.61659e-20)
(1.34629 0.320967 -5.8387e-20)
(1.33552 0.310853 1.36108e-19)
(1.32513 0.300803 1.34012e-19)
(1.31517 0.290898 7.74147e-20)
(1.30558 0.281148 -5.79864e-20)
(1.29626 0.271542 -4.88882e-20)
(1.28699 0.262558 -2.91157e-20)
(0.0999919 0.0151144 4.76588e-20)
(0.293289 0.0510261 1.02812e-19)
(0.480637 0.095963 -7.64042e-20)
(0.658314 0.144638 -3.16785e-20)
(0.821624 0.193822 1.01303e-20)
(0.966217 0.240447 7.06698e-20)
(1.0889 0.281904 6.72659e-20)
(1.18812 0.31639 -1.40774e-20)
(1.2641 0.342986 1.11545e-19)
(1.3186 0.36161 -8.19272e-20)
(1.3545 0.372852 4.69918e-20)
(1.37525 0.377745 -2.17491e-20)
(1.3844 0.377535 -1.0062e-19)
(1.38524 0.373477 -2.93128e-20)
(1.38049 0.3667 -4.48223e-20)
(1.37231 0.358133 -1.11432e-19)
(1.36226 0.348484 9.47065e-20)
(1.35141 0.338258 7.19649e-21)
(1.34042 0.327794 1.22118e-19)
(1.32969 0.317308 -3.55164e-20)
(1.31938 0.306926 -2.63026e-20)
(1.30953 0.296719 3.39763e-20)
(1.30006 0.286689 4.77893e-20)
(1.29086 0.276826 4.49969e-21)
(1.2817 0.267639 3.8243e-20)
(0.103208 0.0171993 -1.59757e-20)
(0.301321 0.0568699 -2.88842e-20)
(0.491928 0.10505 1.48234e-20)
(0.671355 0.156345 7.28622e-20)
(0.834995 0.207433 6.12034e-20)
(0.978684 0.255216 2.21031e-20)
(1.09952 0.297129 -1.05297e-19)
(1.19628 0.331473 3.80912e-20)
(1.26953 0.357479 -1.77894e-20)
(1.32134 0.375222 -3.31918e-20)
(1.3548 0.385441 -6.2126e-20)
(1.37352 0.389287 -5.35267e-20)
(1.38109 0.388084 6.30473e-20)
(1.38076 0.383135 1.54009e-20)
(1.37524 0.375584 -2.18325e-20)
(1.36658 0.366356 7.9947e-20)
(1.35627 0.356144 -1.43986e-20)
(1.34531 0.345435 7.5304e-20)
(1.33432 0.334552 4.71066e-20)
(1.32365 0.323696 4.18178e-20)
(1.31345 0.31298 5.08007e-20)
(1.30372 0.302471 -8.06857e-20)
(1.29438 0.292161 -3.70668e-20)
(1.28532 0.28204 -8.49107e-21)
(1.27627 0.27265 2.11759e-20)
(0.106357 0.0193815 1.44445e-19)
(0.309125 0.0629384 2.90847e-20)
(0.502807 0.11442 -1.58897e-20)
(0.683794 0.168338 6.87184e-20)
(0.847588 0.22129 7.40614e-20)
(0.990236 0.270164 -1.5574e-19)
(1.10913 0.312453 1.04772e-19)
(1.2034 0.346582 -2.63363e-20)
(1.27395 0.371935 -1.57508e-20)
(1.32314 0.388755 2.35188e-19)
(1.35428 0.397925 -2.6922e-20)
(1.37107 0.400712 9.45231e-20)
(1.37717 0.398519 -4.80184e-20)
(1.37579 0.392685 -5.51703e-20)
(1.36957 0.384369 3.24126e-20)
(1.3605 0.374488 -6.60493e-20)
(1.34998 0.363721 1.89272e-20)
(1.33896 0.352535 -1.50956e-19)
(1.328 0.341235 -2.22023e-19)
(1.31742 0.330008 2.4658e-20)
(1.30734 0.318961 -1.30077e-19)
(1.29774 0.308149 2.93724e-20)
(1.28855 0.297557 4.32208e-20)
(1.27964 0.287177 1.08722e-19)
(1.27072 0.277583 5.3078e-20)
(0.109433 0.0216578 -1.41729e-19)
(0.316679 0.0692215 -2.32052e-19)
(0.513246 0.124057 -6.02762e-20)
(0.695603 0.180593 -1.65866e-19)
(0.859382 0.235365 1.26959e-19)
(1.00086 0.28526 1.35592e-19)
(1.11774 0.32785 -2.11987e-19)
(1.2095 0.36169 2.12051e-20)
(1.27739 0.386333 7.89577e-21)
(1.32404 0.402188 -1.7805e-19)
(1.35295 0.410288 1.14008e-19)
(1.36793 0.41201 -1.84661e-19)
(1.37267 0.408828 -1.86286e-20)
(1.37033 0.402118 5.90037e-20)
(1.3635 0.393047 7.58016e-20)
(1.35408 0.382523 7.2285e-20)
(1.34341 0.371207 -7.92841e-20)
(1.33236 0.359548 1.30608e-19)
(1.32146 0.347834 3.73e-20)
(1.31098 0.336239 4.56816e-20)
(1.30104 0.324859 -1.24614e-19)
(1.2916 0.313745 -9.23335e-20)
(1.28256 0.302871 3.26893e-20)
(1.27381 0.29223 -6.86567e-20)
(1.26504 0.282433 1.92032e-21)
(0.112426 0.0240248 -3.18039e-20)
(0.323967 0.0757082 1.34678e-19)
(0.523224 0.133942 -2.91597e-20)
(0.706761 0.193088 6.09131e-21)
(0.87036 0.24963 -1.22661e-19)
(1.01055 0.300476 -2.79476e-21)
(1.12535 0.343288 7.90344e-20)
(1.2146 0.376771 2.26748e-20)
(1.27986 0.400649 -1.24536e-19)
(1.32405 0.415505 -3.56972e-20)
(1.35083 0.422516 -3.00251e-19)
(1.36413 0.423168 3.05261e-20)
(1.3676 0.419002 2.1668e-19)
(1.36441 0.411425 -2.08376e-19)
(1.35704 0.401609 -1.29712e-19)
(1.34734 0.390452 -1.12545e-19)
(1.33656 0.378594 4.34565e-20)
(1.32552 0.366467 -1.66129e-19)
(1.3147 0.354343 8.2227e-20)
(1.30435 0.342381 -8.59939e-20)
(1.29455 0.33067 9.18598e-20)
(1.28528 0.319254 7.11685e-20)
(1.27642 0.308097 2.72173e-20)
(1.26784 0.297192 -4.02599e-20)
(1.25923 0.287196 2.4881e-21)
(0.115329 0.0264786 -1.937e-19)
(0.330969 0.0823869 6.0304e-20)
(0.532716 0.144056 2.22758e-21)
(0.717244 0.205797 9.33308e-20)
(0.880504 0.264058 7.47534e-21)
(1.01929 0.315782 1.02449e-19)
(1.13195 0.358742 -5.0079e-20)
(1.21869 0.391799 2.20335e-19)
(1.28138 0.414862 -1.50541e-19)
(1.32319 0.428686 2.40646e-19)
(1.34796 0.434593 1.99435e-19)
(1.35967 0.434174 2.32923e-19)
(1.36199 0.42903 -1.68725e-19)
(1.35803 0.420598 1.74484e-19)
(1.3502 0.410048 9.84648e-21)
(1.34027 0.398267 -1.447e-19)
(1.32943 0.385875 1.70592e-20)
(1.31843 0.373286 8.32539e-20)
(1.30771 0.360753 -4.98543e-20)
(1.29751 0.348427 -7.37081e-20)
(1.28788 0.336386 -1.28423e-19)
(1.27879 0.324669 1.01851e-19)
(1.27012 0.313228 -4.41664e-20)
(1.26172 0.302058 -1.06263e-20)
(1.25325 0.291868 -1.67225e-19)
(0.118135 0.0290152 2.86931e-19)
(0.33767 0.0892448 -7.19643e-20)
(0.541703 0.154379 5.975e-20)
(0.727034 0.218694 -1.77696e-19)
(0.889801 0.278618 -4.18248e-20)
(1.02708 0.331148 -4.50416e-20)
(1.13756 0.37418 -9.95224e-20)
(1.22179 0.406749 -4.01089e-19)
(1.28197 0.42895 1.75229e-19)
(1.3215 0.441714 -8.15931e-20)
(1.34435 0.446506 -1.9961e-19)
(1.35458 0.445016 -5.48126e-20)
(1.35585 0.438903 5.54851e-20)
(1.3512 0.429626 -1.5478e-19)
(1.34299 0.418355 9.54984e-20)
(1.33289 0.405959 8.17104e-21)
(1.32202 0.393042 4.84582e-21)
(1.31109 0.379995 -1.62703e-20)
(1.30051 0.367058 1.67734e-19)
(1.29047 0.35437 -1.08574e-21)
(1.28103 0.342001 3.30132e-19)
(1.27213 0.329984 -1.08602e-19)
(1.26366 0.318262 -1.10608e-19)
(1.25545 0.306833 1.41442e-19)
(1.24709 0.296447 1.39856e-19)
(0.120836 0.0316298 -4.47846e-21)
(0.344051 0.0962689 1.73458e-19)
(0.550164 0.16489 -1.8902e-20)
(0.736112 0.231753 1.43782e-19)
(0.89824 0.293282 -2.41679e-20)
(1.03391 0.346544 -8.93171e-20)
(1.14218 0.389577 4.42406e-21)
(1.22392 0.421596 2.92092e-19)
(1.28165 0.442892 -2.17495e-20)
(1.31898 0.454571 -1.60131e-19)
(1.34003 0.458239 1.41568e-19)
(1.34888 0.455682 -5.96736e-20)
(1.3492 0.44861 5.5812e-20)
(1.34395 0.438501 2.07664e-19)
(1.33542 0.42652 -5.90613e-20)
(1.3252 0.41352 4.69963e-20)
(1.31435 0.400085 -6.62771e-20)
(1.30352 0.386586 -1.64925e-19)
(1.29309 0.373249 1.67734e-20)
(1.28324 0.360201 -7.39014e-20)
(1.274 0.347506 -5.6959e-20)
(1.26531 0.335193 -5.09618e-21)
(1.25705 0.323195 2.5313e-19)
(1.24903 0.311528 -5.77918e-21)
(1.24082 0.300921 3.20707e-20)
(0.123425 0.0343176 -2.29279e-19)
(0.3501 0.103445 -2.35591e-20)
(0.558083 0.175568 1.0236e-19)
(0.744465 0.244947 -1.41202e-19)
(0.905812 0.308019 3.20583e-20)
(1.03979 0.36194 8.97004e-20)
(1.14581 0.404902 4.72741e-21)
(1.22509 0.436315 -2.74407e-19)
(1.28044 0.456666 1.09024e-19)
(1.31566 0.46724 -8.87962e-20)
(1.33501 0.469779 1.69794e-19)
(1.3426 0.46616 3.56572e-20)
(1.34205 0.45814 1.91248e-19)
(1.33629 0.447212 -9.85456e-20)
(1.3275 0.434535 1.63922e-20)
(1.31721 0.420942 3.61135e-20)
(1.30641 0.406996 -3.30954e-20)
(1.29572 0.393052 4.808e-20)
(1.28546 0.379319 9.64476e-20)
(1.27581 0.365914 2.92597e-19)
(1.26678 0.352896 -1.63342e-19)
(1.25831 0.340287 -6.02625e-20)
(1.25028 0.328014 -1.55226e-19)
(1.24248 0.316118 -7.54205e-20)
(1.23446 0.305299 -1.08963e-19)
(0.125895 0.0370734 1.61448e-19)
(0.3558 0.110759 3.0438e-20)
(0.565444 0.186391 -1.54778e-19)
(0.752079 0.258249 1.81638e-20)
(0.91251 0.3228 -8.65673e-20)
(1.04472 0.377307 3.80468e-22)
(1.14847 0.420129 6.66498e-20)
(1.22532 0.450881 1.59669e-19)
(1.27835 0.470252 -8.50152e-20)
(1.31157 0.479704 6.78922e-20)
(1.32932 0.481112 -1.60801e-19)
(1.33575 0.476438 -2.33268e-19)
(1.33443 0.467484 -2.94992e-19)
(1.32823 0.455751 -1.27973e-19)
(1.31924 0.44239 4.95117e-20)
(1.30893 0.428215 2.24888e-20)
(1.29822 0.413767 3.28889e-19)
(1.28768 0.399383 -6.19878e-20)
(1.27762 0.385258 1.42421e-20)
(1.26818 0.3715 -1.0927e-19)
(1.25938 0.358162 1.22381e-19)
(1.25115 0.34526 5.1381e-20)
(1.24336 0.332715 1.03711e-19)
(1.23579 0.320587 -2.36848e-20)
(1.22798 0.309563 -3.80189e-20)
(0.128241 0.0398917 -1.54223e-19)
(0.36114 0.118194 -4.51241e-20)
(0.57223 0.197336 1.26493e-19)
(0.758942 0.27163 -3.96357e-19)
(0.91833 0.337594 -9.0883e-20)
(1.0487 0.392613 3.14997e-20)
(1.15017 0.435231 -5.53778e-20)
(1.22463 0.46527 1.24523e-19)
(1.27541 0.48363 2.58198e-20)
(1.30672 0.491946 1.27221e-19)
(1.32298 0.492223 2.22103e-19)
(1.32835 0.486504 3.40106e-19)
(1.32635 0.476629 1.47369e-19)
(1.31977 0.464107 -8.35055e-20)
(1.31065 0.450076 3.31084e-20)
(1.30035 0.43533 -3.16407e-20)
(1.28977 0.42039 -1.93974e-19)
(1.27941 0.405572 1.8786e-19)
(1.26956 0.391061 -3.38225e-19)
(1.26035 0.376953 3.30327e-20)
(1.2518 0.363297 -4.28003e-20)
(1.24383 0.350106 8.15083e-20)
(1.23629 0.337293 -9.71744e-20)
(1.22896 0.324933 -1.61475e-20)
(1.22137 0.313708 1.05805e-19)
(0.130456 0.0427667 -2.26488e-19)
(0.366107 0.125737 1.6737e-20)
(0.578431 0.20838 5.37096e-20)
(0.765045 0.285064 2.46931e-19)
(0.923268 0.352373 3.00412e-19)
(1.05174 0.407831 1.62206e-19)
(1.15092 0.450179 -1.5202e-19)
(1.22302 0.47946 -2.53337e-19)
(1.27165 0.49678 -2.12217e-19)
(1.30115 0.503949 1.99509e-20)
(1.31602 0.503099 -2.13122e-19)
(1.32041 0.496346 -5.90049e-20)
(1.31781 0.485566 -9.08059e-20)
(1.31094 0.472271 1.78899e-19)
(1.30173 0.457583 7.50965e-20)
(1.2915 0.442278 -2.75956e-19)
(1.28107 0.426854 1.28101e-19)
(1.27091 0.41161 6.27141e-20)
(1.2613 0.396717 2.30581e-19)
(1.25234 0.382264 1.33096e-19)
(1.24405 0.368294 -1.48819e-19)
(1.23634 0.354817 -1.68361e-19)
(1.22906 0.341739 1.05146e-19)
(1.22199 0.329151 1.20858e-19)
(1.21463 0.317727 -4.01006e-20)
(0.132535 0.0456924 1.62422e-19)
(0.370691 0.133369 6.5065e-21)
(0.584035 0.219499 -2.87845e-19)
(0.770382 0.298521 -4.43121e-21)
(0.927325 0.367105 -4.31077e-19)
(1.05384 0.422931 1.11463e-20)
(1.15073 0.464948 -6.89779e-20)
(1.22053 0.493426 1.54101e-19)
(1.26708 0.509682 2.24468e-19)
(1.29486 0.515698 5.5794e-20)
(1.30844 0.513725 4.53971e-20)
(1.31196 0.505952 -1.03427e-19)
(1.30885 0.494284 1.20462e-20)
(1.30174 0.480231 1.19566e-19)
(1.2925 0.464903 -1.16234e-19)
(1.28237 0.449051 1.43366e-19)
(1.27212 0.433152 -1.19861e-19)
(1.26219 0.417489 -1.16031e-19)
(1.25283 0.40222 -1.26239e-19)
(1.24414 0.387426 -1.44369e-19)
(1.23612 0.373146 1.22456e-19)
(1.22868 0.359387 1.56746e-19)
(1.22169 0.346048 -3.56235e-20)
(1.21489 0.333234 -3.08423e-20)
(1.20777 0.321617 -1.82218e-20)
(0.134473 0.0486626 -2.89711e-19)
(0.374881 0.141076 1.67691e-19)
(0.589032 0.230669 2.68282e-19)
(0.774947 0.311974 2.62689e-19)
(0.930501 0.381761 1.68242e-19)
(1.05501 0.437884 -1.98694e-19)
(1.14962 0.479512 1.64654e-19)
(1.21718 0.507147 5.63985e-21)
(1.26172 0.522318 -1.80845e-19)
(1.28788 0.527176 -2.07929e-19)
(1.30027 0.524089 2.67581e-19)
(1.30301 0.515311 -7.89342e-20)
(1.29946 0.502771 -1.49081e-19)
(1.29218 0.487979 -1.0049e-19)
(1.28296 0.472024 -7.72256e-21)
(1.27297 0.455637 8.89562e-20)
(1.26293 0.439274 1.12414e-19)
(1.25325 0.4232 -5.07499e-20)
(1.24416 0.407561 1.96311e-19)
(1.23574 0.392431 2.17694e-20)
(1.22801 0.377846 1.50064e-20)
(1.22086 0.363809 -9.89694e-20)
(1.21417 0.350213 -1.32905e-19)
(1.20765 0.337179 2.25538e-20)
(1.20078 0.325374 -1.12649e-19)
(0.136265 0.0516707 2.49876e-19)
(0.378669 0.14884 1.19399e-20)
(0.593415 0.241866 -3.23475e-19)
(0.778736 0.325393 4.99747e-21)
(0.932801 0.396311 -1.2776e-19)
(1.05526 0.452661 1.61161e-19)
(1.14761 0.493844 1.84562e-19)
(1.21297 0.520599 -1.32176e-19)
(1.2556 0.534669 -1.31855e-19)
(1.28024 0.538368 1.08245e-19)
(1.29154 0.534177 -1.82951e-19)
(1.29358 0.524411 2.67948e-19)
(1.28967 0.511018 6.21783e-20)
(1.28228 0.495504 -2.50505e-20)
(1.27312 0.478939 3.07585e-19)
(1.26331 0.46203 -7.798e-20)
(1.25351 0.445212 -8.44062e-20)
(1.2441 0.428734 4.44897e-20)
(1.23529 0.412732 -9.58541e-21)
(1.22717 0.397272 -1.62923e-19)
(1.21973 0.382386 -8.58199e-20)
(1.21289 0.368076 -8.37598e-20)
(1.2065 0.354228 1.59424e-19)
(1.20028 0.340979 -2.31914e-20)
(1.19367 0.328991 1.9204e-19)
(0.137907 0.0547102 1.30856e-19)
(0.382048 0.156643 -5.15096e-19)
(0.597178 0.253065 6.7553e-20)
(0.781749 0.338751 -2.50237e-19)
(0.934229 0.410726 4.61367e-19)
(1.05461 0.467235 -2.03815e-19)
(1.14472 0.50792 1.20974e-19)
(1.20794 0.533763 -4.87194e-20)
(1.24874 0.546716 1.35633e-19)
(1.27196 0.549259 -1.02131e-19)
(1.28225 0.543976 4.15827e-20)
(1.28368 0.533239 7.25346e-20)
(1.27948 0.519014 1.18845e-19)
(1.27204 0.502796 -3.1592e-19)
(1.26299 0.485636 1.34086e-19)
(1.25339 0.468218 8.20081e-20)
(1.24385 0.450956 -3.6119e-20)
(1.23473 0.434084 -5.84617e-20)
(1.22623 0.417725 -2.85004e-20)
(1.21841 0.401941 5.42822e-20)
(1.21128 0.38676 2.93388e-20)
(1.20475 0.372181 2.16215e-19)
(1.19869 0.358087 -8.78464e-20)
(1.19278 0.344629 -1.7531e-20)
(1.18644 0.332463 -1.54862e-19)
(0.139395 0.0577742 -1.12297e-19)
(0.38501 0.164469 8.69351e-21)
(0.600315 0.264243 2.0647e-19)
(0.783986 0.352019 -1.57278e-19)
(0.934793 0.424977 1.103e-19)
(1.05307 0.481578 1.03018e-19)
(1.14095 0.521715 -2.03786e-19)
(1.20211 0.546615 3.40611e-20)
(1.24116 0.558442 6.20053e-21)
(1.26305 0.559832 2.86705e-19)
(1.27244 0.553473 1.7868e-20)
(1.27334 0.541785 -2.72078e-19)
(1.26891 0.526747 -2.40495e-19)
(1.26147 0.509845 2.37165e-19)
(1.25258 0.492106 -3.02089e-19)
(1.24322 0.474194 5.60258e-20)
(1.23397 0.456499 -1.49628e-20)
(1.22516 0.439241 3.99746e-20)
(1.21697 0.422534 1.0397e-19)
(1.20947 0.406431 -9.2629e-20)