/*--------------------------------*- C++ -*----------------------------------*\
  =========                 |
  \\      /  F ield         | OpenFOAM: The Open Source CFD Toolbox
   \\    /   O peration     | Website:  https://openfoam.org
    \\  /    A nd           | Version:  7
     \\/     M anipulation  |
\*---------------------------------------------------------------------------*/
FoamFile
{
    version     2.0;
    format      ascii;
    class       volScalarField;
    location    "180";
    object      p;
}
// * * * * * * * * * * * * * * * * * * * * * * * * * * * * * * * * * * * * * //

dimensions      [0 2 -2 0 0 0 0];

internalField   nonuniform List<scalar> 
20050
(
-0.356282
-0.358702
-0.359811
-0.360619
-0.361252
-0.361801
-0.362367
-0.363008
-0.363756
-0.364626
-0.365637
-0.366827
-0.368262
-0.370051
-0.372395
-0.359142
-0.361806
-0.363065
-0.364034
-0.364849
-0.365602
-0.366391
-0.367269
-0.368257
-0.369358
-0.370574
-0.371918
-0.373428
-0.37519
-0.377343
-0.36224
-0.365117
-0.366517
-0.367642
-0.368638
-0.369598
-0.370616
-0.371737
-0.372973
-0.374313
-0.375741
-0.377244
-0.378833
-0.380565
-0.382505
-0.365588
-0.368646
-0.370173
-0.371449
-0.372625
-0.373792
-0.375043
-0.376414
-0.377905
-0.379491
-0.381137
-0.382806
-0.384478
-0.386178
-0.387888
-0.369197
-0.372398
-0.374038
-0.375456
-0.376809
-0.378185
-0.379671
-0.381296
-0.383048
-0.384887
-0.386757
-0.388596
-0.390356
-0.392021
-0.393485
-0.37307
-0.376372
-0.37811
-0.37966
-0.381185
-0.382769
-0.384492
-0.386374
-0.388391
-0.390488
-0.392586
-0.394596
-0.396447
-0.398072
-0.399274
-0.377207
-0.380565
-0.382382
-0.384054
-0.385744
-0.387533
-0.389493
-0.391633
-0.393917
-0.396273
-0.398599
-0.400779
-0.402719
-0.404296
-0.405216
-0.381599
-0.384967
-0.386844
-0.388625
-0.390472
-0.39246
-0.394654
-0.397051
-0.399601
-0.402214
-0.404765
-0.40711
-0.409132
-0.410646
-0.411256
-0.386232
-0.389563
-0.391479
-0.393355
-0.395347
-0.397528
-0.39995
-0.402599
-0.405411
-0.408276
-0.411044
-0.413543
-0.415632
-0.417064
-0.41732
-0.391087
-0.394332
-0.396267
-0.39822
-0.400346
-0.402708
-0.40535
-0.408244
-0.411309
-0.414417
-0.417391
-0.420025
-0.422161
-0.423485
-0.423324
-0.396136
-0.39925
-0.40118
-0.403194
-0.405438
-0.407969
-0.410818
-0.413944
-0.417252
-0.420589
-0.423752
-0.426499
-0.428651
-0.429837
-0.429171
-0.40135
-0.404287
-0.406191
-0.408245
-0.41059
-0.413272
-0.416313
-0.419658
-0.423191
-0.42674
-0.43007
-0.4329
-0.435031
-0.436047
-0.434757
-0.406691
-0.409411
-0.411265
-0.413339
-0.415763
-0.418579
-0.421793
-0.425335
-0.429074
-0.432812
-0.436284
-0.439165
-0.441227
-0.442044
-0.439978
-0.412121
-0.414586
-0.416367
-0.418438
-0.420919
-0.423845
-0.427209
-0.430926
-0.434846
-0.438747
-0.442332
-0.445226
-0.447164
-0.447764
-0.444735
-0.417597
-0.419775
-0.421461
-0.423505
-0.426018
-0.429028
-0.432514
-0.436379
-0.440451
-0.444485
-0.448149
-0.451016
-0.45277
-0.453152
-0.448908
-0.423079
-0.424942
-0.426511
-0.428502
-0.431019
-0.434083
-0.437661
-0.44164
-0.445832
-0.449965
-0.453673
-0.456473
-0.457977
-0.458167
-0.452226
-0.428522
-0.43005
-0.431481
-0.433394
-0.435885
-0.43897
-0.442604
-0.446661
-0.450935
-0.455127
-0.458842
-0.461534
-0.462713
-0.462791
-0.454489
-0.433888
-0.435066
-0.43634
-0.438148
-0.44058
-0.443649
-0.4473
-0.451393
-0.455707
-0.459919
-0.463599
-0.466145
-0.466887
-0.466782
-0.457238
-0.439138
-0.43996
-0.441058
-0.442734
-0.445073
-0.448087
-0.451711
-0.455796
-0.460103
-0.464288
-0.467891
-0.470271
-0.47068
-0.469938
-0.459191
-0.444241
-0.444705
-0.445612
-0.447129
-0.449339
-0.452255
-0.455807
-0.459834
-0.464084
-0.468195
-0.471673
-0.473846
-0.473851
-0.472598
-0.460295
-0.449169
-0.449283
-0.449983
-0.451314
-0.453359
-0.456134
-0.459566
-0.463483
-0.467624
-0.471604
-0.474908
-0.476832
-0.476372
-0.474715
-0.460642
-0.453901
-0.453678
-0.454159
-0.455279
-0.457123
-0.459713
-0.462972
-0.466727
-0.470703
-0.474497
-0.477573
-0.479206
-0.478229
-0.476217
-0.460291
-0.458425
-0.457882
-0.458135
-0.459019
-0.460627
-0.462988
-0.466026
-0.469564
-0.473318
-0.476869
-0.479661
-0.480955
-0.479421
-0.477063
-0.459297
-0.462738
-0.461895
-0.461912
-0.462539
-0.463877
-0.465966
-0.468734
-0.472002
-0.475479
-0.478731
-0.481183
-0.482081
-0.47996
-0.47722
-0.457726
-0.466841
-0.465724
-0.465499
-0.465849
-0.466886
-0.468664
-0.471115
-0.474064
-0.477211
-0.480109
-0.482164
-0.482607
-0.479881
-0.476662
-0.455654
-0.470748
-0.46938
-0.46891
-0.468966
-0.469675
-0.471105
-0.473199
-0.475783
-0.478551
-0.481043
-0.482649
-0.482566
-0.479234
-0.475378
-0.453178
-0.474477
-0.472885
-0.472167
-0.471914
-0.472272
-0.473324
-0.475024
-0.477201
-0.479547
-0.481584
-0.482691
-0.482007
-0.478082
-0.473359
-0.450386
-0.478057
-0.476262
-0.475295
-0.474723
-0.47471
-0.475359
-0.476634
-0.47837
-0.480254
-0.481794
-0.482354
-0.48099
-0.476494
-0.470572
-0.447246
-0.481521
-0.479542
-0.478326
-0.477427
-0.477029
-0.477254
-0.478079
-0.479346
-0.480734
-0.481736
-0.481704
-0.479592
-0.474551
-0.466945
-0.443606
-0.484907
-0.482759
-0.481293
-0.480061
-0.479269
-0.479056
-0.479413
-0.480186
-0.481049
-0.481474
-0.480807
-0.477904
-0.472349
-0.46257
-0.44002
-0.488259
-0.485949
-0.484234
-0.482667
-0.481473
-0.480814
-0.48069
-0.480949
-0.481258
-0.48107
-0.479718
-0.476002
-0.469924
-0.45802
-0.43932
-0.491623
-0.489153
-0.487187
-0.485282
-0.483687
-0.482576
-0.481961
-0.48169
-0.481417
-0.480574
-0.478485
-0.473926
-0.46718
-0.453955
-0.444012
-0.495044
-0.492408
-0.490189
-0.487948
-0.485951
-0.484388
-0.483275
-0.482458
-0.481574
-0.480031
-0.477141
-0.471699
-0.46411
-0.450083
-0.441072
-0.49857
-0.495753
-0.493279
-0.490702
-0.488306
-0.486291
-0.484675
-0.483294
-0.481765
-0.479473
-0.475715
-0.469331
-0.46074
-0.445975
-0.435844
-0.502244
-0.499226
-0.496492
-0.49358
-0.490788
-0.488323
-0.486198
-0.484232
-0.48202
-0.478921
-0.474225
-0.466833
-0.45713
-0.441614
-0.429879
-0.506106
-0.502861
-0.499859
-0.496613
-0.493429
-0.490514
-0.48787
-0.485295
-0.482356
-0.47839
-0.472682
-0.464217
-0.453334
-0.437051
-0.423597
-0.510191
-0.506687
-0.50341
-0.49983
-0.496256
-0.492889
-0.489713
-0.486499
-0.482781
-0.477881
-0.471092
-0.461496
-0.449401
-0.432338
-0.417298
-0.51453
-0.510731
-0.50717
-0.503253
-0.499288
-0.495464
-0.491739
-0.487849
-0.483295
-0.477392
-0.469457
-0.458682
-0.445372
-0.427532
-0.411109
-0.519147
-0.515014
-0.511157
-0.5069
-0.502542
-0.498252
-0.493953
-0.489341
-0.48389
-0.476914
-0.467771
-0.455784
-0.441277
-0.42268
-0.405092
-0.524059
-0.519554
-0.515389
-0.510785
-0.506027
-0.501255
-0.49635
-0.490965
-0.484549
-0.47643
-0.46603
-0.452811
-0.437141
-0.41782
-0.399264
-0.529278
-0.524361
-0.519876
-0.514918
-0.509749
-0.504474
-0.498923
-0.492705
-0.485252
-0.475924
-0.464225
-0.449768
-0.432981
-0.412975
-0.393617
-0.534809
-0.529442
-0.524624
-0.519302
-0.513707
-0.5079
-0.501655
-0.494539
-0.485974
-0.475375
-0.462345
-0.446657
-0.428805
-0.408158
-0.388135
-0.540652
-0.534799
-0.529635
-0.523938
-0.517897
-0.511523
-0.504527
-0.496438
-0.486687
-0.474759
-0.460378
-0.443479
-0.424617
-0.403373
-0.382791
-0.5468
-0.540431
-0.534909
-0.528821
-0.522309
-0.515324
-0.507512
-0.498371
-0.487359
-0.474052
-0.458312
-0.440229
-0.420414
-0.398616
-0.377556
-0.553242
-0.546329
-0.540438
-0.533944
-0.526931
-0.519281
-0.51058
-0.500303
-0.487955
-0.473229
-0.456132
-0.436901
-0.41619
-0.393877
-0.372401
-0.559962
-0.552483
-0.546212
-0.539294
-0.531741
-0.523366
-0.513693
-0.502194
-0.488442
-0.472267
-0.453824
-0.433485
-0.411933
-0.389142
-0.367296
-0.566936
-0.558874
-0.552216
-0.544851
-0.536716
-0.527546
-0.516811
-0.504001
-0.488784
-0.471138
-0.451372
-0.429971
-0.40763
-0.384394
-0.362212
-0.574139
-0.565481
-0.558427
-0.550593
-0.541824
-0.531779
-0.519889
-0.505681
-0.488943
-0.469819
-0.448759
-0.426344
-0.403263
-0.379613
-0.35712
-0.581537
-0.572278
-0.56482
-0.556487
-0.547026
-0.53602
-0.522876
-0.507187
-0.488885
-0.468284
-0.445967
-0.422587
-0.398814
-0.374777
-0.351992
-0.589091
-0.57923
-0.571362
-0.562498
-0.552279
-0.540218
-0.52572
-0.508472
-0.488574
-0.466509
-0.442977
-0.418682
-0.394261
-0.369863
-0.346803
-0.596756
-0.586298
-0.578012
-0.568581
-0.55753
-0.544316
-0.528364
-0.509489
-0.487973
-0.464467
-0.439768
-0.41461
-0.389583
-0.364848
-0.341525
-0.604481
-0.593437
-0.584725
-0.574684
-0.56272
-0.54825
-0.53075
-0.51019
-0.48705
-0.462135
-0.43632
-0.410348
-0.384757
-0.359709
-0.336136
-0.612209
-0.600594
-0.591447
-0.580747
-0.567786
-0.551955
-0.532818
-0.510529
-0.485769
-0.459487
-0.432611
-0.405876
-0.37976
-0.35442
-0.330609
-0.619874
-0.607709
-0.598116
-0.586706
-0.572656
-0.555361
-0.534507
-0.51046
-0.484098
-0.456496
-0.428617
-0.401169
-0.374567
-0.34896
-0.324924
-0.627408
-0.614718
-0.604665
-0.592486
-0.577254
-0.558396
-0.535759
-0.509937
-0.482005
-0.453139
-0.424315
-0.396204
-0.369154
-0.343303
-0.319057
-0.634734
-0.621547
-0.61102
-0.598009
-0.5815
-0.560988
-0.536515
-0.508918
-0.479457
-0.449387
-0.419681
-0.390958
-0.363499
-0.337428
-0.312989
-0.641771
-0.62812
-0.617099
-0.603191
-0.585312
-0.563062
-0.536716
-0.50736
-0.476423
-0.445217
-0.414691
-0.385405
-0.357577
-0.331312
-0.306698
-0.648431
-0.634353
-0.622817
-0.607945
-0.588605
-0.564548
-0.536309
-0.505224
-0.472873
-0.440602
-0.40932
-0.379524
-0.351367
-0.324935
-0.300166
-0.654624
-0.640157
-0.628083
-0.612178
-0.591295
-0.565375
-0.535239
-0.502472
-0.468778
-0.435516
-0.403545
-0.37329
-0.344845
-0.318275
-0.293376
-0.660258
-0.645442
-0.632805
-0.615797
-0.593296
-0.565474
-0.533457
-0.499067
-0.46411
-0.429935
-0.397342
-0.366681
-0.337993
-0.311315
-0.286312
-0.665235
-0.650114
-0.636885
-0.618711
-0.594528
-0.564782
-0.530916
-0.494974
-0.45884
-0.423835
-0.390688
-0.359676
-0.330788
-0.304036
-0.278957
-0.669459
-0.654074
-0.640228
-0.620825
-0.59491
-0.563236
-0.527573
-0.490163
-0.452944
-0.417193
-0.383561
-0.352255
-0.323214
-0.296421
-0.2713
-0.672832
-0.657229
-0.642737
-0.622051
-0.594367
-0.560782
-0.523387
-0.484604
-0.446397
-0.409986
-0.375942
-0.344398
-0.315253
-0.288457
-0.263328
-0.675257
-0.659479
-0.644314
-0.622299
-0.592829
-0.557366
-0.518321
-0.478269
-0.439177
-0.402195
-0.36781
-0.336088
-0.306888
-0.280128
-0.25503
-0.676639
-0.660731
-0.64487
-0.621489
-0.590229
-0.552943
-0.512344
-0.471134
-0.431262
-0.393799
-0.359149
-0.32731
-0.298107
-0.271422
-0.246395
-0.676889
-0.660894
-0.644314
-0.619542
-0.58651
-0.547471
-0.505427
-0.463177
-0.422635
-0.384784
-0.349943
-0.318049
-0.288897
-0.262331
-0.237417
-0.675917
-0.659879
-0.642563
-0.616387
-0.581617
-0.540914
-0.497545
-0.454381
-0.41328
-0.375133
-0.340177
-0.308293
-0.279246
-0.252846
-0.228094
-0.673644
-0.657604
-0.63954
-0.611962
-0.575506
-0.533242
-0.488679
-0.444729
-0.403182
-0.364834
-0.329842
-0.29803
-0.269144
-0.24296
-0.218431
-0.669992
-0.653993
-0.635174
-0.606209
-0.568138
-0.524431
-0.478811
-0.434209
-0.392332
-0.353878
-0.318927
-0.287253
-0.258583
-0.232664
-0.208405
-0.664894
-0.648975
-0.629404
-0.599082
-0.559481
-0.514463
-0.467932
-0.422813
-0.380722
-0.342257
-0.307428
-0.275957
-0.247559
-0.221946
-0.197939
-0.65829
-0.642491
-0.622174
-0.59054
-0.549512
-0.503324
-0.456033
-0.410536
-0.368347
-0.329968
-0.295339
-0.264141
-0.23608
-0.210813
-0.186956
-0.650125
-0.634485
-0.61344
-0.580552
-0.538214
-0.491008
-0.443113
-0.397376
-0.355206
-0.317009
-0.28266
-0.251803
-0.224144
-0.19929
-0.1756
-0.640359
-0.624916
-0.603166
-0.569099
-0.52558
-0.477515
-0.429173
-0.383335
-0.3413
-0.303382
-0.269392
-0.238945
-0.211738
-0.187312
-0.164069
-0.628956
-0.613747
-0.591327
-0.556165
-0.511607
-0.462847
-0.414219
-0.36842
-0.326636
-0.289091
-0.255542
-0.225576
-0.198899
-0.174909
-0.152234
-0.615893
-0.600955
-0.577907
-0.541749
-0.496301
-0.447018
-0.398263
-0.352641
-0.311221
-0.274144
-0.241117
-0.211706
-0.185608
-0.162123
-0.140053
-0.601156
-0.586525
-0.562899
-0.525855
-0.479675
-0.430041
-0.381321
-0.336011
-0.295068
-0.258554
-0.226129
-0.19734
-0.171879
-0.148963
-0.127523
-0.58474
-0.570453
-0.546308
-0.508496
-0.46175
-0.411939
-0.363412
-0.318548
-0.278192
-0.242334
-0.210588
-0.182491
-0.157724
-0.135432
-0.114658
-0.566653
-0.552744
-0.528146
-0.489694
-0.442551
-0.392738
-0.344561
-0.300273
-0.260615
-0.225501
-0.194512
-0.167172
-0.143159
-0.121542
-0.101472
-0.54691
-0.533415
-0.508436
-0.469477
-0.422109
-0.372474
-0.324798
-0.281212
-0.242356
-0.208076
-0.177919
-0.151403
-0.128199
-0.107303
-0.0879819
-0.525538
-0.51249
-0.48721
-0.447884
-0.400468
-0.35118
-0.304152
-0.261393
-0.223441
-0.190081
-0.16083
-0.135202
-0.112862
-0.0927336
-0.0742053
-0.502572
-0.490004
-0.464508
-0.424966
-0.377693
-0.328873
-0.282657
-0.240849
-0.2039
-0.171542
-0.143269
-0.118592
-0.0971696
-0.0778518
-0.0601615
-0.478054
-0.466
-0.440379
-0.400786
-0.353847
-0.305582
-0.260348
-0.219614
-0.183764
-0.15249
-0.125263
-0.101598
-0.0811433
-0.0626793
-0.045872
-0.452036
-0.440534
-0.414887
-0.375394
-0.32883
-0.281483
-0.237286
-0.197729
-0.163069
-0.132955
-0.106842
-0.0842463
-0.0648082
-0.0472397
-0.0313608
-0.424576
-0.41367
-0.388105
-0.348828
-0.30283
-0.256527
-0.213515
-0.175235
-0.141852
-0.112972
-0.0880364
-0.066567
-0.048191
-0.0315589
-0.0166551
-0.395742
-0.385484
-0.360104
-0.321088
-0.275953
-0.230782
-0.189083
-0.15218
-0.120154
-0.0925765
-0.0688798
-0.0485908
-0.0313203
-0.0156653
-0.00178625
-0.365606
-0.356053
-0.330885
-0.292375
-0.248219
-0.204316
-0.164046
-0.12861
-0.0980173
-0.071808
-0.0494073
-0.0303502
-0.014226
0.000408865
0.0132046
-0.334247
-0.325473
-0.30052
-0.262771
-0.219702
-0.177193
-0.138459
-0.104575
-0.0754869
-0.0507061
-0.0296554
-0.0118789
0.00306065
0.0166282
0.0282633
-0.301727
-0.293804
-0.269215
-0.23232
-0.190478
-0.149482
-0.112381
-0.0801288
-0.0526096
-0.0293125
-0.00966193
0.00678788
0.0205086
0.0329603
0.0433408
-0.268147
-0.261188
-0.237059
-0.201107
-0.160625
-0.121255
-0.0858752
-0.0553255
-0.0294338
-0.00767042
0.0105335
0.0256136
0.0380903
0.0493867
0.05841
-0.233779
-0.2276
-0.204117
-0.169225
-0.130226
-0.0925828
-0.0590051
-0.0302218
-0.00600973
0.0141757
0.0308902
0.0445638
0.0557904
0.065891
0.0733585
-0.198632
-0.193192
-0.17048
-0.136766
-0.0993627
-0.0635403
-0.0318367
-0.00487634
0.017611
0.0361799
0.051368
0.0636162
0.0736141
0.0823968
0.087757
-0.162767
-0.158113
-0.136249
-0.103828
-0.0681232
-0.0342041
-0.00443808
0.0206506
0.0413746
0.0582938
0.0719295
0.0827634
0.0915695
0.0987385
0.101089
-0.126303
-0.122478
-0.101533
-0.0705071
-0.0365951
-0.00465242
0.0231214
0.0462971
0.0652251
0.0804675
0.092538
0.101988
0.109591
0.114774
0.114121
-0.0893643
-0.0864
-0.0664409
-0.0369047
-0.00486807
0.0250353
0.050771
0.0719995
0.0891048
0.10265
0.113151
0.121228
0.127496
0.130414
0.130222
-0.052069
-0.0499931
-0.0310844
-0.00312168
0.0269675
0.0547784
0.0784386
0.0976932
0.112955
0.124788
0.133718
0.140388
0.145224
0.146553
0.146896
-0.0145402
-0.0133742
0.00442442
0.0307397
0.0588201
0.0844956
0.106052
0.123313
0.136717
0.146829
0.154184
0.159417
0.162816
0.162872
0.163027
0.0230988
0.0233384
0.0399728
0.0645769
0.0905982
0.114105
0.133537
0.148792
0.160331
0.16872
0.174495
0.178274
0.180269
0.179192
0.178802
0.0607248
0.0600259
0.0754481
0.0982874
0.12221
0.143526
0.160823
0.174067
0.183738
0.190404
0.1946
0.19692
0.197538
0.19536
0.194218
0.0982142
0.0965689
0.110738
0.131769
0.153565
0.172677
0.187835
0.19907
0.206879
0.211828
0.214448
0.215314
0.214575
0.211296
0.209274
0.135444
0.132848
0.145731
0.164921
0.184573
0.201476
0.214501
0.223736
0.229694
0.232938
0.233992
0.233411
0.231333
0.226947
0.223967
0.172293
0.168746
0.180315
0.197643
0.215143
0.229845
0.24075
0.248002
0.252126
0.253681
0.253183
0.251169
0.247768
0.242275
0.238288
0.208639
0.204146
0.214384
0.229836
0.245188
0.257704
0.266511
0.271805
0.274118
0.274005
0.271976
0.268548
0.263843
0.257246
0.252224
0.244365
0.238932
0.247828
0.261403
0.274622
0.284976
0.291715
0.29508
0.295613
0.293861
0.290326
0.285506
0.279518
0.271832
0.265759
0.279353
0.272992
0.280543
0.292251
0.303359
0.311585
0.316294
0.317769
0.316556
0.313198
0.308187
0.302004
0.294761
0.286003
0.278877
0.313489
0.306215
0.312427
0.322285
0.331317
0.337459
0.340183
0.339811
0.336894
0.331969
0.325519
0.318004
0.309537
0.299732
0.291558
0.346662
0.338495
0.34338
0.351418
0.358416
0.362524
0.363316
0.361148
0.356576
0.350128
0.342278
0.33347
0.323814
0.312991
0.303781
0.378766
0.369727
0.373306
0.379561
0.384578
0.386712
0.385631
0.381725
0.375551
0.36763
0.358425
0.348365
0.337561
0.325752
0.315525
0.409694
0.399811
0.402112
0.406631
0.409729
0.409956
0.407069
0.401488
0.39377
0.38443
0.373921
0.362655
0.350747
0.33799
0.326771
0.439349
0.42865
0.42971
0.432549
0.433798
0.432191
0.427572
0.420385
0.411188
0.400488
0.388729
0.376308
0.363343
0.349679
0.337497
0.467634
0.456154
0.456014
0.457237
0.456714
0.453356
0.447084
0.438366
0.427759
0.415764
0.402814
0.389291
0.375321
0.360792
0.347682
0.494458
0.482233
0.480944
0.480624
0.478415
0.473394
0.465554
0.455384
0.443441
0.430219
0.41614
0.401574
0.386653
0.371307
0.357308
0.519736
0.506807
0.504423
0.50264
0.498837
0.492248
0.482932
0.471396
0.458195
0.443818
0.428677
0.413129
0.397314
0.381199
0.366355
0.543387
0.529797
0.52638
0.523221
0.517925
0.509868
0.499171
0.486359
0.471983
0.456526
0.440393
0.423929
0.407279
0.390447
0.374806
0.565336
0.55113
0.546748
0.542307
0.535623
0.526205
0.514229
0.500234
0.48477
0.468313
0.451261
0.433947
0.416526
0.399029
0.382644
0.585514
0.570741
0.565467
0.559844
0.551883
0.541215
0.528065
0.512985
0.496523
0.47915
0.461255
0.443161
0.425034
0.406928
0.389854
0.603857
0.588569
0.58248
0.575781
0.56666
0.554857
0.540643
0.524579
0.507213
0.489009
0.47035
0.45155
0.432782
0.414125
0.396422
0.620308
0.604558
0.597736
0.590071
0.579912
0.567095
0.551929
0.534986
0.516812
0.497866
0.478524
0.459093
0.439754
0.420605
0.402335
0.634816
0.618659
0.611191
0.602675
0.591603
0.577896
0.561895
0.544181
0.525297
0.5057
0.485759
0.465774
0.445934
0.426352
0.407581
0.647335
0.630829
0.622804
0.613558
0.601701
0.58723
0.570514
0.552139
0.532648
0.512492
0.492037
0.471577
0.451307
0.431354
0.41215
0.657829
0.641032
0.632543
0.622688
0.61018
0.595075
0.577765
0.558841
0.538845
0.518225
0.497344
0.476489
0.455862
0.435601
0.416033
0.666265
0.649238
0.640379
0.630041
0.617017
0.601409
0.583629
0.564271
0.543875
0.522888
0.501668
0.480499
0.459589
0.439084
0.419224
0.672619
0.655423
0.646291
0.635597
0.622194
0.606217
0.588092
0.568415
0.547726
0.526468
0.504999
0.4836
0.46248
0.441795
0.421719
0.676872
0.659569
0.650263
0.639342
0.625698
0.609488
0.591144
0.571264
0.550389
0.528959
0.507331
0.485784
0.46453
0.443731
0.423518
0.679015
0.661667
0.652286
0.641269
0.627523
0.611214
0.592778
0.572814
0.551859
0.530356
0.50866
0.487048
0.465736
0.444889
0.424612
0.679043
0.661713
0.652356
0.641372
0.627664
0.611394
0.592993
0.57306
0.552134
0.530657
0.508983
0.487391
0.466095
0.445264
0.424999
0.676958
0.659708
0.650475
0.639655
0.626125
0.610028
0.591789
0.572006
0.551217
0.529864
0.508303
0.486813
0.465609
0.444857
0.424675
0.672771
0.655664
0.646652
0.636126
0.622912
0.607124
0.589174
0.569657
0.549111
0.52798
0.506622
0.485318
0.464281
0.443673
0.42365
0.666499
0.649595
0.640903
0.630798
0.618037
0.602691
0.585156
0.56602
0.545824
0.525013
0.503948
0.482912
0.462116
0.441717
0.421928
0.658164
0.641525
0.633247
0.62369
0.611518
0.596746
0.579749
0.561109
0.541367
0.520973
0.500289
0.479603
0.459122
0.438995
0.419514
0.647798
0.631482
0.623712
0.614825
0.603375
0.589308
0.57297
0.554939
0.535756
0.515872
0.495656
0.475401
0.455307
0.435516
0.416414
0.635437
0.619503
0.612331
0.604234
0.593635
0.5804
0.564842
0.54753
0.529006
0.509727
0.490065
0.470319
0.450684
0.43129
0.412637
0.621126
0.605629
0.599142
0.591951
0.58233
0.570051
0.555389
0.538904
0.52114
0.502556
0.483531
0.464372
0.445266
0.42633
0.408192
0.604914
0.589909
0.584189
0.578017
0.569495
0.558293
0.544641
0.529088
0.512179
0.49438
0.476074
0.457577
0.439069
0.420648
0.40309
0.586857
0.572396
0.567523
0.562475
0.555171
0.545162
0.53263
0.518111
0.502152
0.485223
0.467715
0.449952
0.432109
0.414262
0.397344
0.56702
0.553152
0.549199
0.545377
0.539403
0.530698
0.519392
0.506006
0.491087
0.475111
0.458478
0.44152
0.424406
0.407188
0.390968
0.545469
0.532242
0.529278
0.526777
0.522239
0.514946
0.504968
0.492808
0.479016
0.464073
0.448388
0.432304
0.415981
0.399445
0.383977
0.522281
0.509738
0.507826
0.506734
0.503733
0.497953
0.489399
0.478556
0.465974
0.452142
0.437474
0.422329
0.406857
0.391054
0.376388
0.497534
0.485717
0.484915
0.485313
0.483942
0.479771
0.472733
0.463292
0.451999
0.439349
0.425767
0.411621
0.397057
0.382037
0.368218
0.471315
0.460261
0.460619
0.462581
0.462928
0.460455
0.455019
0.447061
0.437131
0.425732
0.413297
0.400209
0.386609
0.372417
0.359487
0.443714
0.433457
0.43502
0.438612
0.440755
0.440062
0.436308
0.429908
0.421412
0.411327
0.400099
0.388125
0.375538
0.362218
0.350214
0.414827
0.405399
0.408202
0.413481
0.417492
0.418655
0.416657
0.411884
0.404885
0.396176
0.386209
0.375398
0.363873
0.351466
0.340419
0.384752
0.37618
0.380254
0.38727
0.39321
0.396297
0.396122
0.39304
0.387599
0.380319
0.371664
0.362063
0.351644
0.340188
0.330125
0.353595
0.345904
0.35127
0.360061
0.367984
0.373055
0.374764
0.373431
0.3696
0.363799
0.356502
0.348154
0.338881
0.328409
0.319352
0.321463
0.314672
0.321346
0.331942
0.341893
0.348999
0.352645
0.353112
0.35094
0.346663
0.340765
0.333706
0.325616
0.316158
0.308123
0.288467
0.282593
0.290582
0.303003
0.315016
0.324201
0.329829
0.332142
0.331671
0.328957
0.324493
0.318757
0.311882
0.303464
0.29646
0.254723
0.249778
0.25908
0.273336
0.287437
0.298735
0.306384
0.310579
0.311845
0.310728
0.307729
0.303344
0.297711
0.290353
0.284383
0.220347
0.216341
0.226946
0.243038
0.25924
0.272677
0.282377
0.288486
0.291518
0.292025
0.290517
0.287507
0.283138
0.276857
0.271914
0.185459
0.182397
0.194289
0.212205
0.230514
0.246105
0.257878
0.265924
0.270747
0.2729
0.272903
0.271285
0.268199
0.263003
0.259071
0.150181
0.148063
0.161218
0.180937
0.201346
0.219098
0.232958
0.242958
0.249588
0.253404
0.254932
0.254721
0.252932
0.248823
0.245871
0.114635
0.11346
0.127844
0.149334
0.171827
0.191737
0.207689
0.219652
0.228099
0.233589
0.236652
0.237856
0.237375
0.23435
0.232329
0.0789467
0.0787073
0.0942809
0.117501
0.142048
0.164104
0.182144
0.196072
0.206341
0.213509
0.218111
0.220734
0.221574
0.219624
0.218455
0.0432397
0.0439253
0.060642
0.085538
0.112102
0.136279
0.156397
0.172283
0.184371
0.193218
0.199357
0.203398
0.205574
0.204697
0.204255
0.00763922
0.00923489
0.0270413
0.0535508
0.0820804
0.108347
0.13052
0.148353
0.162251
0.172771
0.180442
0.185891
0.189424
0.189648
0.189734
-0.0277303
-0.0252443
-0.00640702
0.0216425
0.0520772
0.0803888
0.104589
0.124347
0.140041
0.152222
0.161416
0.168252
0.173169
0.174621
0.174907
-0.062745
-0.0593937
-0.0395892
-0.010083
0.0221844
0.0524877
0.0786764
0.100331
0.117799
0.131628
0.142333
0.150524
0.156812
0.159787
0.15962
-0.097281
-0.0930964
-0.0723918
-0.0415226
-0.00750564
0.0247255
0.0528555
0.0763721
0.0955845
0.111039
0.123248
0.132756
0.140323
0.145446
0.144991
-0.131216
-0.12624
-0.104704
-0.0725749
-0.036902
-0.00281712
0.0271983
0.0525337
0.0734566
0.0905092
0.104209
0.115038
0.123751
0.130741
0.133104
-0.164428
-0.158705
-0.136416
-0.10314
-0.0659149
-0.0300603
0.00177579
0.0288796
0.0514724
0.0700881
0.0852591
0.0974282
0.107268
0.115765
0.120936
-0.196856
-0.19034
-0.167425
-0.13312
-0.0944561
-0.0569261
-0.0233429
0.00547133
0.0296872
0.0498257
0.0664345
0.0799461
0.0909398
0.100665
0.107813
-0.228486
-0.220994
-0.197637
-0.162419
-0.12244
-0.0833384
-0.0480903
-0.0176311
0.00815454
0.0297697
0.0477728
0.0626013
0.0747624
0.0855973
0.0942068
-0.25904
-0.250688
-0.226985
-0.190943
-0.149782
-0.109223
-0.072401
-0.0403697
-0.0130745
0.00996582
0.029314
0.0454168
0.058733
0.0706348
0.0805102
-0.288423
-0.27929
-0.255368
-0.218605
-0.176403
-0.134509
-0.0962117
-0.0626887
-0.0339505
-0.00954217
0.0110982
0.0284263
0.0428671
0.0557931
0.06683
-0.316566
-0.306723
-0.282583
-0.245371
-0.202223
-0.159127
-0.119461
-0.084534
-0.0544258
-0.0287119
-0.00683584
0.0116658
0.0271917
0.0410906
0.0531935
-0.343393
-0.332892
-0.308579
-0.271131
-0.227161
-0.18301
-0.142092
-0.105854
-0.0744545
-0.0475026
-0.0244511
-0.00483042
0.0117371
0.0265585
0.0396474
-0.368828
-0.357717
-0.333333
-0.295684
-0.251217
-0.206095
-0.164047
-0.1266
-0.093993
-0.0658752
-0.0417122
-0.0210296
-0.00346643
0.0122307
0.0262431
-0.392801
-0.381124
-0.356776
-0.319058
-0.274244
-0.228313
-0.185276
-0.146725
-0.113
-0.0837926
-0.0585851
-0.0369002
-0.01839
-0.00186196
0.0130199
-0.415255
-0.403045
-0.37883
-0.341204
-0.296136
-0.249647
-0.205729
-0.166186
-0.131436
-0.10122
-0.0750377
-0.0524125
-0.0330063
-0.0156925
7.97416e-06
-0.436136
-0.423425
-0.399434
-0.362057
-0.316909
-0.269999
-0.225356
-0.184941
-0.149267
-0.118124
-0.0910401
-0.0675387
-0.04729
-0.0292366
-0.0127669
-0.455401
-0.442221
-0.418535
-0.381555
-0.336512
-0.289329
-0.244116
-0.202953
-0.166457
-0.134476
-0.106565
-0.0822532
-0.0612178
-0.0424719
-0.0252817
-0.473014
-0.459398
-0.436095
-0.399651
-0.35489
-0.307606
-0.261973
-0.22019
-0.182978
-0.150247
-0.121587
-0.0965326
-0.0747684
-0.0553787
-0.0375159
-0.488949
-0.474931
-0.452081
-0.416306
-0.371999
-0.324792
-0.278894
-0.236623
-0.198801
-0.165414
-0.136083
-0.110356
-0.0879229
-0.06794
-0.0494511
-0.50319
-0.488804
-0.466471
-0.43149
-0.387807
-0.340853
-0.29485
-0.252225
-0.213906
-0.179954
-0.150035
-0.123705
-0.100664
-0.0801421
-0.0610699
-0.515732
-0.501013
-0.479252
-0.445182
-0.402286
-0.355762
-0.309814
-0.266971
-0.228272
-0.193852
-0.163424
-0.136564
-0.112977
-0.0919754
-0.0723565
-0.526581
-0.511564
-0.490422
-0.45737
-0.415418
-0.369497
-0.323767
-0.280845
-0.241881
-0.207091
-0.176239
-0.148919
-0.124846
-0.103434
-0.0832982
-0.535752
-0.520473
-0.499989
-0.468048
-0.42719
-0.382041
-0.336692
-0.293831
-0.254719
-0.219658
-0.188468
-0.160767
-0.136258
-0.114507
-0.0938973
-0.543271
-0.527769
-0.507971
-0.477223
-0.437596
-0.393384
-0.348576
-0.305919
-0.266778
-0.231545
-0.200099
-0.172095
-0.147239
-0.125138
-0.104203
-0.549177
-0.533487
-0.514397
-0.48491
-0.446638
-0.403522
-0.359415
-0.317102
-0.27805
-0.242745
-0.211127
-0.18289
-0.157743
-0.135342
-0.114338
-0.553514
-0.537678
-0.519306
-0.491132
-0.454328
-0.412456
-0.369204
-0.327377
-0.288534
-0.253255
-0.221549
-0.19315
-0.167777
-0.145142
-0.124072
-0.556341
-0.540397
-0.522747
-0.495923
-0.460683
-0.420194
-0.377948
-0.336745
-0.29823
-0.263076
-0.231365
-0.202875
-0.177343
-0.154519
-0.133303
-0.557721
-0.541711
-0.524779
-0.499327
-0.46573
-0.426749
-0.385653
-0.34521
-0.30714
-0.272211
-0.240576
-0.212068
-0.186438
-0.163467
-0.1421
-0.55773
-0.541696
-0.525469
-0.501397
-0.469503
-0.432143
-0.392332
-0.352782
-0.315273
-0.280665
-0.249189
-0.220729
-0.195061
-0.171997
-0.150532
-0.556446
-0.540433
-0.524895
-0.502193
-0.472046
-0.436403
-0.398001
-0.359471
-0.322638
-0.288447
-0.257209
-0.228866
-0.203219
-0.180118
-0.158615
-0.553959
-0.538011
-0.52314
-0.501786
-0.473408
-0.43956
-0.402682
-0.365294
-0.329248
-0.295568
-0.264648
-0.236488
-0.210921
-0.187833
-0.166348
-0.550361
-0.534524
-0.520294
-0.500253
-0.473648
-0.441655
-0.406402
-0.370271
-0.335117
-0.302041
-0.271515
-0.243605
-0.218176
-0.19515
-0.17373
-0.545749
-0.530071
-0.516453
-0.497678
-0.47283
-0.442732
-0.409191
-0.374422
-0.340265
-0.307883
-0.277827
-0.250229
-0.224993
-0.202075
-0.180765
-0.540225
-0.524752
-0.511717
-0.494152
-0.471027
-0.442844
-0.411084
-0.377773
-0.344711
-0.31311
-0.283597
-0.256373
-0.231385
-0.208618
-0.187462
-0.533891
-0.518671
-0.506188
-0.489768
-0.468315
-0.442047
-0.412122
-0.380352
-0.348477
-0.31774
-0.288842
-0.262052
-0.237363
-0.214791
-0.193829
-0.526852
-0.511931
-0.499971
-0.484626
-0.464779
-0.440403
-0.412347
-0.382192
-0.351587
-0.321795
-0.29358
-0.267282
-0.242942
-0.220605
-0.199877
-0.519211
-0.504635
-0.49317
-0.478826
-0.460505
-0.437982
-0.411808
-0.383325
-0.354066
-0.325296
-0.29783
-0.272079
-0.248136
-0.226072
-0.205614
-0.511069
-0.496883
-0.485888
-0.47247
-0.455585
-0.434853
-0.410557
-0.383787
-0.355943
-0.328264
-0.301611
-0.27646
-0.252962
-0.231207
-0.211051
-0.502526
-0.488772
-0.478224
-0.465658
-0.450112
-0.431094
-0.408649
-0.383619
-0.357244
-0.330722
-0.304943
-0.280444
-0.257433
-0.236023
-0.216201
-0.493676
-0.480395
-0.470275
-0.458489
-0.444178
-0.426782
-0.406144
-0.382861
-0.358001
-0.332694
-0.307846
-0.284048
-0.261568
-0.240536
-0.221076
-0.484612
-0.471839
-0.462133
-0.451059
-0.437877
-0.421999
-0.403104
-0.381558
-0.358243
-0.334203
-0.31034
-0.28729
-0.265382
-0.24476
-0.225689
-0.475418
-0.463186
-0.453881
-0.443456
-0.4313
-0.416827
-0.399593
-0.379755
-0.358003
-0.335271
-0.312444
-0.290187
-0.26889
-0.248709
-0.230052
-0.466173
-0.45451
-0.445598
-0.435767
-0.424534
-0.411347
-0.395678
-0.377501
-0.357313
-0.335924
-0.314176
-0.292756
-0.272109
-0.2524
-0.234179
-0.45695
-0.445879
-0.437355
-0.428068
-0.417662
-0.405641
-0.391428
-0.374847
-0.356208
-0.336182
-0.315554
-0.295012
-0.275052
-0.255845
-0.238083
-0.447814
-0.437354
-0.429215
-0.420428
-0.410761
-0.399785
-0.386911
-0.371844
-0.354722
-0.336071
-0.316595
-0.29697
-0.277734
-0.259057
-0.241776
-0.438821
-0.428987
-0.421232
-0.412911
-0.403901
-0.393853
-0.382194
-0.368545
-0.352893
-0.335612
-0.317313
-0.29864
-0.280166
-0.26205
-0.245272
-0.430023
-0.420822
-0.413453
-0.405568
-0.397145
-0.387915
-0.377345
-0.365005
-0.350757
-0.334828
-0.317724
-0.300036
-0.282358
-0.264833
-0.248582
-0.42146
-0.412898
-0.405915
-0.398445
-0.390546
-0.382032
-0.372425
-0.361277
-0.348353
-0.333744
-0.31784
-0.301164
-0.284318
-0.267416
-0.251717
-0.413169
-0.405244
-0.398651
-0.391576
-0.384149
-0.376259
-0.367494
-0.357416
-0.345721
-0.332383
-0.317674
-0.302031
-0.286052
-0.269806
-0.254688
-0.405176
-0.397883
-0.391681
-0.38499
-0.37799
-0.370641
-0.362605
-0.353471
-0.342901
-0.330769
-0.317238
-0.302643
-0.287564
-0.272006
-0.257506
-0.397501
-0.390833
-0.385024
-0.378705
-0.372097