/*--------------------------------*- C++ -*----------------------------------*\
  =========                 |
  \\      /  F ield         | OpenFOAM: The Open Source CFD Toolbox
   \\    /   O peration     | Website:  https://openfoam.org
    \\  /    A nd           | Version:  7
     \\/     M anipulation  |
\*---------------------------------------------------------------------------*/
FoamFile
{
    version     2.0;
    format      ascii;
    class       surfaceScalarField;
    location    "180";
    object      phi;
}
// * * * * * * * * * * * * * * * * * * * * * * * * * * * * * * * * * * * * * //

dimensions      [0 3 -1 0 0 0 0];

internalField   nonuniform List<scalar> 
39691
(
-3.90559e-06
-5.32573e-06
9.23132e-06
-1.39427e-05
-4.01225e-05
5.01596e-05
-2.92735e-05
-9.4481e-05
0.000109812
-4.93046e-05
-0.000162397
0.000182428
-7.35861e-05
-0.000238708
0.00026299
-0.000101717
-0.00031986
0.000347991
-0.000133279
-0.000404348
0.000435909
-0.000167811
-0.000492727
0.000527259
-0.000204841
-0.00058713
0.00062416
-0.000243938
-0.000690514
0.000729612
-0.000284762
-0.000805925
0.000846749
-0.000327079
-0.000936015
0.000978332
-0.000370729
-0.00108285
0.0011265
-0.000415494
-0.00124792
0.00129269
-0.00143251
0.00147806
-0.000461046
-4.28094e-06
-1.04479e-06
-1.5274e-05
-2.91294e-05
-3.20403e-05
-7.77147e-05
-5.38934e-05
-0.000140544
-8.03064e-05
-0.000212295
-0.000110826
-0.00028934
-0.000145014
-0.00037016
-0.000182432
-0.000455309
-0.000222673
-0.000546889
-0.000265414
-0.000647773
-0.000310465
-0.000760875
-0.000357782
-0.000888697
-0.000407438
-0.0010332
-0.000459478
-0.00119588
-0.00137808
-0.000513905
-4.60584e-06
3.56105e-06
-1.64318e-05
-1.73034e-05
-3.44491e-05
-5.96974e-05
-5.78842e-05
-0.000117109
-8.61343e-05
-0.000184045
-0.000118693
-0.000256781
-0.000155099
-0.000333754
-0.000194929
-0.000415479
-0.000237827
-0.000503991
-0.000283559
-0.000602041
-0.000332055
-0.000712379
-0.000383431
-0.00083732
-0.000437963
-0.000978666
-0.000495942
-0.0011379
-0.00131634
-0.000557684
-4.8709e-06
8.43195e-06
-1.7386e-05
-4.78834e-06
-3.64428e-05
-4.06406e-05
-6.11893e-05
-9.23627e-05
-9.09508e-05
-0.000154284
-0.000125167
-0.000222565
-0.000163351
-0.000295571
-0.000205083
-0.000373747
-0.000250042
-0.000459031
-0.000298056
-0.000554027
-0.000349143
-0.000661292
-0.000403541
-0.000782922
-0.000461691
-0.000920516
-0.000524105
-0.00107549
-0.00124905
-0.000591389
-5.06791e-06
1.34999e-05
-1.81103e-05
8.25409e-06
-3.79717e-05
-2.07792e-05
-6.37334e-05
-6.6601e-05
-9.46545e-05
-0.000123362
-0.000130121
-0.000187098
-0.000169614
-0.000256077
-0.000212708
-0.000330654
-0.000259098
-0.000412642
-0.000308641
-0.000504484
-0.000361406
-0.000608527
-0.000417709
-0.00072662
-0.000478111
-0.000860114
-0.000543312
-0.00101029
-0.00117819
-0.000614178
-5.19024e-06
1.86901e-05
-1.85836e-05
2.16475e-05
-3.89955e-05
-3.67306e-07
-6.54552e-05
-4.01413e-05
-9.71624e-05
-9.16553e-05
-0.000133451
-0.00015081
-0.000173764
-0.000215764
-0.000217657
-0.000286761
-0.000264817
-0.000365481
-0.000315104
-0.000454197
-0.000368592
-0.000555039
-0.00042562
-0.000669591
-0.000486823
-0.000798911
-0.000553047
-0.000944063
-0.00110586
-0.000625376
-5.23294e-06
2.3923e-05
-1.87898e-05
3.52043e-05
-3.94835e-05
2.03264e-05
-6.63079e-05
-1.33169e-05
-9.84117e-05
-5.95515e-05
-0.000135077
-0.000114144
-0.000175705
-0.000175137
-0.000219816
-0.00024265
-0.00026707
-0.000318227
-0.000317292
-0.000403975
-0.000370518
-0.000501813
-0.000427055
-0.000613055
-0.000487548
-0.000738418
-0.000552943
-0.000878668
-0.00103431
-0.000624494
-5.19301e-06
2.91161e-05
-1.87187e-05
4.873e-05
-3.94159e-05
4.10236e-05
-6.62608e-05
1.35281e-05
-9.83604e-05
-2.7452e-05
-0.000134947
-7.75578e-05
-0.000175372
-0.000134712
-0.000219111
-0.000198911
-0.000265771
-0.000271567
-0.00031511
-0.000354635
-0.000367078
-0.000449846
-0.000421888
-0.000558245
-0.000480131
-0.000680175
-0.000542793
-0.000816006
-0.000965857
-0.000611241
-5.06952e-06
3.41856e-05
-1.83664e-05
6.20269e-05
-3.8784e-05
6.14412e-05
-6.52997e-05
4.00438e-05
-9.69881e-05
4.23642e-06
-0.000133033
-4.15124e-05
-0.000172734
-9.50116e-05
-0.000215504
-0.000156141
-0.000260879
-0.000226192
-0.000308518
-0.000306996
-0.000358237
-0.000400127
-0.000410092
-0.000506389
-0.000464544
-0.000625724
-0.000522556
-0.000757994
-0.000902877
-0.000585536
-4.86364e-06
3.90492e-05
-1.77355e-05
7.48987e-05
-3.7591e-05
8.12967e-05
-6.34272e-05
6.588e-05
-9.42969e-05
3.51061e-05
-0.000129338
-6.47126e-06
-0.000167789
-5.65602e-05
-0.000208995
-0.000114935
-0.000252398
-0.000182789
-0.00029753
-0.000261865
-0.000344029
-0.000353628
-0.000391732
-0.000458686
-0.000440884
-0.000576572
-0.000492359
-0.00070652
-0.000847727
-0.000547509
-4.57873e-06
4.3628e-05
-1.68349e-05
8.71548e-05
-3.58517e-05
0.000100314
-6.06638e-05
9.06921e-05
-9.03114e-05
6.47538e-05
-0.000123889
2.71063e-05
-0.000160572
-1.98775e-05
-0.000199623
-7.58836e-05
-0.000240376
-0.000142036
-0.000282211
-0.00022003
-0.000324554
-0.000311284
-0.00036696
-0.00041628
-0.000409372
-0.00053416
-0.000452491
-0.0006634
-0.000802716
-0.000497502
-4.22027e-06
4.78482e-05
-1.56802e-05
9.86147e-05
-3.35932e-05
0.000118227
-5.70472e-05
0.000114146
-8.50793e-05
9.27859e-05
-0.000116743
5.87697e-05
-0.000151145
1.45249e-05
-0.00018746
-3.95691e-05
-0.0002249
-0.000104596
-0.000262675
-0.000182255
-0.000299969
-0.000273989
-0.000336006
-0.000380243
-0.000370334
-0.000499832
-0.000403401
-0.000630333
-0.00077006
-0.000436057
-3.79579e-06
5.1644e-05
-1.42933e-05
0.000109112
-3.0854e-05
0.000134787
-5.26326e-05
0.000135925
-7.86713e-05
0.000118825
-0.000107984
8.80822e-05
-0.000139608
4.61487e-05
-0.000172618
-6.55856e-06
-0.000206098
-7.11153e-05
-0.000239078
-0.000149275
-0.000270482
-0.000242585
-0.000299162
-0.000351564
-0.00032419
-0.000474804
-0.000345668
-0.000608855
-0.000751825
-0.000363903
-3.31469e-06
5.49587e-05
-1.27021e-05
0.0001185
-2.76838e-05
0.000149769
-4.74921e-05
0.000155733
-7.11805e-05
0.000142513
-9.7725e-05
0.000114627
-0.000126089
7.45132e-05
-0.000155246
2.25981e-05
-0.000184142
-4.22197e-05
-0.00021162
-0.000121797
-0.000236343
-0.000217863
-0.000256771
-0.000331136
-0.00027143
-0.000460145
-0.000279976
-0.000600308
-0.000749859
-0.000281942
-2.78803e-06
5.77467e-05
-1.09396e-05
0.000126651
-2.41428e-05
0.000162972
-4.17137e-05
0.000173304
-6.27221e-05
0.000163522
-8.61069e-05
0.000138011
-0.000110755
9.91614e-05
-0.000135531
4.73736e-05
-0.000159239
-1.85115e-05
-0.000180539
-0.000100497
-0.000197836
-0.000200566
-0.000209208
-0.000319764
-0.000212591
-0.000456761
-0.000207086
-0.000605813
-0.000765703
-0.000191242
-2.22819e-06
5.99749e-05
-9.04366e-06
0.000133467
-2.03001e-05
0.000174229
-3.54e-05
0.000188404
-5.34315e-05
0.000181553
-7.32962e-05
0.000157876
-9.3801e-05
0.000119666
-0.000113695
6.72679e-05
-0.00013164
-5.66676e-07
-0.000146114
-8.60227e-05
-0.00015528
-0.0001914
-0.000156864
-0.000318181
-0.0001482
-0.000465425
-0.000127839
-0.000626174
-0.000800378
-9.31636e-05
-1.64857e-06
6.16235e-05
-7.05552e-06
0.000138874
-1.62323e-05
0.000183405
-2.86656e-05
0.000200837
-4.34617e-05
0.000196349
-5.94837e-05
0.000173898
-7.54537e-05
0.000135636
-9.0001e-05
8.18152e-05
-0.000101637
1.10695e-05
-0.000108664
-7.89956e-05
-0.000109026
-0.000191038
-0.000100148
-0.000327059
-7.86804e-05
-0.000486893
-4.22294e-05
-0.000662625
-0.00084801
5.40233e-06
-1.06308e-06
6.26866e-05
-5.01878e-06
0.000142829
-1.20213e-05
0.000190408
-2.16347e-05
0.000210451
-3.29806e-05
0.000207695
-4.48803e-05
0.000185798
-5.59666e-05
0.000146723
-6.47413e-05
9.05899e-05
-6.95607e-05
1.58889e-05
-6.85511e-05
-8.00052e-05
-5.94581e-05
-0.000200131
-3.94996e-05
-0.000347018
-5.21765e-06
-0.000521175
4.87956e-05
-0.000716638
-0.000920014
0.0001208
-4.85712e-07
6.31723e-05
-2.97791e-06
0.000145321
-7.75172e-06
0.000195182
-1.44373e-05
0.000217136
-2.21653e-05
0.000215423
-2.97114e-05
0.000193344
-3.56135e-05
0.000152625
-3.82376e-05
9.3214e-05
-3.57754e-05
1.34267e-05
-2.61758e-05
-8.96048e-05
-7.00287e-06
-0.000219304
2.47761e-05
-0.000378797
7.31256e-05
-0.000569524
0.000142186
-0.000785699
-0.00101369
0.000235859
6.77367e-08
6.31045e-05
-9.76689e-07
0.000146366
-3.50786e-06
0.000197713
-7.20415e-06
0.000220832
-1.11968e-05
0.000219416
-1.42094e-05
0.000196357
-1.46785e-05
0.000153094
-1.08273e-05
8.93628e-05
-6.72774e-07
3.27223e-06
1.80263e-05
-0.000108304
4.7882e-05
-0.000249159
9.2045e-05
-0.00042296
0.000154711
-0.00063219
0.000240382
-0.00087137
-0.00112793
0.000354622
5.91576e-07
6.2513e-05
9.44305e-07
0.000146013
6.29712e-07
0.000198028
-6.21846e-08
0.000221524
-2.52056e-07
0.000219606
1.39386e-06
0.000194711
6.54858e-06
0.000147939
1.71526e-05
7.87588e-05
3.53659e-05
-1.49411e-05
6.36269e-05
-0.000136565
0.000104716
-0.000290248
0.000161892
-0.000480136
0.000239323
-0.000709621
0.000342079
-0.000974126
-0.00126228
0.000476428
1.06721e-06
6.14458e-05
2.74727e-06
0.000144333
4.58749e-06
0.000196187
6.8721e-06
0.00021924
1.0506e-05
0.000215972
1.68927e-05
0.000188324
2.78211e-05
0.000137011
4.53858e-05
6.11941e-05
7.1958e-05
-4.15133e-05
0.000110184
-0.000174791
0.000163023
-0.000343087
0.000233804
-0.000550917
0.00032649
-0.000802307
0.000446612
-0.00109425
-0.00141603
0.000600366
1.48897e-06
5.99568e-05
4.40207e-06
0.00014142
8.30324e-06
0.000192286
1.34976e-05
0.000214045
2.09327e-05
0.000208537
3.20913e-05
0.000177165
4.88882e-05
0.000120214
7.35921e-05
3.64903e-05
0.000108783
-7.67046e-05
0.000157332
-0.000223339
0.000222376
-0.000408132
0.000307308
-0.000635849
0.000415687
-0.000910685
0.000553371
-0.00123193
-0.0015881
0.00072544
1.85018e-06
5.81066e-05
5.8855e-06
0.000137385
1.17289e-05
0.000186443
1.97357e-05
0.000206038
3.09158e-05
0.000197357
4.68457e-05
0.000161235
6.95771e-05
9.74823e-05
0.000101562
4.50562e-06
0.0001456
-0.000120743
0.000204789
-0.000282528
0.000282444
-0.000485786
0.000381995
-0.000735401
0.000506415
-0.00103511
0.000661718
-0.00138724
-0.00177688
0.000850502
2.14725e-06
5.59594e-05
7.18367e-06
0.000132348
1.4834e-05
0.000178793
2.5535e-05
0.000195337
4.03818e-05
0.00018251
6.10615e-05
0.000140556
8.97759e-05
6.87679e-05
0.000129171
-3.48898e-05
0.000182273
-0.000173845
0.000252401
-0.000352656
0.000343019
-0.000576404
0.000457549
-0.000849931
0.000598225
-0.00117578
0.000770938
-0.00155995
-0.00198012
0.000974178
2.37979e-06
5.35796e-05
8.29285e-06
0.000126435
1.76078e-05
0.000169478
3.08758e-05
0.000182069
4.93026e-05
0.000164083
7.47057e-05
0.000115152
0.000109454
3.402e-05
0.000156397
-8.18334e-05
0.000218788
-0.000236235
0.000300149
-0.000434017
0.000404039
-0.000680293
0.00053376
-0.000979652
0.000690708
-0.00133273
0.000880189
-0.00174943
-0.00219478
0.00109484
2.55068e-06
5.10289e-05
9.22006e-06
0.000119766
2.00613e-05
0.000158636
3.57731e-05
0.000166358
5.76998e-05
0.000142156
8.78131e-05
8.50391e-05
0.000128666
-6.83271e-06
0.000183324
-0.000136491
0.000255257
-0.000308169
0.000348152
-0.000526912
0.000465565
-0.000797707
0.000610491
-0.00112458
0.000783458
-0.0015057
0.000988406
-0.00195438
-0.00241708
0.0012107
2.66609e-06
4.83628e-05
9.98315e-06
0.000112449
2.22269e-05
0.000146392
4.02769e-05
0.000148308
6.56463e-05
0.000116787
0.000100487
5.01989e-05
0.000147554
-5.39004e-05
0.000210135
-0.000199072
0.000291899
-0.000389932
0.000396627
-0.00063164
0.000527738
-0.000928819
0.00068763
-0.00128447
0.000876001
-0.00169407
0.00109418
-0.00217256
-0.0026429
0.00132
2.73522e-06
4.56276e-05
1.06102e-05
0.000104574
2.41577e-05
0.000132845
4.44712e-05
0.000127994
7.32635e-05
8.79946e-05
0.000112893
1.05696e-05
0.000166337
-0.000107345
0.0002371
-0.000269835
0.000329009
-0.000481841
0.000445841
-0.000748472
0.000590694
-0.00107367
0.000765038
-0.00145881
0.000967771
-0.0018968
0.00119573
-0.00240052
-0.00286859
0.00142142
2.76996e-06
4.28576e-05
1.11383e-05
9.62054e-05
2.59253e-05
0.000118058
4.84697e-05
0.00010545
8.07149e-05
5.57494e-05
0.000125252
-3.39672e-05
0.000185291
-0.000167384
0.000264539
-0.000349083
0.000366911
-0.000584213
0.000496034
-0.000877594
0.000654459
-0.0012321
0.000842448
-0.0016468
0.00105808
-0.00211243
0.00129141
-0.00263385
-0.00309207
0.00151489
2.78431e-06
4.00733e-05
1.16118e-05
8.73779e-05
2.76158e-05
0.000102054
5.24095e-05
8.0656e-05
8.81959e-05
1.9963e-05
0.00013782
-8.35913e-05
0.000204728
-0.000234292
0.000292786
-0.000437141
0.000405898
-0.000697325
0.00054734
-0.00101904
0.000718841
-0.0014036
0.00091923
-0.00184719
0.00114559
-0.00233879
0.00138142
-0.00286968
-0.00331353
0.00160288
2.79346e-06
3.72799e-05
1.20796e-05
7.80918e-05
2.9325e-05
8.48085e-05
5.64429e-05
5.35382e-05
9.59205e-05
-1.95146e-05
0.000150871
-0.000138541
0.00022496
-0.000308381
0.00032215
-0.000534331
0.00044618
-0.000821355
0.000599734
-0.00117259
0.000783388
-0.00158725
0.000994277
-0.00205808
0.00122752
-0.00257203
0.00146631
-0.00310846
-0.00360121
0.00175398
2.81376e-06
3.44661e-05
1.25934e-05
6.83122e-05
3.11536e-05
6.62484e-05
6.07275e-05
2.39642e-05
0.000104105
-6.28923e-05
0.000164669
-0.000199105
0.000246268
-0.000389981
0.00035286
-0.000640923
0.000487827
-0.000956323
0.000652976
-0.00133774
0.000847399
-0.00178168
0.00106636
-0.00227704
0.00130253
-0.00280821
0.0015413
-0.00334723
-0.00385752
0.00179761
2.86063e-06
3.16055e-05
1.32034e-05
5.79694e-05
3.31991e-05
4.62527e-05
6.54154e-05
-8.25208e-06
0.000112953
-0.00011043
0.000179449
-0.000265601
0.000268874
-0.000479406
0.00038504
-0.000757089
0.000530746
-0.00110203
0.000706618
-0.00151361
0.00090998
-0.00198504
0.00113413
-0.00250119
0.00136941
-0.00304349
0.00160269
-0.00358051
-0.00408975
0.00183492
2.94852e-06
2.8657e-05
1.39563e-05
4.69616e-05
3.55516e-05
2.46574e-05
7.06427e-05
-4.33432e-05
0.000122637
-0.000162425
0.000195392
-0.000338355
0.000292907
-0.000576921
0.000418674
-0.000882856
0.000574648
-0.001258
0.000759992
-0.00169896
0.000970078
-0.00219512
0.0011963
-0.00272741
0.00142733
-0.00327452
0.00165094
-0.00380411
-0.00430204
0.00186323
3.08992e-06
2.5567e-05
1.48922e-05
3.51593e-05
3.82875e-05
1.26217e-06
7.65212e-05
-8.15769e-05
0.000133289
-0.000219193
0.000212609
-0.000417675
0.000318387
-0.000682699
0.000453588
-0.00101806
0.000619057
-0.00142347
0.000812258
-0.00189216
0.00102655
-0.00240942
0.00125171
-0.00295256
0.00147545
-0.00349827
0.00168666
-0.00401533
-0.00449562
0.00188024
3.29479e-06
2.22723e-05
1.60433e-05
2.24108e-05
4.14658e-05
-2.41604e-05
8.31306e-05
-0.000123242
0.000144986
-0.000281048
0.000231127
-0.000503817
0.000345214
-0.000796785
0.000489456
-0.0011623
0.000663333
-0.00159735
0.000862451
-0.00209127
0.00107827
-0.00262524
0.00129933
-0.00317362
0.00151324
-0.00371217
0.00171027
-0.00421236
-0.00467126
0.00188591
3.57015e-06
1.87021e-05
1.74318e-05
8.54922e-06
4.5125e-05
-5.18536e-05
9.05148e-05
-0.000168632
0.000157746
-0.000348279
0.000250888
-0.000596959
0.000373168
-0.000919066
0.000525811
-0.00131494
0.00070671
-0.00177825
0.000909564
-0.00229413
0.00112419
-0.00283987
0.00133844
-0.00338787
0.00154047
-0.0039142
0.00172234
-0.00439423
-0.00482977
0.00188084
3.92e-06
1.47821e-05
1.90698e-05
-6.60056e-06
4.92821e-05
-8.20659e-05
9.86798e-05
-0.000218029
0.000171532
-0.000421131
0.000271745
-0.000697172
0.000401925
-0.00104925
0.000562074
-0.00147509
0.000748351
-0.00196452
0.000952621
-0.0024984
0.00116345
-0.0030507
0.00136856
-0.00359298
0.00155728
-0.00410292
0.00172362
-0.00456057
-0.00497212
0.00186597
4.34544e-06
1.04367e-05
2.09595e-05
-2.32147e-05
5.39333e-05
-0.00011504
0.000107595
-0.000271691
0.000186246
-0.000499782
0.000293479
-0.000804406
0.000431067
-0.00118683
0.000597592
-0.00164162
0.000787408
-0.00215434
0.000990747
-0.00270174
0.00119539
-0.00325535
0.00138954
-0.00378713
0.00156408
-0.00427746
0.00171505
-0.00471154
-0.00509949
0.00184243
4.84502e-06
5.59165e-06
2.30943e-05
-4.1464e-05
5.90554e-05
-0.000151001
0.000117198
-0.000329834
0.000201743
-0.000584327
0.000315804
-0.000918466
0.000460114
-0.00133114
0.000631678
-0.00181318
0.000823077
-0.00234574
0.00102322
-0.00290188
0.00121964
-0.00345177
0.00140148
-0.00396896
0.00156148
-0.00443746
0.00169766
-0.00484772
-0.00521319
0.00181136
5.41519e-06
1.76458e-07
2.54598e-05
-6.15086e-05
6.46089e-05
-0.00019015
0.000127396
-0.00039262
0.000217836
-0.000674767
0.000338383
-0.00103901
0.000488544
-0.0014813
0.00066365
-0.00198829
0.000854646
-0.00253674
0.00104952
-0.00309676
0.00123606
-0.00363831
0.00140475
-0.00413766
0.0015503
-0.00458301
0.00167251
-0.00496993
-0.00531459
0.0017739
6.05085e-06
-5.87439e-06
2.80354e-05
-8.34932e-05
7.05407e-05
-0.000232655
0.000138073
-0.000460153
0.000234305
-0.000770999
0.00036085
-0.00116556
0.000515826
-0.00163628
0.000692873
-0.00216533
0.00088153
-0.00272539
0.00106931
-0.00328454
0.00124472
-0.00381372
0.00139987
-0.00429281
0.00153139
-0.00471453
0.00164066
-0.0050792
-0.005405
0.00173108
6.74585e-06
-1.26202e-05
3.07962e-05
-0.000107544
7.67873e-05
-0.000278646
0.000149099
-0.000532465
0.00025091
-0.00087281
0.00038282
-0.00129747
0.00054144
-0.0017949
0.000718783
-0.00234268
0.000903293
-0.0029099
0.00108247
-0.00346371
0.00124592
-0.00397717
0.00138751
-0.0044344
0.0015057
-0.00483271
0.00160314
-0.00517663
-0.0054857
0.00168384
7.49336e-06
-2.01136e-05
3.37139e-05
-0.000133764
8.32774e-05
-0.00032821
0.000160327
-0.000609514
0.000267394
-0.000979878
0.000403907
-0.00143398
0.000564903
-0.0019559
0.000740916
-0.00251869
0.000919657
-0.00308864
0.00108904
-0.0036331
0.00124007
-0.0041282
0.00136841
-0.00456274
0.00147411
-0.00493842
0.00156085
-0.00526337
-0.00555785
0.001633
8.28622e-06
-2.83998e-05
3.6758e-05
-0.000162236
8.99344e-05
-0.000381386
0.000171603
-0.000691183
0.000283498
-0.00109177
0.000423738
-0.00157422
0.000585788
-0.00211795
0.000758915
-0.00269182
0.000930498
-0.00326023
0.00108924
-0.00379185
0.00122772
-0.00426668
0.00134332
-0.00467834
0.00143751
-0.0050326
0.00151464
-0.0053405
-0.00562246
0.00157925
9.11709e-06
-3.75169e-05
3.98966e-05
-0.000193015
9.6678e-05
-0.000438167
0.000182771
-0.000777276
0.000298962
-0.00120796
0.000441966
-0.00171722
0.000603733
-0.00227971
0.000772543
-0.00286063
0.000935831
-0.00342351
0.0010834
-0.00393941
0.00120946
-0.00439275
0.00131303
-0.0047819
0.00139667
-0.00511625
0.00146522
-0.00540905
-0.00568042
0.00152318
9.97849e-06
-4.74954e-05
4.30965e-05
-0.000226133
0.000103425
-0.000498496
0.000193671
-0.000867521
0.000313538
-0.00132783
0.00045828
-0.00186197
0.000618456
-0.00243989
0.000781678
-0.00302385
0.000935794
-0.00357763
0.00107192
-0.00407554
0.00118594
-0.00450676
0.00127825
-0.00487421
0.00135232
-0.00519032
0.00141321
-0.00546995
-0.00573246
0.00146526
1.08628e-05
-5.83582e-05
4.63238e-05
-0.000261594
0.000110093
-0.000562265
0.000204145
-0.000961573
0.000326991
-0.00145068
0.000472411
-0.00200739
0.000629756
-0.00259724
0.0007863
-0.00318039
0.000930624
-0.00372195
0.00105529
-0.00420021
0.00115777
-0.00460923
0.00123967
-0.00495611
0.0013051
-0.00525575
0.00135915
-0.005524
-0.0057792
0.00140589
1.17623e-05
-7.01206e-05
4.95438e-05
-0.000299376
0.000116596
-0.000629318
0.000214043
-0.00105902
0.000339109
-0.00157574
0.000484142
-0.00215242
0.000637515
-0.00275061
0.00078649
-0.00332937
0.000920632
-0.0038561
0.00103402
-0.0043136
0.00112558
-0.00470079
0.00119791
-0.00502845
0.00125554
-0.00531338
0.00130346
-0.00557191
-0.00582112
0.00134538
1.26689e-05
-8.27894e-05
5.27215e-05
-0.000339428
0.000122851
-0.000699448
0.000223219
-0.00115939
0.000349704
-0.00170223
0.000493311
-0.00229603
0.00064169
-0.00289899
0.000782403
-0.00347008
0.000906185
-0.00397988
0.00100863
-0.00441604
0.00108994
-0.0047821
0.00115353
-0.00509204
0.00120412
-0.00536397
0.00124649
-0.00561428
-0.00585862
0.00128399
1.35741e-05
-9.63636e-05
5.58211e-05
-0.000381675
0.000128778
-0.000772404
0.00023154
-0.00126215
0.000358619
-0.00182931
0.00049981
-0.00243722
0.000642312
-0.00304149
0.000774259
-0.00360203
0.00088768
-0.0040933
0.000979614
-0.00450797
0.0010514
-0.00485389
0.00110701
-0.00514765
0.00115124
-0.0054082
0.00118856
-0.00565159
-0.00589198
0.00122192
1.44694e-05
-0.000110833
5.88071e-05
-0.000426013
0.000134296
-0.000847893
0.000238886
-0.00136674
0.000365731
-0.00195615
0.000503583
-0.00257507
0.000639474
-0.00317738
0.000762327
-0.00372488
0.000865531
-0.0041965
0.000947474
-0.00458992
0.00101044
-0.00491685
0.00105878
-0.00519599
0.00109722
-0.00544664
0.00112988
-0.00568426
-0.00592144
0.00115934
1.53458e-05
-0.000126179
6.16442e-05
-0.000472311
0.000139333
-0.000925582
0.000245154
-0.00147256
0.000370948
-0.00208195
0.000504629
-0.00270875
0.000633316
-0.00330607
0.000746906
-0.00383847
0.000840152
-0.00428975
0.000912665
-0.00466243
0.00096748
-0.00497167
0.00100918
-0.0052377
0.00104233
-0.00547979
0.00107066
-0.00571258
-0.00594715
0.00109637
1.61942e-05
-0.000142373
6.42984e-05
-0.000520416
0.000143822
-0.00100511
0.000250255
-0.00157899
0.000374214
-0.00220591
0.000502988
-0.00283752
0.000624024
-0.0034271
0.000728314
-0.00394276
0.000811945
-0.00437338
0.000875608
-0.00472609
0.000922917
-0.00501898
0.000958546
-0.00527333
0.000986809
-0.00550805
0.00101105
-0.00573682
-0.00596922
0.00103312
1.70054e-05
-0.000159378
6.67366e-05
-0.000570147
0.0001477
-0.00108607
0.000254124
-0.00168542
0.000375509
-0.00232729
0.000498742
-0.00296076
0.00061181
-0.00354017
0.000706878
-0.00403783
0.000781297
-0.0044478
0.000836684
-0.00478148
0.000877076
-0.00505937
0.000907119
-0.00530337
0.000930833
-0.00553177
0.000951174
-0.00575716
-0.00598774
0.000969692
1.77704e-05
-0.000177149
6.89284e-05
-0.000621305
0.000150918
-0.00116806
0.000256713
-0.00179121
0.00037484
-0.00244542
0.000492006
-0.00307792
0.000596908
-0.00364507
0.000682921
-0.00412384
0.000748567
-0.00451345
0.000796237
-0.00482915
0.000830244
-0.00509338
0.000855118
-0.00532824
0.000874555
-0.0055512
0.000891143
-0.00577375
-0.00600275
0.000906151
1.84804e-05
-0.000195629
7.08458e-05
-0.00067367
0.000153431
-0.00125064
0.000257995
-0.00189578
0.000372245
-0.00255967
0.00048292
-0.0031886
0.000579563
-0.00374172
0.000656757
-0.00420104
0.000714088
-0.00457078
0.000754569
-0.00486963
0.000782668
-0.00512147
0.000802726
-0.0053483
0.000818103
-0.00556658
0.000831041
-0.00578669
-0.00601427
0.000842565
1.91271e-05
-0.000214756
7.2464e-05
-0.000727007
0.000155207
-0.00133339
0.000257961
-0.00199853
0.000367786
-0.00266949
0.000471643
-0.00329245
0.000560025
-0.0038301
0.000628689
-0.0042697
0.000678162
-0.00462025
0.000711947
-0.00490342
0.000734556
-0.00514408
0.000750092
-0.00536384
0.000761579
-0.00557807
0.000770941
-0.00579605
-0.00602232
0.000778993
1.97026e-05
-0.000234459
7.3762e-05
-0.000781067
0.000156224
-0.00141585
0.000256622
-0.00209893
0.000361545
-0.00277441
0.00045835
-0.00338926
0.000538541
-0.00391029
0.000598997
-0.00433016
0.000641064
-0.00466232
0.000668603
-0.00493096
0.000686086
-0.00516157
0.000697343
-0.00537509
0.00070507
-0.00558579
0.000710906
-0.00580188
-0.0060269
0.000715487
2.01999e-05
-0.000254659
7.47225e-05
-0.000835589
0.000156469
-0.00149759
0.000254004
-0.00219647
0.000353622
-0.00287403
0.000443222
-0.00347886
0.000515353
-0.00398242
0.000567944
-0.00438275
0.000603036
-0.00469741
0.000624737
-0.00495266
0.000637406
-0.00517424
0.000644582
-0.00538227
0.00064865
-0.00558986
0.000650991
-0.00580423
-0.00602801
0.000652095
2.06127e-05
-0.000275271
7.53326e-05
-0.000890309
0.00015594
-0.0015782
0.000250149
-0.00229067
0.000344129
-0.00296801
0.000426441
-0.00356117
0.00049069
-0.00404667
0.000535768
-0.00442782
0.000564295
-0.00472593
0.000580523
-0.00496888
0.000588644
-0.00518236
0.000591899
-0.00538552
0.00059238
-0.00559034
0.000591246
-0.00580309
-0.00602563
0.000588864
2.09377e-05
-0.000296209
7.55876e-05
-0.000944959
0.000154651
-0.00165727
0.000245116
-0.00238114
0.000333194
-0.00305609
0.000408201
-0.00363618
0.000464782
-0.00410325
0.0005027
-0.00446574
0.000525041
-0.00474828
0.000536118
-0.00497996
0.000539916
-0.00518616
0.000539377
-0.00538498
0.000536323
-0.00558729
0.000531722
-0.00579849
-0.00601975
0.000525845
2.11668e-05
-0.000317376
7.54753e-05
-0.000999267
0.000152604
-0.00173439
0.000238956
-0.00246749
0.000320927
-0.00313806
0.000388661
-0.00370391
0.00043781
-0.0041524
0.000468913
-0.00449685
0.00048542
-0.00476478
0.000491629
-0.00498617
0.000491293
-0.00518582
0.000487059
-0.00538075
0.000480508
-0.00558074
0.000472443
-0.00579043
-0.00601037
0.00046306
2.12986e-05
-0.000338675
7.49988e-05
-0.00105297
0.000149829
-0.00180922
0.000231746
-0.00254941
0.000307465
-0.00321378
0.000368002
-0.00376445
0.000409973
-0.00419437
0.000434595
-0.00452147
0.000445587
-0.00477578
0.000447176
-0.00498776
0.000442861
-0.0051815
0.00043501
-0.0053729
0.000424987
-0.00557072
0.000413454
-0.00577889
-0.00599747
0.000400555
2.13308e-05
-0.000360005
7.41616e-05
-0.0011058
0.000146356
-0.00188142
0.000223563
-0.00262661
0.000292935
-0.00328315
0.000346388
-0.0038179
0.000381442
-0.00422943
0.0003999
-0.00453993
0.000405668
-0.00478154
0.00040285
-0.00498494
0.000394686
-0.00517334
0.000383279
-0.00536149
0.000369798
-0.00555723
0.000354791
-0.00576389
-0.00598104
0.000338367
2.1262e-05
-0.000381267
7.29705e-05
-0.00115751
0.00014222
-0.00195067
0.000214488
-0.00269888
0.000277464
-0.00334613
0.000323973
-0.00386441
0.000352374
-0.00425783
0.000364967
-0.00455252
0.00036577
-0.00478235
0.000358731
-0.0049779
0.000346824
-0.00516143
0.000331905
-0.00534657
0.000314976
-0.0055403
0.000296488
-0.0057454
-0.00596108
0.000276528
2.10921e-05
-0.000402359
7.14358e-05
-0.00120785
0.00013746
-0.00201669
0.000204604
-0.00276603
0.000261173
-0.0034027
0.000300899
-0.00390413
0.000322909
-0.00427984
0.000329917
-0.00455953
0.000325989
-0.00477842
0.000314887
-0.0049668
0.000299324
-0.00514587
0.000280928
-0.00532818
0.00026055
-0.00551993
0.000238575
-0.00572342
-0.00593757
0.000215066
2.08216e-05
-0.000423181
6.95703e-05
-0.0012566
0.000132119
-0.00207924
0.000193993
-0.0028279
0.000244181
-0.00345289
0.000277299
-0.00393725
0.000293175
-0.00429571
0.000294857
-0.00456121
0.000286405
-0.00476997
0.000271377
-0.00495177
0.00025223
-0.00512672
0.000230381
-0.00530633
0.000206548
-0.00549609
0.000181074
-0.00569795
-0.00591051
0.000154006
2.04521e-05
-0.000443633
6.73894e-05
-0.00130354
0.000126242
-0.00213809
0.000182738
-0.0028844
0.000226597
-0.00349675
0.000253293
-0.00396395
0.000263284
-0.00430571
0.000259879
-0.0045578
0.000247088
-0.00475717
0.000228252
-0.00493294
0.000205583
-0.00510405
0.000180303
-0.00528105
0.000153012
-0.0054688
0.000124001
-0.00566894
-0.00587981
9.33022e-05
1.99861e-05
-0.000463619
6.49104e-05
-0.00134846
0.000119877
-0.00219306
0.00017092
-0.00293544
0.000208526
-0.00353435
0.000228993
-0.00398441
0.000233337
-0.00431005
0.000225064
-0.00454953
0.000208097
-0.00474021
0.000185555
-0.0049104
0.000159415
-0.00507791
0.000130731
-0.00525236
0.000100014
-0.00543809
6.74179e-05
-0.00563634
-0.00584502
3.26263e-05
1.94266e-05
-0.000483046
6.2152e-05
-0.00139119
0.000113071
-0.00224398
0.000158615
-0.00298098
0.000190065
-0.0035658
0.000204498
-0.00399885
0.000203421
-0.00430897
0.000190481
-0.00453659
0.000169486
-0.00471921
0.000143326
-0.00488423
0.000113758
-0.00504835
8.16851e-05
-0.00522029
4.75962e-05
-0.005404
1.17159e-05
-0.00560046
-0.00580623
-2.70699e-05
1.87773e-05
-0.000501823
5.91345e-05
-0.00143154
0.00010587
-0.00229071
0.000145898
-0.00302101
0.000171303
-0.00359121
0.000179898
-0.00400744
0.000173615
-0.00430269
0.000156193
-0.00451917
0.000131299
-0.00469432
0.000101597
-0.00485453
6.86405e-05
-0.00501539
3.31846e-05
-0.00518483
-4.44745e-06
-0.00536637
-4.39251e-05
-0.00556098
-0.00576472
-8.54353e-05
1.80425e-05
-0.000519866
5.58787e-05
-0.00146938
9.83208e-05
-0.00233316
0.000132839
-0.00305553
0.000152323
-0.00361069
0.000155273
-0.00401039
0.000143988
-0.0042914
0.000122251
-0.00449743
9.35735e-05
-0.00466564
6.03989e-05
-0.00482136
2.40875e-05
-0.00497908
-1.47195e-05
-0.00514603
-5.5656e-05
-0.00532543
-9.87577e-05
-0.00551788
-0.00571981
-0.000143672
1.72269e-05
-0.000537093
5.24058e-05
-0.00150456
9.04695e-05
-0.00237122
0.000119504
-0.00308456
0.0001332
-0.00362439
0.000130696
-0.00400789
0.000114599
-0.00427531
8.87016e-05
-0.00447153
5.63437e-05
-0.00463328
1.97545e-05
-0.00478477
-1.98733e-05
-0.00493945
-6.2003e-05
-0.0051039
-0.000106379
-0.00528105
-0.000152916
-0.00547135
-0.00567134
-0.000201386
1.63357e-05
-0.000553428
4.87374e-05
-0.00153696
8.23595e-05
-0.00240484
0.000105956
-0.00310816
0.000114003
-0.00363244
0.000106231
-0.00400012
8.55015e-05
-0.00425458
5.55827e-05
-0.00444162
1.9637e-05
-0.00459734
-2.03062e-05
-0.00474483
-6.32173e-05
-0.00489654
-0.000108671
-0.00505844
-0.000156457
-0.00523327
-0.000206441
-0.00542136
-0.00561931
-0.000258466
1.53741e-05
-0.000568803
4.4895e-05
-0.00156648
7.40329e-05
-0.00243398
9.22504e-05
-0.00312638
9.47938e-05
-0.00363498
8.19333e-05
-0.00398726
5.67396e-05
-0.00422939
2.29285e-05
-0.0044078
-1.65183e-05
-0.00455789
-5.97614e-05
-0.00470158
-0.000105931
-0.00485037
-0.000154687
-0.00500969
-0.000205864
-0.00518209
-0.000259308
-0.00536792
-0.00556375
-0.000314868
1.43482e-05
-0.000583151
4.08999e-05
-0.00159303
6.55296e-05
-0.00245861
7.84413e-05
-0.00313929
7.56285e-05
-0.00363217
5.7854e-05
-0.00396948
2.83532e-05
-0.00419988
-9.23273e-06
-0.00437022
-5.2097e-05
-0.00451503
-9.85983e-05
-0.00465508
-0.000147993
-0.00480098
-0.000200027
-0.00495765
-0.000254578
-0.00512754
-0.000311484
-0.00531101
-0.00550468
-0.000370556
1.32638e-05
-0.000596415
3.6773e-05
-0.00161654
5.68876e-05
-0.00247872
6.45771e-05
-0.00314698
5.65585e-05
-0.00362415
3.40363e-05
-0.00394696
3.7895e-07
-0.00416623
-4.08693e-05
-0.00432897
-8.70867e-05
-0.00446881
-0.000136797
-0.00460537
-0.000189382
-0.00474839
-0.000244668
-0.00490237
-0.000302574
-0.00506963
-0.000362935
-0.00525065
-0.00544211
-0.000425501
1.21275e-05
-0.000608542
3.25349e-05
-0.00163695
4.81434e-05
-0.00249433
5.07043e-05
-0.00314954
3.7626e-05
-0.00361107
1.05244e-05
-0.00391986
-2.71566e-05
-0.00412855
-7.19674e-05
-0.00428416
-0.000121468
-0.00441931
-0.000174341
-0.0045525
-0.00023008
-0.00469265
-0.000288586
-0.00484386
-0.000349823
-0.0050084
-0.00041363
-0.00518684
-0.00537607
-0.000479672
1.09464e-05