/*--------------------------------*- C++ -*----------------------------------*\
  =========                 |
  \\      /  F ield         | OpenFOAM: The Open Source CFD Toolbox
   \\    /   O peration     | Website:  https://openfoam.org
    \\  /    A nd           | Version:  7
     \\/     M anipulation  |
\*---------------------------------------------------------------------------*/
FoamFile
{
    version     2.0;
    format      ascii;
    class       volVectorField;
    location    "180";
    object      U;
}
// * * * * * * * * * * * * * * * * * * * * * * * * * * * * * * * * * * * * * //

dimensions      [0 1 -1 0 0 0 0];

internalField   nonuniform List<vector> 
20050
(
(-0.000900315 -0.00321096 4.82145e-21)
(-0.00536046 -0.0188157 -8.95918e-22)
(-0.0141226 -0.0404788 -1.10705e-20)
(-0.0252428 -0.064997 -1.66444e-20)
(-0.0381438 -0.0899894 -1.51446e-21)
(-0.0523057 -0.114015 1.02443e-20)
(-0.0672328 -0.136544 -1.14129e-20)
(-0.0824748 -0.157779 2.90036e-21)
(-0.0976215 -0.178357 -8.08407e-21)
(-0.11233 -0.199039 1.48975e-20)
(-0.126349 -0.220465 1.26498e-20)
(-0.139526 -0.243043 -1.53781e-20)
(-0.151787 -0.26694 -7.87825e-21)
(-0.163082 -0.292113 8.3347e-21)
(-0.173367 -0.318451 -8.75586e-21)
(-0.000976068 -0.00145629 8.04765e-21)
(-0.00558365 -0.0146146 -5.47406e-21)
(-0.0147264 -0.0345565 -2.52213e-21)
(-0.0263368 -0.0578602 1.6692e-20)
(-0.0398226 -0.0820242 2.08238e-20)
(-0.054641 -0.105534 -5.11677e-20)
(-0.0702728 -0.127815 3.11056e-20)
(-0.0862532 -0.149036 3.29349e-20)
(-0.102171 -0.169795 4.28305e-20)
(-0.117698 -0.190801 -4.04482e-20)
(-0.132617 -0.212642 2.76413e-20)
(-0.146821 -0.235678 2.55868e-20)
(-0.160292 -0.260048 1.47426e-20)
(-0.173063 -0.285716 -4.72606e-20)
(-0.185179 -0.312585 3.90705e-20)
(-0.00113804 0.000444896 -3.31347e-20)
(-0.00597507 -0.010064 -4.21676e-20)
(-0.0154917 -0.0281536 3.17752e-20)
(-0.0275311 -0.0501672 4.04398e-20)
(-0.0414972 -0.0734696 -2.55975e-20)
(-0.0568326 -0.0964584 -4.89183e-20)
(-0.0729996 -0.1185 3.06327e-20)
(-0.0895221 -0.139713 -8.78023e-20)
(-0.105988 -0.160646 -4.20869e-20)
(-0.122083 -0.18195 -3.52262e-20)
(-0.137617 -0.204154 -4.84759e-20)
(-0.152524 -0.227569 8.85129e-21)
(-0.166838 -0.2523 3.63321e-20)
(-0.180671 -0.278324 1.63384e-19)
(-0.194127 -0.305553 -6.28836e-20)
(-0.00139288 0.00246538 4.25459e-21)
(-0.00654409 -0.00522347 8.46219e-20)
(-0.0164198 -0.0213468 3.36975e-20)
(-0.0288139 -0.0420035 -5.87004e-20)
(-0.043141 -0.0644148 1.42335e-20)
(-0.0588386 -0.0868773 5.45494e-20)
(-0.0753568 -0.108684 5.18694e-20)
(-0.0922108 -0.129894 3.36387e-20)
(-0.108988 -0.150994 -6.48077e-20)
(-0.125383 -0.172571 1.80246e-19)
(-0.141228 -0.19509 -7.82072e-20)
(-0.156489 -0.218809 1.09288e-19)
(-0.17125 -0.243798 -3.54126e-20)
(-0.185687 -0.270041 -1.38299e-19)
(-0.199941 -0.297453 5.25411e-20)
(-0.00174458 0.00457433 1.21659e-19)
(-0.00729534 -0.000159222 -4.67933e-20)
(-0.0175072 -0.0142206 -3.07251e-21)
(-0.0301704 -0.0334619 3.43349e-20)
(-0.0447264 -0.0549545 2.19035e-20)
(-0.0606183 -0.076884 2.8556e-20)
(-0.0772911 -0.0984589 -1.1257e-19)
(-0.0942539 -0.119666 -1.04269e-20)
(-0.111092 -0.140924 5.95899e-21)
(-0.127506 -0.16275 -1.79043e-19)
(-0.143341 -0.185544 1.61279e-19)
(-0.158586 -0.209502 -1.11643e-19)
(-0.173368 -0.234654 -5.16863e-20)
(-0.187916 -0.260984 -2.89209e-20)
(-0.202381 -0.288401 -7.07733e-20)
(-0.00219426 0.00673754 -7.21366e-20)
(-0.00822822 0.00505566 -3.04091e-20)
(-0.0187458 -0.00686687 -9.59122e-20)
(-0.0315827 -0.0246415 -1.61478e-20)
(-0.0462246 -0.0451884 -6.67781e-20)
(-0.0621323 -0.066575 -5.49722e-20)
(-0.0787527 -0.0879159 -6.90765e-20)
(-0.0955914 -0.109118 3.99942e-20)
(-0.11223 -0.130524 4.85486e-20)
(-0.12837 -0.152579 1.72726e-20)
(-0.14386 -0.175612 3.54842e-20)
(-0.1587 -0.199755 5.54514e-20)
(-0.173055 -0.224989 -9.66696e-20)
(-0.187191 -0.251285 -6.41337e-20)
(-0.20124 -0.27853 2.0732e-19)
(-0.00273986 0.00891863 -4.55715e-20)
(-0.00933663 0.0103437 -4.75854e-20)
(-0.0201226 0.000617633 2.10584e-19)
(-0.0330298 -0.0156462 1.12557e-19)
(-0.0476063 -0.0352199 3.42304e-21)
(-0.0633427 -0.0560495 3.76886e-20)
(-0.0796953 -0.0771491 1.01435e-19)
(-0.0961687 -0.0983386 -6.90713e-20)
(-0.11234 -0.119881 4.94511e-20)
(-0.127903 -0.142148 6.33405e-20)
(-0.142701 -0.165394 -2.01207e-19)
(-0.156735 -0.189681 -3.87966e-20)
(-0.170197 -0.214931 -1.75347e-19)
(-0.183371 -0.241084 1.06749e-19)
(-0.196341 -0.267987 -1.30692e-19)
(-0.00337614 0.0110798 6.05073e-20)
(-0.0106089 0.0156246 -4.74092e-20)
(-0.0216198 0.00813256 -1.65371e-19)
(-0.0344879 -0.00658304 -1.82994e-19)
(-0.0488414 -0.0251551 -2.22521e-19)
(-0.064213 -0.0454086 5.76517e-20)
(-0.0800761 -0.0662534 7.52998e-20)
(-0.0959368 -0.0874185 1.49844e-19)
(-0.111365 -0.109085 -7.37081e-20)
(-0.126042 -0.131549 -6.40992e-20)
(-0.139794 -0.154991 1.23362e-19)
(-0.15261 -0.179397 -1.28931e-19)
(-0.164699 -0.204616 1.18986e-19)
(-0.176348 -0.230534 -1.94075e-19)
(-0.187547 -0.256934 1.26523e-19)
(-0.00409465 0.0131831 -9.72561e-21)
(-0.0120278 0.0208169 4.98148e-20)
(-0.0232148 0.0155761 2.47899e-19)
(-0.0359304 0.00243929 2.38704e-19)
(-0.0498995 -0.0151014 9.60405e-20)
(-0.0647091 -0.0347544 -3.00786e-20)
(-0.0798566 -0.0553248 -1.22294e-19)
(-0.0948523 -0.0764481 5.56527e-20)
(-0.109257 -0.0982235 2.7193e-20)
(-0.122734 -0.120872 -8.35959e-20)
(-0.135083 -0.144502 -2.66492e-19)
(-0.146264 -0.169018 -8.48039e-20)
(-0.156492 -0.19418 2.22067e-19)
(-0.166046 -0.219794 3.1141e-20)
(-0.174754 -0.245543 -2.64273e-19)
(-0.00488392 0.0151911 -9.57113e-20)
(-0.0135709 0.0258401 -2.6254e-19)
(-0.0248808 0.0228466 -2.90597e-19)
(-0.0373283 0.0113118 -1.76918e-19)
(-0.0507503 -0.00516681 1.2591e-19)
(-0.0647987 -0.0241898 2.16821e-20)
(-0.0790022 -0.0444594 5.06e-20)
(-0.0928777 -0.065518 -4.86129e-20)
(-0.105975 -0.0873834 4.40817e-19)
(-0.117935 -0.110205 1.48128e-19)
(-0.128521 -0.134021 2.42776e-19)
(-0.137651 -0.158654 3.39372e-19)
(-0.14553 -0.183761 -2.47162e-19)
(-0.152421 -0.209027 3.86891e-19)
(-0.157899 -0.233996 5.08253e-20)
(-0.00572976 0.0170683 9.62466e-20)
(-0.0152112 0.0306164 1.49914e-19)
(-0.0265872 0.0298447 1.29688e-19)
(-0.0386512 0.0199269 -1.5369e-19)
(-0.051364 0.004541 1.2605e-19)
(-0.0644523 -0.0138177 2.15036e-20)
(-0.0774827 -0.0337539 -3.60011e-19)
(-0.0899812 -0.0547186 3.23177e-19)
(-0.101487 -0.0766511 -2.6213e-19)
(-0.111611 -0.0996342 -7.53535e-20)
(-0.120074 -0.123641 -1.76221e-21)
(-0.126739 -0.148412 2.09403e-19)
(-0.131786 -0.173489 2.67647e-19)
(-0.135464 -0.198397 -2.30686e-19)
(-0.136956 -0.22248 4.76543e-20)
(-0.00661568 0.0187821 -1.77803e-19)
(-0.0169175 0.0350724 5.23544e-20)
(-0.0283003 0.0364753 -1.20572e-19)
(-0.0398672 0.0281798 -1.15377e-20)
(-0.0517118 0.013916 1.52616e-19)
(-0.0636436 -0.00374081 -1.87737e-19)
(-0.0752728 -0.0233051 2.51505e-19)
(-0.0861373 -0.0441408 -3.09378e-19)
(-0.0957641 -0.0661121 -4.02255e-19)
(-0.103734 -0.0892417 1.18554e-19)
(-0.109719 -0.113446 2.47853e-19)
(-0.113512 -0.138388 -2.94642e-19)
(-0.115253 -0.163485 2.59455e-19)
(-0.115195 -0.188062 -4.44301e-19)
(-0.111935 -0.211184 3.08565e-19)
(-0.00752338 0.0203036 4.74516e-19)
(-0.0186556 0.0391412 -3.10152e-19)
(-0.0299844 0.0426487 1.42753e-19)
(-0.0409439 0.0359698 2.10743e-19)
(-0.0517664 0.0228546 -2.46468e-19)
(-0.0623497 0.00593924 3.67922e-19)
(-0.0723523 -0.0132102 -5.28442e-20)
(-0.0813266 -0.0338757 -4.69462e-19)
(-0.0887885 -0.0558516 1.32055e-19)
(-0.0942861 -0.0791071 6.95887e-20)
(-0.09744 -0.103513 -3.46737e-19)
(-0.0979645 -0.128665 2.93792e-19)
(-0.0959386 -0.153855 -9.44387e-19)
(-0.0916672 -0.178171 7.73389e-19)
(-0.0828769 -0.200293 -2.75426e-19)
(-0.00843343 0.0216085 -3.40099e-19)
(-0.0203893 0.0427639 5.06082e-20)
(-0.0316022 0.0482832 -2.78204e-19)
(-0.0418495 0.0432022 -2.42032e-19)
(-0.0515027 0.0312566 -2.5944e-19)
(-0.0605515 0.0151222 -4.14168e-19)
(-0.0687065 -0.00356662 5.22295e-19)
(-0.0755367 -0.0240157 6.37274e-19)
(-0.080548 -0.0459551 4.26692e-20)
(-0.0832561 -0.0693083 -3.20061e-19)
(-0.0832294 -0.0939123 2.09553e-20)
(-0.0800989 -0.119313 2.82019e-19)
(-0.0738605 -0.144681 -1.25082e-19)
(-0.0649559 -0.168853 -2.90366e-20)
(-0.0498464 -0.189993 4.17197e-19)
(-0.00932592 0.0226778 2.15026e-19)
(-0.0220813 0.0458908 2.7409e-19)
(-0.0331162 0.0533063 8.40226e-20)
(-0.0425527 0.0497896 3.28289e-19)
(-0.050898 0.0390267 1.37562e-19)
(-0.0582344 0.0237098 2.78846e-19)
(-0.0643266 0.00552853 -2.97502e-20)
(-0.0687623 -0.0146546 -2.83844e-19)
(-0.0710389 -0.0365101 1.36693e-19)
(-0.0706405 -0.0599229 4.97972e-19)
(-0.0670868 -0.0847098 1.77359e-19)
(-0.0599252 -0.110386 -2.19356e-19)
(-0.0490428 -0.136019 4.22028e-19)
(-0.0351627 -0.160212 -2.81864e-19)
(-0.0129212 -0.180453 3.47509e-20)
(-0.0101812 0.0234983 -3.64795e-20)
(-0.0236944 0.0484829 -1.07249e-19)
(-0.0344897 0.057656 2.6645e-19)
(-0.0430241 0.0556532 1.64278e-19)
(-0.0499327 0.0460753 3.29747e-19)
(-0.0553881 0.031607 -1.79253e-19)
(-0.0592097 0.0139783 -4.07271e-19)
(-0.0610053 -0.00588769 -1.87655e-19)
(-0.0602652 -0.0276065 -2.68379e-19)
(-0.0564442 -0.0510306 -6.06778e-19)
(-0.0490179 -0.0759687 -3.39504e-19)
(-0.0374566 -0.101928 -9.30287e-20)
(-0.0215066 -0.127898 -4.1322e-19)
(-0.00240165 -0.15232 -6.76756e-21)
(0.0277306 -0.171638 2.21232e-19)
(-0.0109807 0.0240632 -1.58405e-19)
(-0.0251931 0.0505128 -9.84454e-20)
(-0.0356878 0.0612828 1.64922e-20)
(-0.0432365 0.0607247 -7.00428e-19)
(-0.0485901 0.0523204 -6.64721e-19)
(-0.0520064 0.0387229 -2.61696e-19)
(-0.0533584 0.0216871 5.03322e-19)
(-0.0522746 0.00218839 -2.4645e-19)
(-0.0482391 -0.0193381 2.34097e-19)
(-0.0406799 -0.0427157 3.23761e-19)
(-0.029035 -0.0677544 1.17676e-19)
(-0.0127107 -0.0939752 -2.20715e-19)
(0.00873392 -0.12033 2.44376e-19)
(0.033334 -0.145246 2.04568e-19)
(0.0716167 -0.163021 -2.86211e-19)
(-0.0117074 0.0243719 -4.23128e-20)
(-0.0265442 0.0519652 1.29266e-19)
(-0.036678 0.06415 -3.79444e-19)
(-0.0431653 0.0649472 8.80425e-19)
(-0.0468564 0.0576889 6.29443e-19)
(-0.0480868 0.0449725 1.02991e-19)
(-0.0467801 0.028562 -3.2142e-19)
(-0.0425846 0.00947655 1.29744e-19)
(-0.0349795 -0.0118017 1.67142e-19)
(-0.0233681 -0.0350677 -4.18978e-19)
(-0.00715645 -0.0601376 5.05505e-19)
(0.0142867 -0.0865636 1.96855e-19)
(0.0416131 -0.113279 -3.28457e-19)
(0.0723553 -0.138963 2.31034e-19)
(0.118591 -0.155156 8.60596e-20)
(-0.0123468 0.0244301 6.54174e-20)
(-0.0277184 0.0528371 3.36683e-19)
(-0.0374311 0.0662352 -1.57229e-20)
(-0.0427884 0.0682772 -5.1364e-19)
(-0.0447202 0.0621184 -3.72006e-19)
(-0.0436291 0.0502785 3.91575e-19)
(-0.0394846 0.0345148 5.46693e-19)
(-0.0319538 0.0158814 -8.26466e-20)
(-0.0205101 -0.005096 -2.45444e-19)
(-0.00453441 -0.0281817 6.20331e-19)
(0.0165961 -0.0531974 -5.0501e-19)
(0.0435347 -0.0797362 2.68253e-19)
(0.0770524 -0.106771 3.49697e-19)
(0.114339 -0.133329 -1.08057e-18)
(0.169335 -0.148511 1.37273e-19)
(-0.0128878 0.0242498 1.87668e-19)
(-0.0286905 0.0531376 -1.50521e-19)
(-0.0379218 0.0675303 3.96418e-22)
(-0.0420862 0.070685 1.14002e-19)
(-0.0421712 0.0655591 1.46256e-19)
(-0.0386334 0.0545739 -4.32814e-19)
(-0.0314821 0.0394653 -2.07911e-19)
(-0.0204001 0.0213123 -4.3166e-19)
(-0.00485497 0.000682469 -4.27486e-19)
(0.0157943 -0.0221559 3.69431e-19)
(0.0421937 -0.0470234 -4.16321e-19)
(0.0749999 -0.0735612 -4.75745e-20)
(0.115108 -0.100807 1.24366e-19)
(0.159088 -0.128136 -5.47653e-20)
(0.223616 -0.142587 4.36969e-19)
(-0.0133221 0.0238474 -5.96649e-20)
(-0.0294411 0.0528877 -4.05231e-19)
(-0.0381286 0.0680419 -3.41564e-19)
(-0.0410409 0.0721567 -7.17765e-20)
(-0.0391984 0.0679754 6.44349e-20)
(-0.0330973 0.0578048 -1.30542e-20)
(-0.0227784 0.043344 -7.9993e-20)
(-0.00793571 0.0256872 -6.3705e-20)
(0.0119688 0.00544266 2.19586e-19)
(0.0375976 -0.0170857 -1.69532e-19)
(0.0696153 -0.041706 4.91378e-19)
(0.108658 -0.068102 -5.3423e-19)
(0.155767 -0.0953543 -3.9555e-19)
(0.206627 -0.12344 2.75714e-19)
(0.281215 -0.137093 -3.32524e-19)
(-0.0136445 0.0232443 -1.56112e-19)
(-0.0299557 0.0521197 4.86168e-20)
(-0.0380338 0.0677908 2.91605e-19)
(-0.0396355 0.0726936 -1.52345e-19)
(-0.0357882 0.0693478 2.43179e-19)
(-0.0270123 0.0599321 -8.05772e-20)
(-0.0133702 0.0460955 -4.1818e-19)
(0.00543843 0.0289389 5.50467e-19)
(0.0299592 0.00910745 2.45426e-19)
(0.0608731 -0.0130544 -7.02153e-19)
(0.0988575 -0.0373288 6.87826e-20)
(0.144503 -0.0634288 -1.56567e-20)
(0.198999 -0.0904205 8.06697e-19)
(0.256967 -0.119221 1.64413e-19)
(0.341923 -0.131812 4.57334e-19)
(-0.0138543 0.0224662 6.1117e-21)
(-0.0302248 0.0508739 3.50028e-19)
(-0.0376228 0.0668112 -1.68009e-19)
(-0.037852 0.0723134 2.31377e-19)
(-0.0319219 0.0696743 4.39707e-19)
(-0.0203592 0.0609348 5.63201e-19)
(-0.0032378 0.0476838 1.71299e-19)
(0.0197427 0.0310203 -3.50124e-20)
(0.049139 0.0116214 7.02028e-19)
(0.0856473 -0.0101232 7.89955e-19)
(0.129948 -0.0339556 7.25901e-20)
(0.18256 -0.0595989 7.70285e-19)
(0.244777 -0.0860193 2.83993e-22)
(0.310109 -0.115404 -6.66238e-19)
(0.405465 -0.12653 -4.5065e-19)
(-0.0139539 0.0215408 1.90449e-19)
(-0.0302441 0.0491989 3.85822e-19)
(-0.0368832 0.0651495 6.37572e-20)
(-0.0356702 0.0710496 4.47453e-19)
(-0.0275722 0.0689714 -5.35567e-19)
(-0.0131048 0.0608134 -6.90501e-20)
(0.0076594 0.048096 -1.15735e-19)
(0.0350273 0.0319089 8.3569e-19)
(0.0695682 0.0129573 -1.14768e-18)
(0.111989 -0.00832045 -7.87207e-19)
(0.162958 -0.0316142 3.00878e-19)
(0.222894 -0.0566348 -3.81216e-19)
(0.293086 -0.082156 -1.03021e-19)
(0.366059 -0.111881 3.13714e-19)
(0.471436 -0.121031 1.10763e-18)
(-0.0139486 0.0204973 1.81516e-19)
(-0.0300136 0.0471486 -7.04578e-19)
(-0.0358031 0.0628628 1.53231e-19)
(-0.0330649 0.0689511 -6.90342e-19)
(-0.0227005 0.067275 3.47417e-19)
(-0.00519593 0.059591 -2.31356e-19)
(0.0193902 0.0473455 -2.53054e-19)
(0.0513788 0.0316132 -6.15872e-19)
(0.0913528 0.0131242 2.22699e-19)
(0.140021 -0.00763163 3.21151e-19)
(0.198011 -0.0302829 -1.79028e-20)
(0.26562 -0.054504 3.14156e-19)
(0.343927 -0.078809 -1.64885e-19)
(0.424827 -0.1085 -5.81462e-20)
(0.539257 -0.115105 -7.5083e-20)
(-0.0138463 0.0193648 -7.98925e-19)
(-0.0295355 0.0447801 3.22226e-20)
(-0.0343699 0.0600165 -6.50321e-20)
(-0.0300042 0.0660804 1.14067e-19)
(-0.0172532 0.0646399 -5.21221e-19)
(0.0034441 0.0573142 6.34906e-19)
(0.0320569 0.0454744 -1.88289e-20)
(0.0689274 0.0301763 -7.90944e-19)
(0.114651 0.0121728 -7.3559e-19)
(0.169922 -0.00799206 -6.33831e-19)
(0.235289 -0.0298806 -2.89336e-19)
(0.310889 -0.0531027 -1.84369e-19)
(0.3973 -0.0759162 -6.18893e-19)
(0.486395 -0.105043 -4.19444e-19)
(0.608131 -0.108577 4.97479e-19)
(-0.0136564 0.0181713 4.56988e-19)
(-0.0288138 0.0421517 3.62293e-19)
(-0.0325682 0.0566823 4.25986e-19)
(-0.0264467 0.0625126 -1.27018e-19)
(-0.0111594 0.0611394 2.29817e-19)
(0.0129188 0.0540544 -3.19621e-19)
(0.0457987 0.0425554 1.62064e-19)
(0.0878497 0.0276781 1.02293e-18)
(0.139673 0.0101982 3.92492e-19)
(0.201925 -0.0092836 8.41753e-19)
(0.275011 -0.0302633 3.19762e-19)
(0.358865 -0.0522494 -5.82887e-20)
(0.453187 -0.0733668 5.53223e-19)
(0.55065 -0.101211 -5.81843e-19)
(0.677013 -0.101336 -6.65513e-19)
(-0.0133886 0.0169425 -4.02361e-19)
(-0.0278516 0.0393201 -6.45838e-19)
(-0.0303775 0.0529352 1.35127e-19)
(-0.02234 0.0583324 -2.5599e-19)
(-0.004329 0.0568635 3.04158e-19)
(0.0233603 0.0499067 -6.38709e-19)
(0.0607921 0.0386919 1.85672e-19)
(0.108367 0.0242366 -2.88495e-19)
(0.166677 0.00734098 -2.76016e-19)
(0.236302 -0.0113358 -3.77475e-19)
(0.317422 -0.0312273 -6.49914e-19)
(0.409687 -0.051694 6.62236e-20)
(0.511512 -0.0709999 5.68057e-19)
(0.61728 -0.0965985 4.55584e-19)
(0.74455 -0.093296 3.19306e-19)
(-0.0130525 0.0157011 2.95011e-19)
(-0.0266495 0.0363389 -4.66466e-20)
(-0.0277707 0.0488518 2.15169e-19)
(-0.0176186 0.0536323 6.88143e-19)
(0.00334847 0.0519173 -7.46303e-19)
(0.0349286 0.0449882 6.69191e-19)
(0.0772487 0.0340166 -6.31194e-19)
(0.130736 0.0200062 1.03408e-19)
(0.195952 0.00378371 2.76063e-19)
(0.27334 -0.0139319 2.43529e-20)
(0.362745 -0.0325204 4.30553e-19)
(0.463412 -0.0511465 4.52961e-19)
(0.572134 -0.0686064 -3.12835e-19)
(0.685686 -0.0906527 -7.39789e-19)
(0.809092 -0.0843963 1.05937e-18)
(-0.0126557 0.0144653 -1.82289e-19)
(-0.0252039 0.0332564 4.65319e-19)
(-0.0247122 0.0445068 -2.84824e-19)
(-0.0122035 0.0485096 -1.93374e-19)
(0.0120032 0.0464176 3.94951e-19)
(0.0478091 0.0394357 -8.0709e-20)
(0.095408 0.0286891 2.45551e-19)
(0.155242 0.015174 1.46764e-18)
(0.227799 -0.000253951 1.92492e-19)
(0.313303 -0.0168182 9.98229e-20)
(0.411142 -0.033859 -1.85435e-19)
(0.519972 -0.0503248 -2.70309e-19)
(0.63485 -0.0659249 -2.19372e-19)
(0.755028 -0.0827686 3.04675e-19)
(0.869198 -0.075261 -1.60372e-18)
(-0.0122034 0.0132491 5.7322e-19)
(-0.023505 0.0301144 4.90775e-19)
(-0.0211565 0.0399718 1.61239e-19)
(-0.00600184 0.0430633 -3.75364e-20)
(0.0217833 0.0404899 2.41443e-19)
(0.0622077 0.0334018 -1.85465e-19)
(0.115528 0.0228912 -1.15038e-19)
(0.182175 0.00995436 -1.79748e-19)
(0.262499 -0.00452358 -8.21684e-19)
(0.356399 -0.0197165 1.96585e-19)
(0.462649 -0.0349487 7.7294e-20)
(0.579111 -0.0489909 8.56828e-20)
(0.699314 -0.0626204 6.45722e-19)
(0.824286 -0.0728363 -4.17195e-20)
(0.925321 -0.0687319 2.94108e-19)
(-0.0116971 0.0120617 -9.0588e-19)
(-0.0215355 0.026947 -3.49364e-19)
(-0.0170479 0.0353126 -9.04879e-20)
(0.00109224 0.037392 -7.71106e-21)
(0.0328508 0.0342653 -4.1916e-19)
(0.0783421 0.0270504 1.90698e-19)
(0.13787 0.0168212 1.77287e-20)
(0.211809 0.00458115 5.65231e-19)
(0.300287 -0.0087581 -2.12095e-19)
(0.40273 -0.0223378 -1.97296e-19)
(0.517139 -0.0355 -2.74591e-20)
(0.640351 -0.0469442 -1.75248e-20)
(0.764786 -0.0583235 -5.93215e-19)
(0.891782 -0.0621465 1.46624e-19)
(0.981239 -0.0684086 -3.73356e-19)
(-0.0111338 0.0109073 6.60017e-19)
(-0.0192698 0.0237806 2.00152e-19)
(-0.0123201 0.0305885 -4.07277e-19)
(0.0091953 0.0315909 1.89636e-19)
(0.0453769 0.0278762 -7.43359e-19)
(0.0964328 0.0205519 1.46109e-19)
(0.162683 0.0106879 2.56714e-19)
(0.244382 -0.000700754 -5.9066e-19)
(0.341313 -0.0126837 7.95675e-19)
(0.452268 -0.0243966 4.61247e-19)
(0.574297 -0.0352427 3.0788e-19)
(0.703031 -0.0439896 8.85026e-20)
(0.830112 -0.0528301 -6.87376e-21)
(0.954907 -0.0531206 -1.5386e-19)
(1.04376 -0.0658731 6.72628e-19)
(-0.0105059 0.0097861 -7.4238e-19)
(-0.0166732 0.0206341 -6.59369e-19)
(-0.00689742 0.0258514 6.09115e-20)
(0.0184318 0.0257502 1.91392e-19)
(0.0595351 0.0214534 6.93372e-19)
(0.116692 0.0140784 -2.28495e-19)
(0.190189 0.00470298 -8.95758e-19)
(0.280066 -0.00564538 -6.99526e-19)
(0.385623 -0.0160331 -4.39446e-19)
(0.504829 -0.025628 -8.25309e-19)
(0.633622 -0.0339473 3.20888e-19)
(0.766347 -0.0399617 1.80258e-19)
(0.894063 -0.0461473 1.66837e-19)
(1.01432 -0.0444167 3.75998e-19)
(1.10032 -0.0572536 1.89313e-19)
(-0.00980058 0.00869442 4.94424e-19)
(-0.0137022 0.0175194 4.43608e-19)
(-0.000695663 0.0211458 1.81326e-19)
(0.0289305 0.0199538 -5.30203e-19)
(0.0754948 0.0151233 -3.46111e-19)
(0.13931 0.00779887 2.53223e-19)
(0.22056 -0.000925643 3.44422e-19)
(0.318952 -0.0100155 6.80615e-19)
(0.433132 -0.0185585 2.06816e-19)
(0.560062 -0.0258039 1.20235e-19)
(0.69445 -0.0314416 -7.13393e-19)
(0.829392 -0.0347514 -5.25001e-19)
(0.95559 -0.038336 8.39133e-20)
(1.06946 -0.0351852 -1.70581e-19)
(1.14968 -0.0466514 4.01399e-19)
(-0.00900049 0.007626 1.46083e-19)
(-0.0103056 0.0144428 -3.2316e-19)
(0.00637534 0.0165092 -3.17301e-19)
(0.04082 0.0142788 6.30532e-20)
(0.0934129 0.00900594 2.84064e-19)
(0.164446 0.00187537 5.10702e-19)
(0.253908 -0.00600001 -3.02051e-19)
(0.361028 -0.0135913 3.05205e-19)
(0.483617 -0.0200431 1.27503e-19)
(0.617461 -0.0247451 -6.6107e-19)
(0.755989 -0.0276213 1.33365e-19)
(0.891215 -0.0283284 7.14719e-20)
(1.0138 -0.0295072 -2.01348e-19)
(1.11975 -0.025326 -3.48903e-19)
(1.19283 -0.0350186 -7.45002e-19)
(-0.00808379 0.00657283 9.03347e-20)
(-0.00642527 0.0114067 -1.2322e-19)
(0.0144094 0.0119736 3.14657e-19)
(0.0542244 0.00879569 -2.79577e-19)
(0.113428 0.00321371 5.0252e-20)
(0.192218 -0.00353979 -1.33223e-19)
(0.290271 -0.010337 -1.70893e-19)
(0.406174 -0.0161779 1.0034e-19)
(0.536716 -0.0203099 3.89716e-20)
(0.676384 -0.0223296 6.13824e-19)
(0.81737 -0.0224513 2.58211e-19)
(0.950899 -0.0207375 2.90369e-19)
(1.06798 -0.0198113 7.72765e-19)
(1.16485 -0.0149119 -2.26472e-19)
(1.22978 -0.0229108 4.08958e-19)
(-0.00702503 0.00552637 -2.74196e-19)
(-0.00199797 0.00841185 5.89268e-19)
(0.0235011 0.00756754 1.6738e-19)
(0.0692588 0.0035696 7.44072e-19)
(0.135651 -0.0021485 1.74408e-19)
(0.222694 -0.0083056 -6.33313e-19)
(0.329607 -0.0137719 2.75805e-19)
(0.454157 -0.01761 6.17159e-19)
(0.591943 -0.0192274 -5.64405e-19)
(0.736092 -0.0184948 -1.42502e-19)
(0.87771 -0.0159603 -1.43367e-20)
(1.00762 -0.0120824 -3.21584e-19)
(1.11758 -0.00941844 -4.37603e-19)
(1.20462 -0.00408857 4.17556e-19)
(1.26093 -0.010679 1.49685e-19)
(-0.00579606 0.00447864 -9.28297e-20)
(0.00304269 0.00545881 -3.28493e-19)
(0.0337432 0.00331762 4.64996e-19)
(0.0860256 -0.00133803 -3.28348e-19)
(0.160166 -0.00698252 8.10645e-20)
(0.255885 -0.0122929 -6.85705e-21)
(0.371789 -0.0161605 3.85978e-19)
(0.504638 -0.0177559 -4.92228e-19)
(0.648707 -0.0167115 1.31875e-18)
(0.795789 -0.0132349 2.76384e-19)
(0.936162 -0.00822951 -2.58688e-19)
(1.06069 -0.0025059 2.34588e-20)
(1.16227 0.00149637 -6.92718e-20)
(1.23909 0.00698353 8.86652e-20)
(1.28672 0.00145554 -5.7004e-19)
(-0.00436694 0.00342327 5.93468e-20)
(0.00876428 0.00255061 -3.83639e-19)
(0.0452234 -0.000748443 -3.60803e-19)
(0.10461 -0.00586725 -2.21153e-19)
(0.187019 -0.0111955 -3.86787e-19)
(0.291745 -0.0153842 -1.93071e-19)
(0.416607 -0.0173801 -5.59867e-19)
(0.557184 -0.0165185 1.95566e-19)
(0.706347 -0.0127254 -9.27021e-19)
(0.854676 -0.00659456 -1.8244e-19)
(0.991975 0.000620627 -6.7547e-19)
(1.10961 0.00782952 4.85174e-19)
(1.20192 0.0127672 3.82299e-19)
(1.26848 0.0181581 1.35257e-21)
(1.30766 0.0133522 9.03323e-19)
(-0.00270699 0.00235636 4.70181e-20)
(0.0152335 -0.000305647 3.85115e-19)
(0.0580219 -0.00459977 5.67535e-19)
(0.125079 -0.00995729 7.47857e-20)
(0.216219 -0.014698 -2.80173e-19)
(0.330167 -0.017473 2.48664e-19)
(0.463772 -0.01733 2.61607e-20)
(0.611286 -0.0138356 -2.68036e-19)
(0.764161 -0.00727579 -2.23956e-19)
(0.911993 0.00134086 -2.23691e-19)
(1.04452 0.0104452 5.65766e-19)
(1.15404 0.0187579 3.67085e-19)
(1.23657 0.0242466 -4.39411e-19)
(1.29312 0.0293158 3.22557e-19)
(1.32433 0.0249314 3.07828e-20)
(-0.00078569 0.00127715 1.20456e-19)
(0.0225142 -0.00309709 -8.38993e-19)
(0.0722091 -0.00820013 -5.90241e-19)
(0.147475 -0.0135445 -3.38428e-20)
(0.247737 -0.0174031 1.30252e-19)
(0.370986 -0.018463 3.29821e-19)
(0.51293 -0.0159316 -1.15654e-19)
(0.666378 -0.00967869 2.20372e-19)
(0.821446 -0.000407526 5.41947e-19)
(0.967055 0.0104559 1.93515e-19)
(1.09332 0.0210882 2.02727e-19)
(1.19383 0.0301219 -9.04111e-20)
(1.26639 0.0358119 -2.309e-19)
(1.31341 0.0403681 -7.44194e-19)
(1.3373 0.0361572 -4.00967e-20)
(0.00142651 0.000188462 -4.47016e-19)
(0.0306655 -0.00580393 9.15406e-19)
(0.0878429 -0.0115064 -1.70589e-19)
(0.171819 -0.0165608 -5.43231e-20)
(0.281503 -0.0192243 -1.87304e-19)
(0.413985 -0.0182685 -3.59044e-19)
(0.563666 -0.0131283 2.4992e-19)
(0.721866 -0.00405093 -4.55545e-19)
(0.87753 0.00780284 -1.82161e-19)
(1.01928 0.0206161 -1.30901e-19)
(1.13805 0.0323936 -4.14815e-19)
(1.22898 0.0417812 8.83203e-20)
(1.29166 0.0473663 2.85748e-19)
(1.32981 0.0512559 4.31851e-20)
(1.34711 0.0470251 -5.84717e-19)
(0.00395746 -0.00090307 1.17093e-19)
(0.0397406 -0.00839875 5.94597e-20)
(0.104967 -0.0144673 1.12415e-18)
(0.198103 -0.0189326 4.97085e-19)
(0.317405 -0.0200766 2.17622e-19)
(0.458892 -0.0168143 3.73185e-20)
(0.615523 -0.00888581 -6.57454e-19)
(0.77715 0.00301586 7.43127e-19)
(0.931798 0.0172548 4.13845e-20)
(1.06822 0.0316778 1.69088e-19)
(1.17852 0.0442141 -1.54234e-19)
(1.2596 0.0536169 -4.71036e-19)
(1.31276 0.0588393 -6.93304e-19)
(1.34278 0.0619459 9.06247e-19)
(1.35428 0.0575521 1.24354e-19)
(0.00683272 -0.00198698 -7.64767e-21)
(0.0497845 -0.0108462 -4.36384e-19)
(0.12361 -0.0170234 -4.21577e-19)
(0.226293 -0.0205811 -3.52294e-19)
(0.355294 -0.0198762 2.40306e-19)
(0.505392 -0.0140373 -1.48319e-19)
(0.668017 -0.00319166 4.77955e-19)
(0.831645 0.011465 -3.74359e-19)
(0.983715 0.0278313 1.32972e-19)
(1.11353 0.0434971 -2.77971e-19)
(1.2147 0.0564166 6.0156e-20)
(1.28592 0.0655332 -1.96738e-19)
(1.33007 0.0701838 1.88306e-19)
(1.35278 0.0724256 -5.18583e-19)
(1.35924 0.0677685 -1.84886e-19)
(0.0100752 -0.00304911 -6.20764e-19)
(0.0608335 -0.0131033 5.53571e-19)
(0.143781 -0.0191072 -6.91054e-20)
(0.256327 -0.021423 2.49206e-19)
(0.39498 -0.0185423 -3.951e-19)
(0.553135 -0.00988779 3.51786e-19)
(0.720649 0.00394506 -4.03568e-19)
(0.884807 0.0212191 -2.38894e-19)
(1.03284 0.0394064 7.33798e-20)
(1.15501 0.055936 -2.14367e-19)
(1.24664 0.0688864 -3.10493e-19)
(1.30822 0.0774569 8.61868e-19)
(1.344 0.0813728 -1.05076e-19)
(1.36023 0.0826979 5.52327e-19)
(1.36239 0.0777121 -1.2616e-19)
(0.0137045 -0.00407187 1.16698e-19)
(0.0729136 -0.01512 -9.06453e-20)
(0.165472 -0.0206442 -5.49741e-19)
(0.288111 -0.021372 -7.97559e-20)
(0.436239 -0.0159997 6.82237e-19)
(0.60174 -0.00433103 -4.78514e-19)
(0.772925 0.0124949 7.06325e-19)
(0.936145 0.0321854 -3.59193e-19)
(1.07883 0.0518511 4.43534e-19)
(1.19256 0.0688675 3.38187e-19)
(1.2745 0.0815276 -2.17975e-19)
(1.32684 0.0893356 -3.32652e-19)
(1.35497 0.0923957 3.71223e-19)
(1.36552 0.092777 -4.05612e-19)
(1.36406 0.0874229 -2.13087e-19)
(0.0177371 -0.00503459 4.23764e-19)
(0.0860396 -0.0168398 -6.91563e-20)
(0.188653 -0.0215544 2.97246e-19)
(0.321525 -0.0203413 -3.62858e-19)
(0.478815 -0.0121809 -8.33373e-19)
(0.650809 0.00265126 1.23398e-19)
(0.824371 0.0224098 -1.93458e-19)
(0.985235 0.0442598 6.46917e-19)
(1.12145 0.0650388 -2.11017e-19)
(1.22618 0.0821786 7.00015e-21)
(1.29849 0.0942637 2.91282e-19)
(1.34212 0.101135 2.36628e-19)
(1.36335 0.103254 -5.6309e-19)
(1.36899 0.102684 3.31359e-19)
(1.36453 0.0969406 3.84028e-19)
(0.0221854 -0.00591389 -1.83303e-19)
(0.100214 -0.0182014 -9.08279e-20)
(0.213272 -0.0217543 -2.80162e-19)
(0.356416 -0.018246 1.86967e-19)
(0.522421 -0.00702885 3.82198e-19)
(0.699937 0.0110602 -3.83987e-20)
(0.874542 0.0336257 3.55555e-19)
(1.03173 0.0573324 -3.66965e-19)
(1.16054 0.0788496 3.89913e-19)
(1.25595 0.0957715 -4.13172e-19)
(1.31888 0.107036 4.54139e-19)
(1.35441 0.112835 -4.27544e-19)
(1.3695 0.113958 -1.44236e-19)
(1.37095 0.112442 1.5386e-19)
(1.36402 0.106302 5.05084e-20)
(0.0270579 -0.00668414 1.3837e-19)
(0.115427 -0.0191396 -1.61063e-20)
(0.239259 -0.021159 -3.63452e-19)
(0.392609 -0.0150063 2.77267e-19)
(0.566753 -0.000499305 1.12517e-19)
(0.748718 0.0208795 1.10377e-19)
(0.923038 0.0460652 -1.15112e-19)
(1.07535 0.0712911 -8.03906e-20)
(1.19604 0.0931726 -6.74151e-19)
(1.28201 0.109564 4.13339e-19)
(1.33594 0.119801 -2.65262e-19)
(1.36406 0.124428 -5.51613e-20)
(1.37374 0.124524 8.79852e-19)
(1.37164 0.122078 -6.81591e-19)
(1.3627 0.115539 -4.70911e-19)
(0.0323586 -0.00731787 -2.45232e-20)
(0.131653 -0.0195869 2.07659e-19)
(0.266517 -0.0196844 3.45551e-19)
(0.429899 -0.0105497 -4.53391e-20)
(0.611488 0.00743727 -2.55491e-19)
(0.796763 0.0320764 2.63113e-19)
(0.969507 0.0596412 -2.68784e-19)
(1.1159 0.0860251 -1.50767e-19)
(1.22796 0.107908 4.4439e-19)
(1.30455 0.123489 3.09319e-19)
(1.34997 0.13253 5.36807e-20)
(1.37137 0.135914 2.22465e-19)
(1.37634 0.13497 -4.58085e-19)
(1.37127 0.131615 2.95815e-19)
(1.36071 0.124679 5.31063e-19)
(0.0380867 -0.00778627 -8.36411e-20)
(0.148857 -0.0194747 -5.69526e-19)
(0.294933 -0.0172497 -3.61147e-19)
(0.468062 -0.00481359 -3.62914e-19)
(0.656297 0.0167946 -2.44251e-19)
(0.843703 0.0446031 1.2644e-19)
(1.01365 0.0742594 4.67601e-19)
(1.15325 0.101428 -1.556e-19)
(1.25636 0.122968 2.67768e-19)
(1.32378 0.137492 -4.61135e-20)
(1.36126 0.145203 7.02848e-20)
(1.37663 0.147301 -1.23752e-19)
(1.37754 0.145315 4.75894e-20)
(1.37001 0.141075 -6.98436e-20)
(1.35816 0.133744 -1.9198e-19)
(0.0442367 -0.00805967 1.34379e-19)
(0.166985 -0.0187352 6.00329e-19)
(0.324371 -0.0137796 -1.23467e-19)
(0.506854 0.00225225 2.92151e-19)
(0.700848 0.0275703 5.82954e-20)
(0.889199 0.0583982 4.3165e-20)
(1.05524 0.089822 -2.24545e-19)
(1.18734 0.117398 2.60081e-19)
(1.28134 0.138275 -3.85792e-19)
(1.33993 0.151533 -2.05635e-19)
(1.37008 0.157811 -6.97025e-20)
(1.38011 0.158598 -4.9798e-20)
(1.37754 0.155579 -1.84641e-19)
(1.36799 0.150477 -2.58632e-20)
(1.35512 0.142752 9.13782e-20)
(0.0507977 -0.00810797 -4.23108e-20)
(0.185972 -0.0173024 2.6149e-20)
(0.354676 -0.00920599 3.41286e-19)
(0.546021 0.0106846 3.30458e-19)
(0.744818 0.0397455 1.37955e-19)
(0.932947 0.0733894 -2.40633e-19)
(1.09408 0.106229 7.7993e-20)
(1.21815 0.133844 2.04944e-19)
(1.30306 0.153765 -3.05581e-20)
(1.35325 0.165579 3.85797e-20)
(1.3767 0.170349 7.99578e-20)
(1.38203 0.169815 2.24075e-20)
(1.37652 0.165778 -1.80463e-19)
(1.36532 0.159833 -6.82172e-21)
(1.35164 0.151715 2.03889e-19)
(0.0577536 -0.00790123 2.75193e-20)
(0.205739 -0.0151139 -1.14152e-19)
(0.385678 -0.00347016 -1.94109e-19)
(0.585297 0.0205053 -3.90054e-19)
(0.787895 0.0532864 -4.1909e-20)
(0.974681 0.0894953 1.88417e-19)
(1.13004 0.123383 -9.7427e-20)
(1.24572 0.150678 -2.52413e-19)
(1.32168 0.169382 -2.3331e-19)
(1.36396 0.179606 1.093e-19)
(1.38136 0.182816 -6.02985e-20)
(1.38258 0.180965 -2.86987e-19)
(1.3746 0.175925 2.79765e-19)
(1.36207 0.169157 2.82856e-19)
(1.34778 0.160639 -1.39204e-19)
(0.0650828 -0.00741013 1.20052e-20)
(0.226194 -0.0121119 -2.22737e-19)
(0.417193 0.00347596 9.72365e-20)
(0.624414 0.0317211 1.85119e-19)
(0.829786 0.0681448 3.70121e-20)
(1.01418 0.106628 -8.85253e-21)
(1.16304 0.141186 1.13134e-19)
(1.27011 0.167822 8.98897e-20)
(1.33738 0.185078 1.24097e-20)
(1.3723 0.193596 -7.78131e-20)
(1.38426 0.195215 1.09376e-20)
(1.38193 0.192058 1.0939e-19)
(1.3719 0.186029 -1.03108e-19)
(1.35831 0.178453 -7.79956e-20)
(1.34355 0.169529 -1.27173e-19)
(0.0727582 -0.00660651 1.51425e-19)
(0.247231 -0.00824467 2.08544e-20)
(0.449024 0.0116685 1.98302e-20)
(0.663105 0.0443231 -5.10059e-20)
(0.870222 0.0842599 -2.07287e-19)
(1.05125 0.124695 3.8384e-20)
(1.19303 0.159545 -4.00842e-20)
(1.29142 0.185208 1.02366e-19)
(1.35034 0.200814 2.44129e-19)
(1.37846 0.207537 -2.21466e-22)
(1.38559 0.207547 9.27231e-20)