/*--------------------------------*- C++ -*----------------------------------*\
  =========                 |
  \\      /  F ield         | OpenFOAM: The Open Source CFD Toolbox
   \\    /   O peration     | Website:  https://openfoam.org
    \\  /    A nd           | Version:  7
     \\/     M anipulation  |
\*---------------------------------------------------------------------------*/
FoamFile
{
    version     2.0;
    format      ascii;
    class       volScalarField;
    location    "160";
    object      p;
}
// * * * * * * * * * * * * * * * * * * * * * * * * * * * * * * * * * * * * * //

dimensions      [0 2 -2 0 0 0 0];

internalField   nonuniform List<scalar> 
7156
(
-0.109201
-0.124218
-0.112832
-0.101739
-0.127969
-0.116188
-0.105031
-0.0941569
-0.132085
-0.119537
-0.108023
-0.0971053
-0.086459
-0.136532
-0.12323
-0.110963
-0.0997274
-0.0890579
-0.0786483
-0.156684
-0.141345
-0.127228
-0.114225
-0.102251
-0.0913045
-0.0808932
-0.0707287
-0.162907
-0.146575
-0.131564
-0.117767
-0.105075
-0.0934054
-0.0827594
-0.0726154
-0.062704
-0.169675
-0.152267
-0.136286
-0.121617
-0.108153
-0.0957859
-0.0844325
-0.0740972
-0.0642295
-0.0545788
-0.177037
-0.158469
-0.141437
-0.125822
-0.111511
-0.0983944
-0.0863633
-0.0753376
-0.0653231
-0.0557404
-0.0463576
-0.185038
-0.165228
-0.147062
-0.130424
-0.115192
-0.101252
-0.0884963
-0.0768138
-0.0661268
-0.0564432
-0.0471538
-0.0380455
-0.193713
-0.172589
-0.153209
-0.135464
-0.119236
-0.104403
-0.0908486
-0.078466
-0.0671439
-0.0568066
-0.0474635
-0.0384758
-0.0296485
-0.203066
-0.180588
-0.159921
-0.140989
-0.123683
-0.107881
-0.093461
-0.0803069
-0.0683105
-0.0573607
-0.0473838
-0.0383909
-0.029713
-0.0211727
-0.18923
-0.167232
-0.147042
-0.128578
-0.111728
-0.0963682
-0.0823757
-0.069635
-0.0580374
-0.0474715
-0.0378659
-0.0292326
-0.0208724
-0.0126255
-0.198474
-0.175153
-0.153657
-0.133964
-0.115986
-0.0996079
-0.0847053
-0.0711548
-0.0588408
-0.0476544
-0.0374839
-0.0282603
-0.0199961
-0.0119622
-0.00401544
-0.208186
-0.183645
-0.160848
-0.139875
-0.120697
-0.103222
-0.0873322
-0.0729015
-0.0598068
-0.0479323
-0.0371692
-0.0274057
-0.0185752
-0.0106897
-0.00299102
0.00464752
-0.218089
-0.192583
-0.168578
-0.146326
-0.125897
-0.107253
-0.0902974
-0.0749106
-0.060966
-0.0483402
-0.0369177
-0.0265899
-0.0172449
-0.00881866
-0.00132195
0.00603154
0.0133513
-0.227702
-0.2017
-0.176731
-0.153286
-0.131602
-0.111736
-0.0936426
-0.0772224
-0.0623533
-0.0489081
-0.0367638
-0.0258054
-0.0159244
-0.00700944
0.00100083
0.00809829
0.0150951
0.0220818
-0.236276
-0.210532
-0.185052
-0.160645
-0.137785
-0.116689
-0.097404
-0.0798783
-0.0640082
-0.0496703
-0.0367373
-0.0250865
-0.0146035
-0.00518065
0.00329281
0.0108749
0.0175621
0.0241883
0.0308211
-0.218348
-0.193092
-0.168162
-0.144344
-0.12209
-0.101601
-0.0829147
-0.0659719
-0.050666
-0.0368722
-0.0244633
-0.0133171
-0.00332042
0.0056337
0.0136543
0.0207957
0.0270609
0.033299
0.0395449
-0.224117
-0.200139
-0.1754
-0.151047
-0.127842
-0.106215
-0.0863527
-0.0682813
-0.0519359
-0.0372073
-0.0239696
-0.0120957
-0.0014646
0.00803578
0.0165112
0.024068
0.0307558
0.0365868
0.0424136
0.0482222
-0.226542
-0.205181
-0.181669
-0.157477
-0.133727
-0.111157
-0.0901776
-0.0709587
-0.0535173
-0.037783
-0.0236438
-0.0109733
0.000355274
0.0104619
0.019457
0.0274449
0.0345276
0.040749
0.0461338
0.0515217
0.0568246
-0.206938
-0.185977
-0.162959
-0.139342
-0.11622
-0.0943069
-0.073993
-0.0554338
-0.0386367
-0.023526
-0.00998765
0.00210552
0.0128796
0.0224533
0.0309353
0.0384281
0.0450276
0.0507701
0.0556996
0.060622
0.0653273
-0.203988
-0.18706
-0.166527
-0.144033
-0.121015
-0.0985443
-0.0773087
-0.057678
-0.0397935
-0.0236537
-0.00917833
0.00374894
0.0152555
0.0254669
0.0345003
0.0424628
0.0494545
0.0555628
0.060816
0.06529
0.0697202
0.0736602
-0.195092
-0.183509
-0.166935
-0.146856
-0.124912
-0.102518
-0.0807202
-0.0601806
-0.0412491
-0.0240531
-0.00858283
0.00524664
0.0175534
0.0284651
0.0381064
0.0465933
0.0540314
0.0605181
0.0661293
0.07089
0.074926
0.0788067
0.0816312
-0.174085
-0.162784
-0.146586
-0.126987
-0.105618
-0.0838719
-0.062767
-0.0429408
-0.0247232
-0.0082286
0.00656124
0.0197352
0.0314129
0.0417223
0.0507873
0.0587227
0.0656328
0.0716123
0.0767251
0.0810066
0.0846453
0.0878535
0.0890152
-0.158147
-0.152841
-0.141839
-0.12604
-0.106945
-0.0861739
-0.0650975
-0.0447044
-0.0256076
-0.00811762
0.00766418
0.0217636
0.0342733
0.0453145
0.055015
0.0634982
0.0708778
0.0772575
0.0827289
0.0873483
0.0911819
0.0944654
0.0968445
0.0961484
-0.136444
-0.131388
-0.120702
-0.105322
-0.0867535
-0.0666035
-0.0462164
-0.0265526
-0.00819972
0.00855043
0.023609
0.037009
0.0488468
0.0592447
0.0683307
0.0762274
0.0830477
0.088895
0.0938582
0.0979931
0.101407
0.104317
0.105696
0.105079
-0.113553
-0.114551
-0.109753
-0.0993976
-0.0844579
-0.0664376
-0.0469294
-0.0272503
-0.00833156
0.00926406
0.0252633
0.0395894
0.0522822
0.0634413
0.0731902
0.0816566
0.0889626
0.0952207
0.100534
0.104989
0.108646
0.111639
0.114144
0.115016
0.114908
-0.091159
-0.0924973
-0.087965
-0.0779549
-0.0634738
-0.0460223
-0.0271751
-0.00822104
0.00993824
0.0267648
0.0420035
0.055589
0.0675677
0.0780422
0.087137
0.0949797
0.101692
0.107385
0.112162
0.116109
0.11929
0.121852
0.123931
0.124409
0.124403
-0.0686328
-0.0703114
-0.0660517
-0.0564011
-0.0423964
-0.0255324
-0.00736415
0.0108494
0.0282364
0.0442834
0.058753
0.071591
0.0828499
0.0926349
0.101071
0.108287
0.114402
0.119528
0.123767
0.127205
0.12991
0.132034
0.133685
0.133808
0.133706
-0.0460038
-0.0480224
-0.0440418
-0.0347638
-0.0212521
-0.00499318
0.01248
0.0299392
0.0465424
0.0618009
0.0754942
0.0875788
0.098113
0.107205
0.11498
0.121565
0.127081
0.131638
0.135337
0.138266
0.140494
0.142173
0.143396
0.143168
0.142882
-0.0233016
-0.0256591
-0.021964
-0.0130708
-6.76343e-05
0.0155703
0.0323337
0.0490261
0.0648358
0.079298
0.092209
0.103536
0.113341
0.121737
0.128847
0.134801
0.139716
0.143702
0.146861
0.149279
0.151027
0.152258
0.153051
0.152463
0.151937
-0.000555708
-0.00325089
0.000153098
0.00865006
0.0211304
0.0361327
0.0521733
0.0680881
0.0830959
0.0967554
0.10888
0.119445
0.128519
0.136216
0.142661
0.147981
0.152294
0.155709
0.158326
0.160232
0.161499
0.162277
0.162636
0.161679
0.160876
0.0222042
0.0191731
0.0222806
0.0303708
0.0423154
0.056669
0.0719752
0.0871032
0.101302
0.114154
0.125488
0.135289
0.143631
0.150627
0.156406
0.161092
0.164802
0.167646
0.169721
0.171114
0.171899
0.172221
0.172142
0.170807
0.169704
0.0449485
0.0415834
0.0443896
0.0520635
0.0634607
0.0771539
0.0917158
0.106049
0.119434
0.131475
0.142016
0.151052
0.15866
0.164957
0.170069
0.17412
0.177229
0.179501
0.181035
0.181915
0.182215
0.182079
0.181559
0.179841
0.178419
0.0676474
0.0639508
0.0664515
0.0737004
0.0845397
0.0975625
0.111372
0.124905
0.137471
0.148699
0.158446
0.166716
0.173592
0.179189
0.183635
0.187054
0.189561
0.191263
0.192256
0.192623
0.192439
0.191843
0.190881
0.188774
0.187021
0.0902715
0.086246
0.0884375
0.0952538
0.105526
0.11787
0.13092
0.143648
0.155393
0.165807
0.17476
0.182266
0.18841
0.193309
0.197091
0.199879
0.201787
0.20292
0.203373
0.203228
0.20256
0.201504
0.200099
0.1976
0.195508
0.112791
0.10844
0.110319
0.116696
0.126393
0.138051
0.150336
0.162256
0.17318
0.182779
0.190941
0.197685
0.203099
0.207303
0.210424
0.212583
0.213894
0.21446
0.214375
0.213721
0.212569
0.211054
0.209205
0.206316
0.203877
0.135177
0.130503
0.132068
0.138
0.147115
0.158082
0.169599
0.180709
0.190811
0.199599
0.206971
0.212955
0.217644
0.221156
0.223619
0.225153
0.22587
0.225872
0.225253
0.224091
0.222458
0.220485
0.218194
0.214914
0.212124
0.1574
0.152408
0.153655
0.159137
0.167667
0.177937
0.188684
0.198984
0.208267
0.216245
0.222832
0.228062
0.232028
0.234854
0.236663
0.237576
0.237703
0.237146
0.235995
0.234328
0.232218
0.229788
0.227058
0.223389
0.220245
0.179432
0.174125
0.175054
0.180082
0.188021
0.197594
0.207569
0.217062
0.225528
0.232702
0.238508
0.242988
0.246238
0.248382
0.249543
0.24984
0.249382
0.24827
0.246591
0.244424
0.241839
0.238956
0.23579
0.231735
0.228234
0.201243
0.195625
0.196235
0.200808
0.208154
0.217027
0.226233
0.23492
0.242574
0.248949
0.253981
0.257717
0.260259
0.261727
0.262245
0.261932
0.260896
0.259233
0.257032
0.254369
0.251313
0.247982
0.244383
0.239947
0.222806
0.216882
0.217173
0.221288
0.22804
0.236214
0.244652
0.252539
0.259387
0.264969
0.269235
0.272235
0.274074
0.274874
0.274757
0.273841
0.272231
0.270024
0.267307
0.264154
0.260633
0.256857
0.252831
0.248018
0.244092
0.237867
0.23784
0.241496
0.247655
0.255131
0.262806
0.269898
0.275947
0.280745
0.284252
0.286525
0.287671
0.28781
0.287066
0.285554
0.283379
0.280635
0.277408
0.27377
0.269789
0.265574
0.261127
0.255942
0.265074
0.258554
0.258208
0.261408
0.266973
0.273756
0.280673
0.286977
0.292236
0.296259
0.299017
0.300573
0.301034
0.300522
0.299159
0.29706
0.294326
0.291053
0.287323
0.283208
0.278773
0.274125
0.269264
0.285725
0.278914
0.278254
0.280996
0.285972
0.292066
0.298231
0.303757
0.308235
0.311494
0.313514
0.314362
0.314149
0.312996
0.311024
0.308346
0.305064
0.301269
0.297044
0.292459
0.287578
0.282504
0.277234
0.306018
0.298923
0.297949
0.300238
0.304628
0.310039
0.315461
0.320218
0.323927
0.326433
0.327726
0.327879
0.327003
0.325219
0.322649
0.319402
0.31558
0.311272
0.306561
0.301514
0.296195
0.290702
0.285032
0.325927
0.318555
0.31727
0.319108
0.322918
0.327653
0.332343
0.336341
0.339293
0.341059
0.341638
0.341108
0.339581
0.337179
0.334021
0.330216
0.325864
0.321054
0.315866
0.310366
0.304617
0.298713
0.29265
0.345427
0.337783
0.336191
0.337584
0.340819
0.344888
0.348855
0.352109
0.354317
0.355357
0.355236
0.354036
0.351872
0.348863
0.345129
0.340778
0.335907
0.330605
0.324949
0.319005
0.312835
0.306529
0.364493
0.356583
0.354689
0.355641
0.35831
0.361723
0.36498
0.367502
0.368982
0.36931
0.368504
0.366649
0.36386
0.360259
0.355962
0.351076
0.345698
0.339914
0.333801
0.327424
0.320842
0.314143
0.383099
0.374931
0.37274
0.373258
0.37537
0.378137
0.380698
0.382504
0.38327
0.382903
0.381428
0.378933
0.375535
0.371355
0.366508
0.361101
0.355228
0.348974
0.342415
0.335614
0.328631
0.321549
0.401223
0.392804
0.390321
0.390412
0.391976
0.394112
0.395991
0.397097
0.397167
0.396122
0.393994
0.390875
0.386884
0.382139
0.376757
0.370841
0.364486
0.357775
0.350781
0.343569
0.336194
0.328739
0.418841
0.410179
0.407409
0.407082
0.408111
0.409628
0.410842
0.411265
0.410657
0.408951
0.406187
0.402463
0.397893
0.392601
0.386697
0.380288
0.373464
0.366308
0.358892
0.351279
0.343525
0.43593
0.427033
0.423984
0.423248
0.423752
0.424667
0.425232
0.424991
0.423724
0.421376
0.417996
0.413682
0.408553
0.402728
0.39632
0.389431
0.382152
0.374565
0.36674
0.358738
0.350616
0.45247
0.443346
0.440024
0.438889
0.438883
0.43921
0.439146
0.43826
0.436354
0.433385
0.429407
0.424523
0.418851
0.412511
0.405614
0.398261
0.390542
0.382537
0.374317
0.365939
0.35746
0.468439
0.459095
0.455509
0.453986
0.453484
0.453242
0.452567
0.451057
0.448532
0.444963
0.440408
0.434973
0.428777
0.421939
0.41457
0.406769
0.398626
0.390218
0.381615
0.372875
0.364052
0.483816
0.474262
0.47042
0.46852
0.467538
0.466745
0.46548
0.463368
0.460246
0.456097
0.450986
0.445021
0.43832
0.431003
0.423179
0.414947
0.406394
0.397598
0.388627
0.379538
0.370384
0.498583
0.488827
0.484738
0.482474
0.481028
0.479703
0.47787
0.475178
0.471483
0.466776
0.461131
0.454655
0.44747
0.439692
0.431431
0.422785
0.41384
0.404672
0.395347
0.385923
0.512721
0.502772
0.498444
0.49583
0.493937
0.492101
0.489722
0.486474
0.482229
0.476989
0.470831
0.463867
0.456217
0.447998
0.439319
0.430277
0.420955
0.41143
0.401768
0.392023
0.526212
0.516079
0.511523
0.508572
0.506251
0.503926
0.501024
0.497243
0.492472
0.486722
0.480075
0.472645
0.464552
0.455913
0.446835
0.437413
0.427733
0.417868
0.407883
0.397832
0.539038
0.528732
0.523957
0.520684
0.517954
0.515162
0.511762
0.507474
0.502202
0.495967
0.488855
0.480981
0.472466
0.463427
0.453969
0.444188
0.434167
0.423978
0.413686
0.403345
0.551185
0.540714
0.535731
0.532153
0.529033
0.525796
0.521924
0.517155
0.511408
0.504713
0.497159
0.488865
0.479951
0.470532
0.460715
0.450594
0.440249
0.429755
0.419172
0.408556
0.562636
0.55201
0.546831
0.542963
0.539475
0.535818
0.531497
0.526274
0.520079
0.512949
0.50498
0.496289
0.486998
0.477223
0.467067
0.456624
0.445975
0.435191
0.424335
0.41346
0.573379
0.562608
0.557243
0.553101
0.549266
0.545214
0.540473
0.534822
0.528206
0.520669
0.512309
0.503245
0.493601
0.48349
0.473016
0.462272
0.451337
0.440283
0.429171
0.418051
0.583398
0.572492
0.566955
0.562556
0.558396
0.553973
0.548839
0.542789
0.53578
0.527862
0.519137
0.509727
0.499752
0.489328
0.478558
0.467532
0.456331
0.445025
0.433673
0.592682
0.581651
0.575953
0.571317
0.566854
0.562087
0.556588
0.550167
0.542792
0.534521
0.525458
0.515726
0.505445
0.494731
0.483686
0.4724
0.460952
0.449412
0.437838
0.601219
0.590075
0.584228
0.579371
0.57463
0.569545
0.563709
0.556947
0.549236
0.540639
0.531265
0.521236
0.510674
0.499694
0.488395
0.47687
0.465195
0.453439
0.441662
0.608999
0.597751
0.591769
0.586711
0.581714
0.576339
0.570195
0.563121
0.555103
0.54621
0.536551
0.526252
0.515434
0.50421
0.492681
0.480937
0.469055
0.457103
0.44514
0.616013
0.604672
0.598567
0.593327
0.588099
0.582462
0.576039
0.568683
0.560388
0.551226
0.541312
0.530768
0.519718
0.508275
0.496538
0.484597
0.472529
0.4604
0.44827
0.622252
0.610829
0.604614
0.599212
0.593777
0.587906
0.581234
0.573627
0.565084
0.555684
0.545541
0.53478
0.523524
0.511885
0.499963
0.487847
0.475613
0.463327
0.451048
0.627708
0.616213
0.609903
0.604358
0.598742
0.592665
0.585775
0.577947
0.569188
0.559578
0.549235
0.538283
0.526847
0.515037
0.502953
0.490683
0.478304
0.465881
0.453471
0.632374
0.62082
0.614428
0.608759
0.602988
0.596734
0.589657
0.581639
0.572694
0.562904
0.552389
0.541274
0.529683
0.517726
0.505504
0.493103
0.480599
0.468058
0.455538
0.636247
0.624643
0.618182
0.612412
0.60651
0.600108
0.592875
0.584699
0.575598
0.565659
0.555
0.54375
0.53203
0.519951
0.507613
0.495103
0.482496
0.469858
0.457245
0.63932
0.627677
0.621163
0.615311
0.609305
0.602784
0.595426
0.587123
0.577898
0.567839
0.557067
0.545708
0.533885
0.521709
0.50928
0.496683
0.483994
0.471279
0.458592
0.64159
0.629921
0.623366
0.617453
0.611369
0.60476
0.597307
0.58891
0.579592
0.569443
0.558586
0.547146
0.535247
0.522999
0.510501
0.49784
0.485091
0.472318
0.459578
0.643056
0.63137
0.62479
0.618836
0.6127
0.606032
0.598517
0.590057
0.580677
0.57047
0.559556
0.548063
0.536114
0.523819
0.511277
0.498574
0.485785
0.472975
0.4602
0.643715
0.632025
0.625432
0.619459
0.613298
0.6066
0.599054
0.590563
0.581153
0.570917
0.559976
0.548458
0.536485
0.524168
0.511605
0.498883
0.486077
0.47325
0.46046
0.643567
0.631883
0.625294
0.619322
0.613161
0.606464
0.598919
0.590429
0.58102
0.570785
0.559846
0.548331
0.536361
0.524047
0.511487
0.498768
0.485965
0.473143
0.460356
0.642614
0.630947
0.624375
0.618425
0.612291
0.605624
0.598111
0.589654
0.580278
0.570075
0.559167
0.547682
0.535741
0.523455
0.510922
0.49823
0.485451
0.472652
0.459888
0.640856
0.629218
0.622676
0.616769
0.610689
0.604082
0.596633
0.58824
0.578928
0.568788
0.55794
0.546512
0.534627
0.522394
0.509912
0.497267
0.484535
0.47178
0.459058
0.638297
0.626698
0.620201
0.614358
0.608357
0.60184
0.594485
0.586188
0.576972
0.566924
0.556166
0.544823
0.533019
0.520864
0.508456
0.495883
0.483218
0.470528
0.457867
0.63494
0.623392
0.616954
0.611195
0.605299
0.5989
0.591671
0.583503
0.574412
0.564487
0.553846
0.542617
0.530921
0.518868
0.506558
0.494078
0.481502
0.468896
0.456315
0.630789
0.619303
0.612938
0.607283
0.601518
0.595267
0.588195
0.580186
0.571252
0.56148
0.550986
0.539896
0.528333
0.516408
0.504219
0.491854
0.479388
0.466886
0.454405
0.625852
0.614438
0.60816
0.602629
0.59702
0.590946
0.584061
0.576242
0.567496
0.557905
0.547586
0.536664
0.525261
0.513487
0.501443
0.489214
0.476879
0.464501
0.452138
0.620134
0.608804
0.602625
0.597239
0.591811
0.585942
0.579275
0.571676
0.563148
0.553769
0.543652
0.532924
0.521706
0.510108
0.498231
0.486162
0.473977
0.461743
0.449517
0.613643
0.602407
0.596342
0.591119
0.585897
0.580261
0.573841
0.566493
0.558213
0.549074
0.539189
0.528681
0.517673
0.506275
0.494588
0.482699
0.470687
0.458616
0.446545
0.606389
0.595258
0.589318
0.584278
0.579286
0.573911
0.567768
0.560701
0.552698
0.543828
0.534201
0.52394
0.513166
0.501992
0.490517
0.478831
0.46701
0.455122
0.443224
0.59838
0.587364
0.581564
0.576725
0.571987
0.566899
0.561061
0.554305
0.546608
0.538035
0.528694
0.518705
0.508191
0.497264
0.486024
0.474561
0.462952
0.451266
0.439559
0.589628
0.578738
0.573089
0.56847
0.564008
0.559234
0.55373
0.547313
0.539951
0.531704
0.522674
0.512984
0.502754
0.492096
0.481113
0.469894
0.458517
0.44705
0.435553
0.424076
0.580145
0.56939
0.563905
0.559523
0.55536
0.550926
0.545784
0.539734
0.532736
0.52484
0.516149
0.506782
0.49686
0.486495
0.47579
0.464835
0.453709
0.442481
0.431211
0.419949
0.569942
0.559334
0.554023
0.549896
0.546054
0.541986
0.537232
0.531577
0.524969
0.517453
0.509126
0.500106
0.490515
0.480466
0.47006
0.45939
0.448534
0.437563
0.426536
0.415506
0.559034
0.548581
0.543458
0.539601
0.536102
0.532423
0.528084
0.522852
0.516661
0.50955
0.501612
0.492965
0.483728
0.474015
0.46393
0.453564
0.442997
0.4323
0.421534
0.410752
0.547435
0.537148
0.532222
0.528652
0.525516
0.52225
0.518352
0.513568
0.507821
0.501141
0.493617
0.485365
0.476505
0.467151
0.457406
0.447363
0.437104
0.426699
0.41621
0.405691
0.53516
0.525048
0.520331
0.517063
0.514309
0.51148
0.508047
0.503738
0.49846
0.492236
0.48515
0.477317
0.468855
0.45988
0.450495
0.440795
0.430861
0.420765
0.41057
0.40033
0.522226
0.512299
0.5078
0.504849
0.502496
0.500125
0.497182
0.493371
0.488588
0.482844
0.47622
0.468827
0.460786
0.45221
0.443205
0.433866
0.424274
0.414504
0.404619
0.394672
0.50865
0.498916
0.494645
0.492025
0.490092
0.4882
0.485769
0.482482
0.478217
0.472976
0.466837
0.459907
0.452307
0.44415
0.435544
0.426583
0.417352
0.407923
0.398363
0.388725
0.379059
0.494449
0.484918
0.480885
0.478608
0.477111
0.47572
0.473823
0.471082
0.467358
0.462645
0.457012
0.450566
0.443427
0.435709
0.42752
0.418955
0.4101
0.401029
0.391808
0.382493
0.373134
0.479643
0.470323
0.466536
0.464616
0.463572
0.462699
0.461358
0.459185
0.456025
0.45186
0.446755
0.440815
0.434156
0.426896
0.419141
0.41099
0.402527
0.393829
0.384962
0.375984
0.366945
0.464251
0.45515
0.451617
0.450066
0.44949
0.449153
0.448389
0.446806
0.444231
0.440636
0.436079
0.430663
0.424504
0.41772
0.410417
0.402695
0.39464
0.38633
0.377832
0.369203
0.360497
0.448293
0.43942
0.436149
0.434976
0.434882
0.4351
0.434931
0.433958
0.431989
0.428984
0.424996
0.420123
0.414483
0.40819
0.401356
0.394079
0.386448
0.378539
0.370423
0.362158
0.353796
0.431791
0.423153
0.420151
0.419367
0.419769
0.420557
0.421
0.420657
0.419313
0.416918
0.413517
0.409207
0.404101
0.398319
0.391969
0.385153
0.377958
0.370466
0.362745
0.354854
0.34685
0.338805
0.414765
0.406371
0.403645
0.403259
0.404168
0.405541
0.406614
0.406918
0.406219
0.404452
0.401657
0.397925
0.393372
0.388115
0.382265
0.375924
0.369181
0.362117
0.354804
0.347301
0.339665
0.331972
0.39724
0.389096
0.386652
0.386671
0.388099
0.390071
0.39179
0.392757
0.39272
0.391599
0.389427
0.386291
0.382307
0.377591
0.372255
0.366402
0.360124
0.353502
0.346608
0.339504
0.332247
0.324917
0.379236
0.371351
0.369193
0.369626
0.371583
0.374165
0.376544
0.378192
0.378833
0.378375
0.376842
0.374318
0.370917
0.366757
0.361949
0.356599
0.350797
0.344629
0.338166
0.331472
0.324604
0.317647
0.36078
0.353159
0.351293
0.352146
0.35464
0.357844
0.360897
0.363239
0.364574
0.364794
0.363915
0.362019
0.359216
0.355625
0.351359
0.346522
0.34121
0.335507
0.329486
0.323212
0.316744
0.310168
0.303478
0.341894
0.334545
0.332975
0.334252
0.337291
0.341128
0.344866
0.347916
0.349959
0.350872
0.350662
0.349406
0.347215
0.344206
0.340494
0.336184
0.331373
0.326145
0.320577
0.314733
0.308673
0.302488
0.296172
0.322604
0.315532
0.314262
0.315969
0.319559
0.324036
0.32847
0.332241
0.335005
0.336624
0.337096
0.336495
0.334928
0.332514
0.329367
0.325595
0.321294
0.316552
0.311446
0.306041
0.300399
0.294614
0.28868
0.302935
0.296147
0.295179
0.297319
0.301465
0.30659
0.31173
0.316232
0.319729
0.322067
0.323234
0.323299
0.322368
0.320559
0.317989
0.314765
0.310986
0.306739
0.302103
0.297146
0.29193
0.286552
0.281008
0.282913
0.276415
0.275752
0.278327
0.283033
0.288812
0.294665
0.299908
0.304149
0.307216
0.30909
0.309832
0.309548
0.308356
0.306372
0.303706
0.300457
0.296714
0.292558
0.288057
0.283273
0.27831
0.273164
0.267371
0.262564
0.256361
0.256005
0.259017
0.264285
0.270723
0.277296
0.283288
0.288282
0.29209
0.294679
0.29611
0.296483
0.295917
0.294529
0.292429
0.289718
0.286488
0.282819
0.27878
0.274437
0.269894
0.265153
0.259718
0.241916
0.236013
0.235965
0.239414
0.245246
0.252345
0.259643
0.266392
0.272147
0.276704
0.280019
0.282147
0.283186
0.283255
0.282471
0.280946
0.278781
0.27607
0.272895
0.269326
0.26543
0.261314
0.256983
0.251911
0.220996
0.215398
0.215658
0.219543
0.22594
0.233702
0.241729
0.249239
0.255762
0.261076
0.265125
0.267958
0.269671
0.270383
0.270211
0.269268
0.267657
0.265471
0.262796
0.259703
0.256259
0.252575
0.24866
0.243956
0.239855
0.199831
0.194542
0.195111
0.199431
0.206391
0.214816
0.223573
0.23185
0.239147
0.245223
0.250014
0.253559
0.255954
0.257315
0.257761
0.257407
0.256355
0.254702
0.252533
0.249921
0.246933
0.243685
0.240192
0.23586
0.232108
0.178449
0.173474
0.17435
0.179103
0.186623
0.19571
0.205199
0.214244
0.222319
0.229164
0.234701
0.238965
0.242048
0.244065
0.245136
0.245375
0.244889
0.243772
0.242114
0.239987
0.23746
0.234652
0.231583
0.227628
0.224223
0.156879
0.152221
0.153404
0.158585
0.166662
0.176408
0.186629
0.196443
0.205299
0.212917
0.219205
0.224193
0.227968
0.230646
0.232347
0.233185
0.233268
0.232693
0.231549
0.229911
0.227848
0.225484
0.222843
0.219266
0.216206
0.135149
0.130812
0.132299
0.137904
0.146533
0.156935
0.167884
0.178467
0.188106
0.196499
0.203542
0.209258
0.21373
0.217073
0.219407
0.220849
0.221505
0.221476
0.220849
0.219703
0.218107
0.216188
0.213976
0.21078
0.208061
0.113287
0.109274
0.111063
0.117087
0.126261
0.137313
0.148987
0.160338
0.170759
0.179928
0.18773
0.194176
0.199349
0.20336
0.206331
0.208379
0.209612
0.21013
0.210025
0.209373
0.208245
0.206771
0.20499
0.202175
0.199792
0.0913228
0.0876368
0.0897252
0.0961615
0.105872
0.117567
0.12996
0.142076
0.153279
0.163225
0.171785
0.178963
0.184839
0.189521
0.193132
0.195788
0.1976
0.198669
0.199085
0.198929
0.19827
0.197243
0.195892
0.193456
0.1914
0.0692848
0.0659283
0.0683123
0.0751534
0.0853926
0.0977213
0.110828
0.123703
0.135684
0.146406
0.155725
0.163637
0.170216
0.175571
0.179823
0.183089
0.185482
0.187102
0.188043
0.188383
0.188193
0.187611
0.186689
0.184627
0.182889
0.0472022
0.0441774
0.0468528
0.0540904
0.0648479
0.0778008
0.0916116
0.105241
0.117996
0.129491
0.139568
0.148213
0.155495
0.161523
0.166417
0.170295
0.173269
0.175442
0.176907
0.177744
0.178023
0.177884
0.177387
0.175695
0.174259
0.0251039
0.0224127
0.0253749
0.0329997
0.044264
0.0578297
0.072335
0.0867099
0.100234
0.112499
0.12333
0.132707
0.140693
0.147393
0.152929
0.157419
0.160975
0.1637
0.165689
0.167023
0.16777
0.168071
0.167997
0.166665
0.165508
0.00301898
0.000662873
0.00390678
0.0119087
0.0236671
0.0378327
0.0530211
0.0681325
0.0824183
0.0954476
0.107031
0.117136
0.125823
0.133196
0.139372
0.144473
0.14861
0.151888
0.154402
0.156231
0.157444
0.158181
0.158527
0.157544
0.156631
-0.0190237
-0.0210436
-0.0175236
-0.0091556
0.00308321
0.0178345
0.033693
0.0495301
0.0645692
0.0783566
0.0906865
0.101517
0.110903
0.118945
0.125761
0.131471
0.136189
0.140019
0.143056
0.14538
0.147057
0.148227
0.148988
0.148344
0.14762
-0.0409952
-0.0426782
-0.0388881
-0.0301659
-0.0174617
-0.00214049
0.0143736
0.0309242
0.0467067
0.0612444
0.0743151
0.0858666
0.0959472
0.104655
0.112108
0.118426
0.123723
0.128103
0.131663
0.134482
0.136621
0.138218
0.139394
0.139088
0.138462
-0.062867
-0.064213
-0.060159
-0.0510952
-0.0379418
-0.0220676
-0.0049138
0.0123364
0.0288509
0.0441298
0.057934
0.0702004
0.080971
0.0903411
0.0984276
0.10535
0.111224
0.116153
0.120235
0.123549
0.126151
0.128168
0.129755
0.129815
0.129083
-0.0856196
-0.0813086
-0.0719166
-0.0583312
-0.0419224
-0.0241464
-0.00621186
0.0110218
0.0270315
0.0415607
0.054535
0.0659898
0.0760175
0.0847335
0.0922579
0.0987056
0.104182
0.108784
0.112593
0.115661
0.118088
0.120065
0.120592
0.119332
-0.10687
-0.102309
-0.0926029
-0.078604
-0.0616805
-0.0433013
-0.0246993
-0.00676065
0.00996803
0.0252124
0.0388866
0.0510189
0.0616983
0.071039
0.0791609
0.0861796
0.0922012
0.0973224
0.101627
0.105168
0.108004
0.110346
0.111811
0.110381
-0.123134
-0.113129
-0.0987354
-0.0813181
-0.0623559
-0.0431047
-0.0244768
-0.00704223
0.00890652
0.0232713
0.0360734
0.0473978
0.0573575
0.0660722
0.073658
0.0802218
0.0858611
0.0906628
0.0946853
0.0979608
0.100657
0.102937
0.103301
-0.143757
-0.133468
-0.1187
-0.100811
-0.0812877
-0.061407
-0.0421069
-0.023981
-0.00734008
0.0077051
0.0211681
0.03313
0.0437021
0.053004
0.0611522
0.0682551
0.0744108
0.0797093
0.0842203
0.0879664
0.0910609
0.0940208
0.0960141
-0.153594
-0.138473
-0.120136
-0.100075
-0.0795855
-0.0596318
-0.0408303
-0.0235106
-0.00779642
0.00631772
0.0189086
0.0300857
0.0399683
0.0486737
0.0563113
0.0629808
0.0687749
0.0737739
0.0780042
0.081534
0.0850472
0.0881405
-0.15803
-0.139269
-0.118694
-0.0976197
-0.0770322
-0.0575723
-0.0395884
-0.0232177
-0.00846332
0.00474708
0.0165209
0.0269769
0.0362331
0.0444003
0.0515795
0.0578659
0.0633482
0.06806
0.07204
0.0760435
0.0798896
-0.177347
-0.158188
-0.137125
-0.115489
-0.0942893
-0.0741894
-0.0555571
-0.0385436
-0.0231608
-0.00934129
0.00301997
0.0140413
0.0238411
0.0325314
0.0402148
0.0469884
0.0529467
0.0581304
0.0625602
0.0670256
0.0714565
-0.17687
-0.155346
-0.133174
-0.111384
-0.0906642
-0.0714007
-0.0537591
-0.0377607
-0.0233435
-0.0104049
0.00117272
0.0115079
0.0207138
0.0288946
0.0361487
0.0425747
0.0482187
0.0530899
0.0579909
0.0629166
-0.173336
-0.150654
-0.128299
-0.10698
-0.0871033
-0.0688495
-0.0522494
-0.0372467
-0.0237418
-0.011618
-0.00075643
0.00895664
0.0176268
0.0253534
0.0322378
0.0383301
0.0436313
0.0489412
0.0542966
-0.167911
-0.145016
-0.12312
-0.102649
-0.0838003
-0.0666134
-0.0510386
-0.0369792
-0.02432
-0.0129421
-0.00273113
0.00641931
0.0146095
0.0219422
0.0284711
0.0341908
0.0398873
0.0456249
-0.184925
-0.161516
-0.139067
-0.118024
-0.0985976
-0.0808397
-0.0647069
-0.0501058
-0.0369228
-0.0250393
-0.0143406
-0.00471962
0.00392443
0.0116951
0.0186489
0.0247763
0.0308429
0.0369318
-0.177784
-0.154807
-0.133212
-0.113227
-0.0949155
-0.0782396
-0.0631105
-0.0494161
-0.0370385
-0.025863
-0.0157818
-0.00669411
0.00150405
0.00887157
0.0153965
0.0218203
0.0282417
-0.170322
-0.148199
-0.127677
-0.108828
-0.0916253
-0.0759824
-0.0617898
-0.0489304
-0.0372894
-0.026759
-0.0172382
-0.00862308
-0.000852448
0.00606057
0.012831
0.0195721
-0.162972
-0.141932
-0.122566
-0.104852
-0.0887111
-0.0740341
-0.0607057
-0.0486113
-0.037643
-0.0276999
-0.0186783
-0.0105148
-0.00322273
0.00388535
0.0109371
-0.155981
-0.136117
-0.11791
-0.101286
-0.0861393
-0.0723553
-0.05982
-0.0484256
-0.0380713
-0.0286536
-0.0201071
-0.0124447
-0.00500702