/*--------------------------------*- C++ -*----------------------------------*\
  =========                 |
  \\      /  F ield         | OpenFOAM: The Open Source CFD Toolbox
   \\    /   O peration     | Website:  https://openfoam.org
    \\  /    A nd           | Version:  7
     \\/     M anipulation  |
\*---------------------------------------------------------------------------*/
FoamFile
{
    version     2.0;
    format      ascii;
    class       volScalarField;
    location    "280";
    object      p;
}
// * * * * * * * * * * * * * * * * * * * * * * * * * * * * * * * * * * * * * //

dimensions      [0 2 -2 0 0 0 0];

internalField   nonuniform List<scalar> 
4575
(
-0.138295
-0.148196
-0.142767
-0.125231
-0.104095
-0.0865416
-0.0751928
-0.0692479
-0.0687618
-0.0749909
-0.0862916
-0.0963431
-0.0983792
-0.0907135
-0.0782277
-0.0664501
-0.0580382
-0.0530734
-0.0524817
-0.0555711
-0.059276
-0.0594372
-0.0559293
-0.050164
-0.134997
-0.144786
-0.139704
-0.1228
-0.102376
-0.085514
-0.0747906
-0.0694022
-0.0694825
-0.076328
-0.0882194
-0.0986909
-0.100842
-0.092943
-0.0799569
-0.0675683
-0.0585741
-0.0530587
-0.0519105
-0.0544602
-0.0577354
-0.0577122
-0.0543002
-0.0488665
-0.131655
-0.141338
-0.13661
-0.120339
-0.100625
-0.0844522
-0.0743532
-0.0695226
-0.0701714
-0.0776344
-0.0901188
-0.101016
-0.103292
-0.0951649
-0.0816778
-0.0686741
-0.0590953
-0.0530323
-0.0513346
-0.0533543
-0.0562084
-0.056004
-0.0526832
-0.0475712
-0.128274
-0.137857
-0.133487
-0.11785
-0.0988431
-0.0833555
-0.0738791
-0.0696072
-0.0708256
-0.0789064
-0.0919853
-0.103315
-0.105724
-0.0973771
-0.0833898
-0.0697676
-0.0596024
-0.0529954
-0.0507556
-0.0522552
-0.0546967
-0.054314
-0.0510792
-0.0462787
-0.124862
-0.134348
-0.130339
-0.115335
-0.0970307
-0.0822237
-0.0733672
-0.0696539
-0.0714423
-0.0801399
-0.0938147
-0.105583
-0.108137
-0.0995776
-0.085092
-0.070849
-0.0600962
-0.0529491
-0.0501751
-0.0511647
-0.0532022
-0.0526437
-0.0494892
-0.0449895
-0.121426
-0.130817
-0.127171
-0.112796
-0.095189
-0.0810566
-0.0728164
-0.0696608
-0.0720185
-0.0813314
-0.0956027
-0.107816
-0.110525
-0.101764
-0.0867835
-0.0719184
-0.0605774
-0.0528947
-0.0495946
-0.0500845
-0.0517264
-0.0509945
-0.0479141
-0.0437041
-0.117971
-0.127269
-0.123985
-0.110235
-0.0933189
-0.079854
-0.0722256
-0.069626
-0.0725514
-0.0824771
-0.0973452
-0.11001
-0.112887
-0.103934
-0.0884636
-0.0729761
-0.0610468
-0.0528331
-0.0490153
-0.0490163
-0.0502712
-0.0493677
-0.0463549
-0.042423
-0.114505
-0.123708
-0.120784
-0.107656
-0.0914218
-0.078616
-0.0715941
-0.069548
-0.0730383
-0.0835734
-0.0990379
-0.112161
-0.115218
-0.106087
-0.0901313
-0.0740224
-0.0615051
-0.0527656
-0.0484387
-0.0479613
-0.0488378
-0.0477646
-0.0448124
-0.0411468
-0.111035
-0.120141
-0.117574
-0.105059
-0.0894987
-0.0773428
-0.0709212
-0.0694249
-0.0734766
-0.0846168
-0.100677
-0.114265
-0.117516
-0.108218
-0.091786
-0.0750574
-0.0619533
-0.0526931
-0.047866
-0.0469211
-0.0474277
-0.0461864
-0.0432876
-0.0398761
-0.107565
-0.116571
-0.114355
-0.102449
-0.0875512
-0.0760347
-0.0702062
-0.0692555
-0.0738637
-0.085604
-0.102259
-0.116319
-0.119776
-0.110328
-0.0934269
-0.0760816
-0.062392
-0.0526166
-0.0472984
-0.0458969
-0.0460422
-0.0446342
-0.0417814
-0.0386115
-0.113004
-0.111133
-0.0998263
-0.0855808
-0.0746923
-0.0694487
-0.0690383
-0.0741975
-0.0865317
-0.103779
-0.118318
-0.121997
-0.112413
-0.0950532
-0.0770951
-0.0628221
-0.0525373
-0.046737
-0.0448899
-0.0446825
-0.0431092
-0.0402946
-0.0373535
-0.109445
-0.107911
-0.097195
-0.0835891
-0.0733162
-0.0686485
-0.0687721
-0.0744755
-0.0873969
-0.105235
-0.120259
-0.124175
-0.114471
-0.096664
-0.0780984
-0.0632444
-0.052456
-0.0461828
-0.0439011
-0.0433497
-0.0416124
-0.0388281
-0.0361029
-0.105898
-0.104691
-0.0945575
-0.0815779
-0.0719071
-0.0678054
-0.0684559
-0.0746959
-0.0881966
-0.106622
-0.122139
-0.126306
-0.1165
-0.0982586
-0.0790916
-0.0636596
-0.0523737
-0.0456367
-0.0429315
-0.0420447
-0.0401447
-0.0373828
-0.0348603
-0.102368
-0.101477
-0.0919165
-0.079549
-0.0704662
-0.0669196
-0.0680889
-0.0748566
-0.0889282
-0.107938
-0.123954
-0.128388
-0.118499
-0.0998362
-0.0800752
-0.0640687
-0.0522913
-0.0450997
-0.0419818
-0.0407684
-0.038707
-0.0359594
-0.0336262
-0.0988598
-0.0982725
-0.0892749
-0.0775045
-0.0689944
-0.0659913
-0.0676702
-0.074956
-0.0895891
-0.10918
-0.125701
-0.130419
-0.120466
-0.101396
-0.0810494
-0.0644723
-0.0522097
-0.0445726
-0.041053
-0.0395215
-0.0373001
-0.0345587
-0.0324013
-0.0953782
-0.0950809
-0.0866356
-0.0754464
-0.0674932
-0.0650207
-0.0671993
-0.0749925
-0.0901769
-0.110345
-0.127377
-0.132395
-0.122397
-0.102937
-0.0820144
-0.0648713
-0.0521296
-0.0440561
-0.0401455
-0.0383047
-0.0359248
-0.0331817
-0.0311864
-0.0919277
-0.0919052
-0.0840016
-0.0733768
-0.0659638
-0.0640086
-0.0666759
-0.0749649
-0.0906895
-0.111429
-0.12898
-0.134314
-0.124293
-0.104459
-0.0829706
-0.0652665
-0.052052
-0.0435508
-0.0392599
-0.0371187
-0.0345818
-0.0318289
-0.0299821
-0.0885129
-0.0887489
-0.0813757
-0.071298
-0.0644079
-0.0629556
-0.0660997
-0.0748719
-0.0911251
-0.112432
-0.130506
-0.136173
-0.12615
-0.10596
-0.0839181
-0.0656586
-0.0519775
-0.0430575
-0.0383968
-0.0359637
-0.0332716
-0.0305012
-0.028789
-0.0851381
-0.0856157
-0.0787613
-0.0692124
-0.0628273
-0.0618626
-0.0654708
-0.0747127
-0.0914819
-0.11335
-0.131954
-0.13797
-0.127966
-0.10744
-0.0848571
-0.0660483
-0.051907
-0.0425767
-0.0375564
-0.0348402
-0.0319949
-0.0291992
-0.0276079
-0.0818077
-0.08249
-0.0761613
-0.0671222
-0.0612237
-0.0607307
-0.0647893
-0.0744865
-0.0917584
-0.114182
-0.133322
-0.139702
-0.129741
-0.108899
-0.0857879
-0.0664364
-0.0518411
-0.0421088
-0.036739
-0.0337483
-0.030752
-0.0279237
-0.0264394
-0.0785264
-0.0793727
-0.0735786
-0.0650299
-0.0595992
-0.0595611
-0.0640557
-0.0741929
-0.0919534
-0.114925
-0.134606
-0.141367
-0.131471
-0.110334
-0.0867106
-0.0668236
-0.0517804
-0.0416544
-0.0359448
-0.0326884
-0.0295433
-0.0266753
-0.0252843
-0.0752993
-0.0769697
-0.0710168
-0.062938
-0.0579558
-0.0583553
-0.0632704
-0.0738315
-0.0920658
-0.11558
-0.135806
-0.142964
-0.133156
-0.111745
-0.0876251
-0.0672106
-0.0517258
-0.0412137
-0.035174
-0.0316603
-0.0283691
-0.0254544
-0.0241432
-0.0721235
-0.0738863
-0.0684771
-0.0608488
-0.0562959
-0.0571147
-0.0624342
-0.0734023
-0.0920949
-0.116143
-0.13692
-0.144491
-0.134794
-0.113132
-0.0885316
-0.067598
-0.0516777
-0.0407873
-0.0344264
-0.0306642
-0.0272298
-0.0242626
-0.0230167
-0.0690031
-0.0708549
-0.0659651
-0.0587647
-0.0546218
-0.0558411
-0.0615481
-0.0729054
-0.0920402
-0.116614
-0.137946
-0.145945
-0.136383
-0.114493
-0.08943
-0.0679865
-0.0516368
-0.0403754
-0.0337022
-0.0296998
-0.0261254
-0.023116
-0.0219057
-0.0659442
-0.0678972
-0.0634831
-0.0566879
-0.0529358
-0.0545363
-0.0606132
-0.0723411
-0.0919011
-0.116993
-0.138884
-0.147326
-0.137921
-0.115827
-0.0903203
-0.0683766
-0.0516036
-0.0399783
-0.0330012
-0.0287671
-0.0250559
-0.0219777
-0.0208106
-0.0629505
-0.065004
-0.0610347
-0.0546211
-0.0512406
-0.0532024
-0.0596308
-0.0717101
-0.0916778
-0.117279
-0.139732
-0.148631
-0.139407
-0.117134
-0.0912024
-0.0687689
-0.0515788
-0.0395962
-0.0323233
-0.0278656
-0.0240214
-0.0208672
-0.0197324
-0.0600255
-0.0621745
-0.0586234
-0.0525666
-0.0495387
-0.0518415
-0.0586023
-0.0710132
-0.0913701
-0.117472
-0.140489
-0.149859
-0.14084
-0.118411
-0.092076
-0.0691639
-0.0515627
-0.0392294
-0.0316682
-0.026995
-0.0230218
-0.0197865
-0.0186715
-0.0571719
-0.0594073
-0.0562527
-0.050527
-0.0478327
-0.0504557
-0.0575294
-0.0702512
-0.0909785
-0.117571
-0.141156
-0.151009
-0.142218
-0.11966
-0.092941
-0.0695621
-0.0515559
-0.0388782
-0.0310356
-0.0261551
-0.0220569
-0.0187377
-0.0176289
-0.0543923
-0.056701
-0.0539266
-0.0485046
-0.0461254
-0.0490476
-0.056414
-0.0694254
-0.0905035
-0.117576
-0.141732
-0.152081
-0.143539
-0.120877
-0.093797
-0.069964
-0.051559
-0.0385425
-0.0304254
-0.0253451
-0.0211265
-0.0177215
-0.0166052
-0.0516886
-0.0540559
-0.0516493
-0.0465019
-0.0444196
-0.0476195
-0.0552581
-0.0685373
-0.0899458
-0.117488
-0.142216
-0.153072
-0.144802
-0.122062
-0.0946437
-0.0703699
-0.0515722
-0.0382227
-0.0298371
-0.0245647
-0.0202304
-0.0167377
-0.0156011
-0.0490625
-0.051474
-0.0494251
-0.0445213
-0.0427181
-0.0461741
-0.0540637
-0.0675883
-0.0893064
-0.117307
-0.142609
-0.153983
-0.146006
-0.123215
-0.0954806
-0.07078
-0.0515961
-0.0379189
-0.0292704
-0.0238132
-0.0193682
-0.0157865
-0.0146171
-0.0465156
-0.0489576
-0.0472586
-0.0425653
-0.0410236
-0.044714
-0.0528331
-0.0665802
-0.0885862
-0.117035
-0.142911
-0.154813
-0.147149
-0.124333
-0.0963072
-0.0711947
-0.0516311
-0.0376312
-0.0287249
-0.0230899
-0.0185396
-0.0148671
-0.013654
-0.0440497
-0.046509
-0.0451548
-0.0406364
-0.0393391
-0.043242
-0.0515688
-0.065515
-0.0877867
-0.116671
-0.143123
-0.15556
-0.14823
-0.125415
-0.0971233
-0.0716148
-0.051678
-0.0373601
-0.0282007
-0.0223944
-0.0177443
-0.0139799
-0.0127126
-0.0416651
-0.0441298
-0.0431194
-0.0387376
-0.0376679
-0.0417611
-0.0502734
-0.0643948
-0.0869093
-0.116217
-0.143244
-0.156225
-0.149247
-0.126462
-0.0979291
-0.072041
-0.0517376
-0.0371058
-0.0276971
-0.0217258
-0.0169817
-0.0131248
-0.0117936
-0.0393566
-0.0418166
-0.0411553
-0.0368711
-0.0360127
-0.0402743
-0.0489496
-0.063222
-0.0859556
-0.115674
-0.143275
-0.156807
-0.150202
-0.127473
-0.0987226
-0.0724701
-0.0518067
-0.0368657
-0.0272119
-0.0210814
-0.0162493
-0.0123007
-0.010897
-0.0371198
-0.0395614
-0.0392585
-0.0350352
-0.0343746
-0.0387832
-0.0475993
-0.0619987
-0.0849278
-0.115044
-0.143222
-0.157315
-0.151099
-0.128444
-0.0994954
-0.072894
-0.0518798
-0.0366365
-0.0267425
-0.0204583
-0.015544
-0.0115044
-0.0100211
-0.0349847
-0.0373883
-0.0374411
-0.0332358
-0.0327565
-0.0372906
-0.0462251
-0.0607272
-0.0838282
-0.114331
-0.143084
-0.157738
-0.151921
-0.129361
-0.100245
-0.0733216
-0.0519693
-0.0364291
-0.0262987
-0.0198662
-0.014876
-0.0107449
-0.00917204
-0.0330203
-0.0353941
-0.0358084
-0.0315311
-0.0311924
-0.0358203
-0.0448445
-0.0594147
-0.0826514
-0.11351
-0.142807
-0.157991
-0.15259
-0.130215
-0.101019
-0.0738204
-0.0521354
-0.0362867
-0.0259113
-0.0193352
-0.0142818
-0.0100619
-0.00838202
-0.0310981
-0.0335095
-0.0345055
-0.0299666
-0.02973
-0.0344116
-0.0434892
-0.0580765
-0.0813818
-0.112529
-0.142318
-0.158039
-0.153144
-0.131104
-0.101902
-0.0744335
-0.0523882
-0.0361994
-0.0255585
-0.0188369
-0.0137339
-0.00943877
-0.00764609
-0.0285763
-0.0309023
-0.0327037
-0.0280523
-0.028097
-0.0328611
-0.0419869
-0.0566526
-0.0801379
-0.111735
-0.142263
-0.158725
-0.154266
-0.132206
-0.102684
-0.0747744
-0.0523391
-0.0358593
-0.0249903
-0.0181041
-0.0129008
-0.00850492
-0.00664573
-0.0227486
-0.0199425
-0.0210932
-0.0223376
-0.0274397
-0.0366898
-0.0522792
-0.0780062
-0.112852
-0.146446
-0.164413
-0.159663
-0.135357
-0.10391
-0.0745438
-0.0512857
-0.0344416
-0.023239
-0.0158649
-0.0100991
-0.00512787
-0.0030746
-0.0170259
-0.0158123
-0.0159523
-0.0176427
-0.0231364
-0.0328774
-0.0492378
-0.0759412
-0.111814
-0.146177
-0.164519
-0.159022
-0.135201
-0.103157
-0.0732031
-0.0495707
-0.0324851
-0.0210752
-0.013573
-0.0078163
-0.00282193
-0.000798115
-0.0114723
-0.0105146
-0.0111436
-0.0134834
-0.0194833
-0.02979
-0.0467136
-0.0736852
-0.109605
-0.144348
-0.163554
-0.158618
-0.134511
-0.102032
-0.0716364
-0.047712
-0.030469
-0.0189449
-0.0113747
-0.00564523
-0.000607225
0.00141217
-0.00625525
-0.00576192
-0.00656556
-0.00929537
-0.0156195
-0.026274
-0.0435521
-0.0707013
-0.106909
-0.142493
-0.162495
-0.157632
-0.133079
-0.100281
-0.0696772
-0.0456519
-0.0283768
-0.0168244
-0.00923767
-0.00353108
0.00158493
0.00367161
-0.00165037
-0.0015514
-0.00239913
-0.00529757
-0.0117048
-0.0224534
-0.0398866
-0.0672221
-0.103924
-0.140215
-0.16048
-0.155526
-0.130716
-0.0978735
-0.067333
-0.0434007
-0.0262168
-0.0147189
-0.00717211
-0.00153777
0.00361613
0.00582161
0.00238825
0.00221645
0.00130005
-0.0016401
-0.00797316
-0.0186503
-0.0360694
-0.0634389
-0.100343
-0.136844
-0.157193
-0.152235
-0.127399
-0.0947962
-0.0645962
-0.0409634
-0.0239988
-0.0126377
-0.0051856
0.000323098
0.00548561
0.00780465
0.00592064
0.0055522
0.00455736
0.00165583
-0.00450769
-0.0150033
-0.0322246
-0.0592795
-0.0958651
-0.132227
-0.152628
-0.147734
-0.123106
-0.0910424
-0.0614694
-0.0383501
-0.0217349
-0.0105908
-0.00328239
0.00205598
0.00719788
0.00960945
0.00898934
0.0084801
0.00741692
0.00461225
-0.00130916
-0.0115196
-0.0283162
-0.0546398
-0.0904597
-0.126417
-0.146746
-0.141985
-0.117831
-0.0866234
-0.0579642
-0.0355734
-0.0194381
-0.00858831
-0.00146686
0.00366267
0.00874875
0.0112327
0.0116358
0.0110384
0.00992515
0.00726066
0.00164038
-0.00818044
-0.0243162
-0.0495403
-0.0842048
-0.119409
-0.139498
-0.134981
-0.111597
-0.0815694
-0.0541026
-0.0326493
-0.0171221
-0.0066407
0.000255147
0.00514333
0.0101352
0.0126696
0.0138991
0.0132675
0.0121284
0.0096349
0.00435654
-0.00498831
-0.0202609
-0.0440588
-0.0771319
-0.111179
-0.130882
-0.126757
-0.10446
-0.0759316
-0.0499179
-0.0295973
-0.0148011
-0.00475845
0.00187691
0.0064978
0.011355
0.0139129
0.0158143
0.0152037
0.0140645
0.0117677
0.00685083
-0.00196207
-0.0162023
-0.0382414
-0.0692527
-0.101755
-0.120957
-0.117398
-0.0965059
-0.0697821
-0.045455
-0.0264402
-0.0124894
-0.00295116
0.00339157
0.00772553
0.0124058
0.0149541
0.0174155
0.0168771
0.0157811
0.0136874
0.00913437
0.000888714
-0.0121625
-0.0321105
-0.0606218
-0.0912391
-0.10985
-0.107036
-0.0878576
-0.0632138
-0.0407701
-0.0232043
-0.0102006
-0.00122693
0.00479292
0.00882583
0.0132858
0.0157843
0.0187383
0.0183124
0.0173017
0.0154167
0.0112235
0.00357765
-0.00813726
-0.0257016
-0.0513494
-0.0798066
-0.0977577
-0.095854
-0.0786681
-0.0563373
-0.0359291
-0.0199193
-0.00794742
0.000408312
0.00607645
0.00979874
0.0139942
0.0163961
0.0198212
0.0195335
0.0186497
0.0169795
0.0131449
0.00614006
-0.00410956
-0.0190684
-0.041592
-0.0676972
-0.0849466
-0.084096
-0.0691211
-0.0492768
-0.0310055
-0.0166176
-0.0057415
0.00195126
0.00724044
0.0106462
0.0145337
0.0167852
0.0207044
0.0205676
0.0198501
0.018408
0.0149417
0.00863358
-4.68326e-05
-0.0122718
-0.0315499
-0.0552194
-0.0717506
-0.0720442
-0.0594193
-0.0421646
-0.026077
-0.0133341
-0.00359318
0.0034015
0.00828676
0.0113734
0.0149117
0.0169521
0.0214264
0.0214458
0.0209296
0.0197456
0.0166809
0.0111461
0.00410711
-0.00537925
-0.021468
-0.0427474
-0.0585511
-0.0599981
-0.0497713
-0.0351332
-0.0212217
-0.0101047
-0.00151163
0.00476154
0.00922142
0.0119894
0.0151431
0.0169054
0.022021
0.0222002
0.0219122
0.0210381
0.0184502
0.0137947
0.00842698
0.00152497
-0.0116366
-0.0306878
-0.0457352
-0.0482633
-0.0403833
-0.0283088
-0.0165132
-0.0069652
0.000495073
0.00603641
0.0100546
0.0125078
0.01525
0.0166661
0.0225136
0.022859
0.022818
0.0223165
0.0203272
0.0166947
0.0129758
0.008323
-0.00237901
-0.0194412
-0.0336662
-0.0371219
-0.0314427
-0.0218038
-0.0120177
-0.00394953
0.00241967
0.00723319
0.0108
0.0129466
0.0152621
0.0162681
0.0229203
0.0234404
0.023661
0.0235901
0.0223387
0.0198878
0.0177306
0.014829
0.00597671
-0.00934212
-0.0226348
-0.0268047
-0.0231065
-0.0157114
-0.00778966
-0.00108818
0.00425552
0.00836024
0.0114743
0.0133274
0.0152178
0.0157606
0.0232508
0.0239518
0.0244439
0.0248244
0.0244158
0.0232513
0.02248
0.0207551
0.0131532
-0.000594666
-0.0128204
-0.0174764
-0.0154944
-0.0101024
-0.00387025
0.00159339
0.00599627
0.00942619
0.0120953
0.0136734
0.0151624
0.0152114
0.023509
0.0243923
0.0251521
0.0259636
0.0263993
0.0264767
0.0268123
0.0257522
0.0189879
0.00674678
-0.00430087
-0.00923554
-0.00868546
-0.00502412
-0.000286366
0.00407602
0.00763565
0.0104387
0.0126809
0.0140077
0.0151409
0.0147025
0.0236949
0.0247545
0.0257656
0.0269565
0.028114
0.0291996
0.0302881
0.0295492
0.0234689
0.0127401
0.00291471
-0.00212857
-0.00271977
-0.000500158
0.00294891
0.00634761
0.00916766
0.0114032
0.0132459
0.0143502
0.0151922
0.0143231
0.0238074
0.0250275
0.026257
0.0277468
0.0294233
0.0311697
0.0326633
0.0320828
0.0267073
0.0174869
0.0088548
0.0038431
0.00239986
0.00346771
0.00583488
0.00840323
0.0105868
0.0123228
0.0138007
0.014714
0.015342
0.0141545
0.0238447
0.0251999
0.0266034
0.0282972
0.0302715
0.0323406
0.0339712
0.0334947
0.0288751
0.021094
0.0135821
0.00873044
0.00670821
0.00689706
0.00838076
0.0102445
0.0118889
0.0131977
0.0143515
0.0151048
0.0155956
0.014246
0.0238067
0.0252647
0.0267921
0.0285978
0.0306848
0.032825
0.0344194
0.0340293
0.0301625
0.0236886
0.01721
0.0126321
0.0102693
0.00982032
0.010603
0.0118784
0.0130718
0.0140254
0.0148999
0.0155228
0.0159419
0.0146038
0.0236943
0.025221
0.0268221
0.0286616
0.0307315
0.0327889
0.0342533
0.0339378
0.0307624
0.025432
0.0198951
0.0156759
0.0131645
0.0122794
0.0125225
0.0133157
0.0141361
0.0148016
0.015443
0.0159616
0.0163572
0.0151872
0.0235096
0.0250728
0.0267027
0.0285169
0.030491
0.0323872
0.0336838
0.0334317
0.0308569
0.0265007
0.0218093
0.0180014
0.0154822
0.0143208
0.0141625
0.0145692
0.0150846
0.0155219
0.0159749
0.0164095
0.0168081
0.0159144
0.0232572
0.0248287
0.0264508
0.0281994
0.0300373
0.031743
0.0328676
0.0326706
0.0306008
0.0270586
0.0231157
0.0197414
0.0173084
0.0159921
0.0155474
0.0156525
0.0159224
0.0161819
0.0164883
0.0168524
0.0172611
0.016686
0.0229443
0.0245001
0.0260867
0.0277458
0.0294324
0.0309463
0.0319135
0.0317662
0.0301122
0.0272436
0.0239538
0.0210128
0.0187202
0.0173391
0.0167017
0.0165791
0.0166554
0.0167783
0.0169743
0.0172777
0.0176914
0.017414
0.0225797
0.0240996
0.0256313
0.0271897
0.0287252
0.0300614
0.0308939
0.0307922
0.0294778
0.0271623
0.0244341
0.0219139
0.0197855
0.0184046
0.0176493
0.0173623
0.0172901
0.0173091
0.0174235
0.0176743
0.0180819
0.01804
0.0221718
0.023642
0.0251063
0.0265605
0.0279539
0.0291329
0.029855
0.0297959
0.0287577
0.0268932
0.0246407
0.0225304
0.0205601
0.0192277
0.0184132
0.0180146
0.0178326
0.0177739
0.017828
0.0180322
0.0184201
0.0185314
0.0217296
0.0231412
0.0245314
0.0258832
0.0271472
0.0281919
0.0288261
0.0288068
0.027993
0.0264935
0.0246318
0.0229235
0.0210873
0.0198437
0.0190156
0.0185484
0.018289
0.0181732
0.0181818
0.018344
0.0187006
0.0189062
0.0212615
0.0226099
0.0239236
0.025178
0.026327
0.0272592
0.0278252
0.0278431
0.0272123
0.0260069
0.0244396
0.0226456
0.0213923
0.0202852
0.0194775
0.0189754
0.0186654
0.0185085
0.0184821
0.0186054
0.0189232
0.0191712
0.0207761
0.0220591
0.0232972
0.024461
0.0255094
0.0263487
0.0268629
0.0269159
0.0264353
0.0254731
0.0241836
0.0227438
0.0215821
0.0205869
0.0198189
0.0193069
0.0189678
0.0187823
0.0187286
0.0188156
0.0190903
0.019341
0.0202817
0.0214986
0.0226631
0.0237447
0.0247063
0.0254696
0.0259452
0.0260311
0.0256752
0.0249158
0.0238708
0.0227227
0.0216655
0.0207737
0.0200576
0.019554
0.0192024
0.0189983
0.0189226
0.0189757
0.0192049
0.019433
0.0197842
0.0209365
0.0220314
0.0230389
0.0239259
0.0246275
0.025075
0.0251916
0.0249402
0.0243489
0.023508
0.0225891
0.0216542
0.0208654
0.0202091
0.0197267
0.0193753
0.0191606
0.0190674
0.019089
0.0192718
0.0194636
0.0197217
0.0192892
0.0203797
0.0214097
0.0223509
0.0231741
0.0238259
0.0242532
0.0243984
0.0242348
0.0237828
0.0231046
0.0222784
0.0215604
0.0208791
0.0202871
0.0198347
0.0194928
0.0192738
0.0191666
0.0191599
0.0192977
0.0194465
0.0196683
0.0188016
0.0198337
0.0208039
0.0216859
0.0224548
0.0230663
0.0234797
0.023651
0.0235615
0.023227
0.0226932
0.0220384
0.0214191
0.0208313
0.0203039
0.0198869
0.0195611
0.0193427
0.019225
0.019193
0.0192879
0.0193927
0.0195682
0.0183256
0.0193028
0.020218
0.0210479
0.0217703
0.0223492
0.0227529
0.0229483
0.0229218
0.0226863
0.022277
0.0217624
0.0212381
0.0207345
0.0202703
0.0198913
0.0195861
0.0193722
0.0192469
0.0191932
0.0192488
0.0193079
0.0194365
0.0178643
0.0187903
0.0196553
0.0204392
0.0211219
0.0216741
0.0220714
0.0222887
0.0223158
0.0221637
0.0218598
0.0214598
0.0210256
0.0205991
0.0201952
0.0198553
0.0195736
0.0193673
0.019237
0.0191651
0.0191859
0.0192054
0.0192851
0.0174202
0.0182989
0.0191178
0.0198615
0.02051
0.0210402
0.0214334
0.0216701
0.0217431
0.0216613
0.0214458
0.0211411
0.0207896
0.0204335
0.0200866
0.0197857
0.019529
0.0193325
0.0191997
0.0191131
0.0191033
0.0190883
0.0191221
0.0169958
0.017831
0.0186117
0.019316
0.0199345
0.0204464
0.0208368
0.0210908
0.0212028
0.0211802
0.0210391
0.0208147
0.0205372
0.0202451
0.0199514
0.0196884
0.0194572
0.0192724
0.0191392
0.0190411
0.0190051
0.0189602
0.0189531
0.0165922
0.017387
0.0181287
0.0188013
0.0193946
0.0198913
0.0202798
0.0205487
0.0206939
0.0207213
0.0206429
0.0204864
0.0202744
0.0200401
0.0197955
0.0195688
0.019363
0.019191
0.0190594
0.0189527
0.0188948
0.0188246
0.0187817
0.0162104
0.0169679
0.0176747
0.0183183
0.0188894
0.0193732
0.0197604
0.0200422
0.0202156
0.020285
0.0202596
0.020161
0.0200064
0.0198238
0.0196242
0.0194317
0.0192508
0.0190923
0.0189638
0.0188512
0.0187753
0.018684
0.0186106
0.0158509
0.0165743
0.0172498
0.0178673
0.0184182
0.0188907
0.0192768
0.0195697
0.0197668
0.0198717
0.0198912
0.0198419
0.0197374
0.0196008
0.0194421
0.0192814
0.0191243
0.0189798
0.0188556
0.0187394
0.0186492
0.0185407
0.0184417
0.0155143
0.0162062
0.0168537
0.0174472
0.01798
0.0184423
0.0188273
0.0191297
0.0193469
0.0194815
0.019539
0.0195318
0.0194708
0.019375
0.019253
0.0191218
0.0189873
0.0188567
0.018738
0.0186202
0.0185188
0.0183966
0.0182765
0.0152009
0.0158638
0.0164857
0.0170578
0.0175742
0.0180268
0.0184101
0.0187208
0.0189551
0.0191147
0.0192037
0.0192328
0.0192097
0.0191498
0.0190607
0.0189565
0.018843
0.0187262
0.0186137
0.0184958
0.018386
0.0182532
0.0181161
0.0149106
0.015547
0.0161454
0.0166984
0.0172001
0.0176434
0.0180233
0.0183421
0.0185908
0.0187714
0.0188874
0.018947
0.0189565
0.018928
0.0188682
0.0187884
0.0186945
0.018591
0.0184852
0.0183686
0.0182529
0.0181121
0.0179613
0.0146434
0.0152553
0.0158323
0.0163679
0.0168568
0.017292
0.0176641
0.0179933
0.0182536
0.0184517
0.0185904
0.0186759
0.0187133
0.0187122
0.0186783
0.0186206
0.0185445
0.0184538
0.0183549
0.0182407
0.018121
0.0179743
0.0178131
0.0143991
0.0149884
0.0155459
0.0160658
0.0165436
0.016975
0.017362
0.0176775
0.0179441
0.0181558
0.0183133
0.0184207
0.0184821
0.0185047
0.0184935
0.0184555
0.0183957
0.0183169
0.018225
0.018114
0.017992
0.0178413
0.0176721
0.0141772
0.014746
0.0152857
0.0157911
0.0162582
0.0166827
0.0170618
0.0173858
0.01766
0.0178835
0.0180568
0.0181827
0.0182645
0.0183076
0.0183161
0.0182956
0.0182505
0.0181828
0.0180978
0.0179903
0.0178673
0.0177142
0.0175391
0.0139775
0.0145276
0.0150511
0.0155433
0.0160003
0.016418
0.0167931
0.0171208
0.0174016
0.0176349
0.0178214
0.017963
0.018062
0.0181226
0.0181483
0.0181431
0.0181111
0.0180536
0.0179753
0.0178716
0.0177486
0.0175942
0.0174148
0.0137997
0.014333
0.0148419
0.015322
0.0157699
0.0161815
0.0165537
0.0168832
0.017169
0.0174105
0.0176079
0.0177625
0.0178761
0.0179516
0.0179919
0.0180001
0.0179797
0.0179313
0.0178593
0.0177595
0.0176372
0.0174824
0.0173003
0.0136436
0.0141618
0.0146577
0.0151271
0.0155668
0.0159728
0.0163425
0.0166728
0.0169626
0.0172106
0.017417
0.0175824
0.0177081
0.0177961
0.0178489
0.0178686
0.0178582
0.017818
0.0177517
0.0176558
0.0175347
0.0173801
0.0171962
0.0135088
0.014014
0.0144985
0.0149585
0.0153909
0.0157921
0.0161594
0.0164901
0.0167827
0.017036
0.0172496
0.0174238
0.0175595
0.0176579
0.0177211
0.0177504
0.0177486
0.0177155
0.0176544
0.0175622
0.0174425
0.0172885
0.0171037
0.0133955
0.0138894
0.0143642
0.0148162
0.0152424
0.0156393
0.0160045
0.0163353
0.01663
0.0168873
0.0171067
0.0172879
0.0174316
0.0175385
0.0176102
0.0176475
0.0176529
0.0176258
0.0175691
0.0174802
0.017362
0.0172089
0.0170236
0.0133036
0.0137883
0.0142552
0.0147006
0.0151217
0.0155151
0.0158784
0.016209
0.0165053
0.0167656
0.0169894
0.017176
0.017326
0.0174395
0.0175179
0.0175616
0.0175727
0.0175505
0.0174976
0.0174115
0.0172948
0.0171425
0.0169572
0.0132336
0.0137112
0.0141719
0.0146122
0.0150293
0.0154199
0.0157817
0.0161121
0.0164094
0.0166719
0.0168989
0.0170895
0.0172441
0.0173626
0.0174461
0.0174946
0.01751
0.0174916
0.0174415
0.0173576
0.0172421
0.0170907
0.0169055
0.0131858
0.0136586
0.014115
0.0145519
0.0149662
0.0153549
0.0157157
0.0160458
0.0163438
0.0166077
0.0168368
0.0170301
0.0171877
0.0173095
0.0173963
0.0174481
0.0174664
0.0174506
0.0174026
0.0173202
0.0172056
0.0170548
0.0168697
0.0131613
0.0136315
0.0140858
0.0145208
0.0149338
0.0153215
0.0156817
0.0160117
0.01631
0.0165746
0.0168047
0.0169994
0.0171586
0.017282
0.0173705
0.017424
0.0174438
0.0174293
0.0173823
0.0173008
0.0171866
0.0170362
0.0168512
0.0198734
0.020078
0.0202751
0.020463
0.02064
0.020805
0.0209564
0.0210931
0.0212139
0.0213177
0.0214028
0.0214686
0.0215128
0.0215346
0.0215314
0.0215028
0.0214458
0.02136
0.0212431
0.021095
0.0209144
0.020702
0.0204572
0.0198843
0.0200906
0.0202889
0.0204778
0.0206557
0.0208212
0.020973
0.0211102
0.0212312
0.0213353
0.0214207
0.0214868
0.0215313
0.0215535
0.0215506
0.0215221
0.0214651
0.0213792
0.0212618
0.0211131
0.0209315
0.0207181
0.0204721
0.0199057
0.0201151
0.020316
0.0205068
0.0206861
0.0208527
0.0210053
0.0211431
0.0212647
0.0213694
0.0214554
0.021522
0.0215672
0.0215903
0.0215877
0.0215595
0.0215026
0.0214163
0.0212981
0.0211481
0.0209647
0.0207492
0.0205009
0.0199378
0.0201516
0.0203558
0.0205493
0.0207305
0.0208986
0.0210523
0.021191
0.0213133
0.0214187
0.0215055
0.0215731
0.021619
0.0216425
0.0216413
0.0216139
0.0215571
0.0214704
0.021351
0.021199
0.021013
0.0207942
0.0205426
0.019981
0.0202001
0.0204085
0.0206051
0.0207886
0.0209583
0.0211132
0.0212527
0.0213759
0.0214822
0.02157
0.0216388
0.021686
0.0217111
0.021711
0.0216845
0.0216279
0.0215406
0.0214197
0.021265
0.0210756
0.0208523
0.0205961
0.0200358
0.020261
0.020474
0.0206739
0.0208598
0.0210311
0.0211871
0.0213275
0.0214515
0.0215588
0.0216478
0.0217181
0.021767
0.0217941
0.0217955
0.0217703
0.0217142
0.0216263
0.0215035
0.0213456
0.0211515
0.0209226
0.0206605
0.0201031
0.0203348
0.0205526
0.0207558
0.0209438
0.0211164
0.0212732
0.0214144
0.0215391
0.0216474
0.0217378
0.02181
0.021861
0.0218906
0.0218942
0.0218708
0.0218154
0.0217271
0.021602
0.02144
0.0212403
0.0210043
0.0207347
0.0201838
0.0204222
0.0206446
0.0208507
0.0210403
0.0212137
0.0213709
0.0215123
0.0216375
0.0217469
0.0218387
0.0219132
0.021967
0.0219998
0.0220063
0.0219854
0.0219311
0.0218425
0.0217148
0.0215479
0.0213413
0.0210965
0.0208179
0.0202791
0.0205238
0.0207502
0.0209585
0.021149
0.0213224
0.0214793
0.0216204
0.0217457
0.021856
0.0219495
0.0220268
0.022084
0.0221208
0.022131
0.0221135
0.0220611
0.0219723
0.0218418
0.021669
0.0214541
0.0211985
0.0209089
0.0203902
0.0206404
0.0208699
0.0210792
0.0212694
0.0214417
0.0215973
0.0217374
0.0218624
0.0219735
0.0220689
0.0221495
0.0222109
0.0222528
0.0222678
0.0222548
0.022205
0.0221165
0.0219827
0.021803
0.0215781
0.0213095
0.0210067
0.0205182
0.0207728
0.0210039
0.0212127
0.0214011
0.0215709
0.0217239
0.0218622
0.0219863
0.022098
0.0221955
0.0222801
0.0223466
0.0223948
0.0224161
0.0224091
0.0223629
0.0222752
0.0221379
0.02195
0.021713
0.0214288
0.02111
0.0206644
0.0209216
0.0211524
0.0213587
0.0215433
0.0217088
0.021858
0.0219932
0.0221159
0.022228
0.022328
0.0224173
0.02249
0.0225462
0.0225754
0.022576
0.0225349
0.0224486
0.0223075
0.0221101
0.0218585
0.0215555
0.0212176
0.0208299
0.0210875
0.0213155
0.0215168
0.0216953
0.0218545
0.021998
0.0221291
0.0222495
0.0223619
0.0224647
0.0225596
0.0226399
0.0227059
0.0227451
0.0227556
0.0227211
0.0226373
0.022492
0.0222833
0.0220141
0.0216886
0.021328
0.0210159
0.0212709
0.021493
0.0216863
0.0218559
0.0220064
0.0221424
0.022268
0.0223854
0.022498
0.0226039
0.0227054
0.0227948
0.0228729
0.0229247
0.0229476