/*--------------------------------*- C++ -*----------------------------------*\
  =========                 |
  \\      /  F ield         | OpenFOAM: The Open Source CFD Toolbox
   \\    /   O peration     | Website:  https://openfoam.org
    \\  /    A nd           | Version:  7
     \\/     M anipulation  |
\*---------------------------------------------------------------------------*/
FoamFile
{
    version     2.0;
    format      ascii;
    class       volVectorField;
    location    "280";
    object      U;
}
// * * * * * * * * * * * * * * * * * * * * * * * * * * * * * * * * * * * * * //

dimensions      [0 1 -1 0 0 0 0];

internalField   nonuniform List<vector> 
4575
(
(0.710891 -0.316095 -1.76703e-22)
(0.724999 -0.101159 -6.31731e-23)
(0.75917 0.113133 1.09243e-22)
(0.800571 0.280453 1.12289e-23)
(0.838626 0.383117 -5.36688e-23)
(0.868002 0.430246 1.86529e-22)
(0.882512 0.450033 7.6677e-23)
(0.874891 0.469341 3.5351e-24)
(0.844227 0.486464 3.66476e-23)
(0.802003 0.469398 -2.62802e-23)
(0.766199 0.386055 1.47025e-22)
(0.749107 0.23685 2.5527e-23)
(0.753667 0.0542999 4.19386e-23)
(0.777174 -0.117499 -2.10563e-22)
(0.81104 -0.24741 -9.89966e-23)
(0.841319 -0.329402 -5.11487e-24)
(0.852577 -0.378966 -4.65348e-23)
(0.839113 -0.409238 -6.72921e-23)
(0.808083 -0.409986 7.18909e-23)
(0.776707 -0.36067 -6.93902e-23)
(0.758977 -0.250501 2.15902e-23)
(0.76214 -0.103024 2.78328e-23)
(0.782712 0.049481 2.71099e-23)
(0.808848 0.175735 -3.0458e-23)
(0.707611 -0.31628 -2.23055e-22)
(0.72074 -0.103712 -7.07301e-22)
(0.754426 0.109314 3.00165e-22)
(0.79602 0.276541 -3.81046e-22)
(0.834995 0.379872 1.23743e-22)
(0.86562 0.428168 2.4583e-22)
(0.881224 0.449653 -1.499e-22)
(0.874376 0.470923 1.02638e-22)
(0.844364 0.489498 -6.48602e-23)
(0.802993 0.472648 7.28512e-23)
(0.768107 0.388312 1.99222e-22)
(0.751568 0.237526 -1.19515e-22)
(0.756164 0.0533939 2.44332e-22)
(0.779274 -0.119548 -2.2892e-22)
(0.812566 -0.249728 2.58558e-22)
(0.842407 -0.330886 1.62287e-22)
(0.853404 -0.378859 8.57465e-23)
(0.839734 -0.407647 5.55411e-23)
(0.808443 -0.40782 -2.09645e-22)
(0.776752 -0.359034 -1.09595e-23)
(0.758884 -0.250087 -2.90596e-22)
(0.762126 -0.103901 5.29588e-23)
(0.782743 0.0478874 -1.08438e-22)
(0.808696 0.17442 -2.39537e-22)
(0.704519 -0.316611 3.19719e-22)
(0.716634 -0.10649 3.43302e-22)
(0.749807 0.105254 8.05213e-23)
(0.791578 0.272403 4.53448e-22)
(0.831459 0.376434 -7.09357e-22)
(0.863322 0.425942 1.60407e-22)
(0.880024 0.449163 -2.31751e-22)
(0.873969 0.472419 -1.3437e-22)
(0.844644 0.492466 -4.39285e-22)
(0.804159 0.475879 3.30541e-22)
(0.770188 0.390634 -5.37347e-22)
(0.754182 0.23835 6.85357e-23)
(0.758799 0.0526767 2.66389e-22)
(0.781498 -0.121418 -3.43327e-22)
(0.814196 -0.251915 5.3491e-22)
(0.843589 -0.332292 -2.54008e-22)
(0.854334 -0.378707 4.83454e-22)
(0.84047 -0.406032 2.56411e-22)
(0.808936 -0.405655 1.78449e-22)
(0.776938 -0.357438 6.95521e-24)
(0.758921 -0.249757 4.36952e-22)
(0.762217 -0.104877 -5.1805e-22)
(0.782859 0.0462129 1.02247e-22)
(0.808624 0.173052 3.47798e-22)
(0.70162 -0.317076 -7.63015e-22)
(0.712683 -0.109481 7.14887e-22)
(0.745316 0.100959 -9.77769e-22)
(0.787245 0.26804 -1.14493e-21)
(0.828016 0.372803 1.75819e-21)
(0.861107 0.423568 -1.09799e-21)
(0.878909 0.44856 4.07081e-22)
(0.873666 0.473821 4.70224e-22)
(0.845067 0.495361 -6.12073e-22)
(0.805495 0.47909 9.90283e-22)
(0.772437 0.393023 -2.68625e-22)
(0.756945 0.239325 7.66546e-22)
(0.761571 0.0521519 -3.97205e-22)
(0.783847 -0.123105 1.42801e-21)
(0.815931 -0.253968 1.55261e-22)
(0.844865 -0.333621 -2.93981e-22)
(0.855365 -0.378514 -5.78105e-22)
(0.84132 -0.404395 -6.02145e-22)
(0.809559 -0.403491 -9.81654e-23)
(0.777263 -0.355883 7.27793e-23)
(0.759084 -0.249508 -1.77069e-22)
(0.762411 -0.105949 6.12388e-22)
(0.783057 0.0444588 -5.74552e-23)
(0.808631 0.171629 1.04048e-22)
(0.698918 -0.317662 6.51824e-22)
(0.708891 -0.112678 -3.17825e-22)
(0.740953 0.0964344 7.82142e-23)
(0.783021 0.263456 1.76321e-22)
(0.824665 0.368979 -7.91778e-22)
(0.858972 0.421041 1.3999e-21)
(0.877879 0.447837 4.04174e-22)
(0.873467 0.475122 6.54249e-23)
(0.845629 0.498178 4.32325e-22)
(0.806999 0.482279 -9.78501e-22)
(0.774847 0.395481 -1.28674e-22)
(0.759852 0.240454 -9.18182e-22)
(0.764476 0.051823 -8.83944e-22)
(0.78632 -0.124607 -1.43701e-21)
(0.817771 -0.255886 -1.12409e-21)
(0.846235 -0.334875 1.27653e-21)
(0.856498 -0.378282 4.85319e-22)
(0.842284 -0.402739 9.05166e-23)
(0.81031 -0.401329 1.44684e-22)
(0.777723 -0.354366 -1.86542e-22)
(0.75937 -0.249337 6.49347e-22)
(0.762704 -0.107115 -4.67096e-22)
(0.783335 0.0426265 3.56281e-22)
(0.808716 0.170151 3.73735e-22)
(0.696418 -0.318357 -7.6131e-22)
(0.705258 -0.116069 -1.39174e-21)
(0.736719 0.0916862 6.65106e-23)
(0.778906 0.258651 9.10833e-22)
(0.821404 0.364962 -8.8357e-23)
(0.856914 0.418359 -2.45224e-22)
(0.876929 0.44699 -1.14171e-21)
(0.873369 0.476315 -4.14516e-24)
(0.846329 0.500911 1.17507e-22)
(0.808665 0.485445 -1.23958e-21)
(0.777414 0.398012 6.95756e-22)
(0.7629 0.241742 -2.50826e-22)
(0.767513 0.051693 1.45719e-22)
(0.788918 -0.12592 1.78473e-21)
(0.819718 -0.257668 -8.22432e-23)
(0.847699 -0.336054 -5.27985e-22)
(0.857731 -0.378015 -2.32255e-22)
(0.84336 -0.401068 6.74257e-22)
(0.811187 -0.399172 4.86367e-24)
(0.778317 -0.352887 -2.96418e-23)
(0.759778 -0.249242 2.6379e-22)
(0.763095 -0.108372 -1.01972e-21)
(0.783691 0.0407173 -2.67906e-22)
(0.808879 0.168617 -8.70962e-22)
(0.694125 -0.319148 2.25269e-22)
(0.701787 -0.119644 3.34631e-22)
(0.732616 0.0867202 7.18929e-22)
(0.774898 0.25363 -1.21625e-21)
(0.81823 0.360751 2.7279e-21)
(0.854932 0.41552 8.4518e-22)
(0.876057 0.446013 1.57994e-23)
(0.873369 0.477394 -8.68835e-22)
(0.847162 0.503555 5.23055e-22)
(0.810487 0.488585 1.01265e-21)
(0.78013 0.400615 1.05437e-21)
(0.766082 0.24319 -2.67703e-22)
(0.770678 0.0517647 -1.0897e-21)
(0.791639 -0.127043 -7.16702e-22)
(0.821771 -0.259313 -6.99846e-23)
(0.849255 -0.33716 -1.02449e-21)
(0.859065 -0.377716 1.15628e-22)
(0.844547 -0.399383 -2.82502e-22)
(0.812187 -0.39702 -5.16608e-22)
(0.779041 -0.351444 2.71981e-22)
(0.760304 -0.249217 -5.28677e-22)
(0.763579 -0.109715 9.48018e-22)
(0.784123 0.0387322 7.19822e-23)
(0.809117 0.167026 8.09674e-22)
(0.692044 -0.32002 -7.40338e-22)
(0.698481 -0.123392 -6.74746e-22)
(0.728645 0.0815427 1.76299e-21)
(0.770998 0.248394 7.13443e-22)
(0.815143 0.356347 -2.14335e-21)
(0.853022 0.41252 4.32773e-22)
(0.875259 0.444902 -1.88721e-22)
(0.873464 0.478352 2.02747e-21)
(0.848126 0.506104 -3.44209e-21)
(0.81246 0.491698 6.30497e-22)
(0.78299 0.403292 -1.89683e-21)
(0.769393 0.244801 3.19955e-21)
(0.773968 0.0520406 2.66903e-22)
(0.794484 -0.127973 1.50916e-21)
(0.823933 -0.260818 5.18786e-22)
(0.850904 -0.338194 -1.46999e-22)
(0.860498 -0.377388 2.6564e-22)
(0.845845 -0.397688 1.40857e-22)
(0.813306 -0.394873 5.90181e-22)
(0.779893 -0.350036 -6.27193e-22)
(0.760945 -0.249262 -5.32617e-22)
(0.764154 -0.111143 1.40696e-22)
(0.784629 0.0366725 -1.27421e-21)
(0.809431 0.165377 2.57873e-22)
(0.690181 -0.320958 1.43153e-21)
(0.695341 -0.127301 7.67844e-22)
(0.724806 0.0761604 -3.19576e-21)
(0.767205 0.242946 1.4812e-22)
(0.812138 0.35175 -7.35294e-23)
(0.851181 0.409359 -8.8772e-22)
(0.874532 0.443649 3.14181e-22)
(0.87365 0.479182 -3.03402e-22)
(0.849217 0.508552 7.55717e-22)
(0.814579 0.494782 -2.29365e-21)
(0.785988 0.406046 2.04713e-21)
(0.772828 0.246577 8.29212e-23)
(0.777378 0.0525228 -2.69943e-21)
(0.79745 -0.128707 8.14249e-22)
(0.826203 -0.262182 4.16085e-21)
(0.852645 -0.339156 -2.63755e-22)
(0.862028 -0.377033 -1.08088e-21)
(0.847251 -0.395985 1.2e-21)
(0.814543 -0.392733 -4.23598e-22)
(0.780868 -0.34866 -3.3859e-22)
(0.761697 -0.249371 7.47214e-22)
(0.764816 -0.112653 1.45415e-22)
(0.785206 0.0345393 1.75616e-21)
(0.809818 0.163668 -3.59262e-22)
(0.688542 -0.321948 -2.50537e-21)
(0.692369 -0.13136 5.21842e-22)
(0.721099 0.07058 3.33341e-21)
(0.763517 0.237289 -1.07939e-21)
(0.809215 0.346961 7.03777e-22)
(0.849406 0.406032 2.92329e-22)
(0.873872 0.442252 -4.19629e-23)
(0.873925 0.479878 -7.63623e-22)
(0.850429 0.510895 -7.29932e-22)
(0.816836 0.497835 1.82789e-21)
(0.789116 0.408875 4.50307e-22)
(0.776382 0.248519 1.79681e-21)
(0.780905 0.0532132 -2.922e-21)
(0.800537 -0.129243 1.02174e-21)
(0.828581 -0.263403 -2.07092e-21)
(0.854476 -0.340047 9.33588e-22)
(0.863653 -0.376655 -3.1433e-22)
(0.848765 -0.394276 1.54764e-21)
(0.815894 -0.3906 -1.91244e-21)
(0.781962 -0.347315 -7.85599e-22)
(0.762558 -0.249542 1.14839e-22)
(0.765564 -0.11424 -1.9527e-22)
(0.785852 0.0323336 -5.44226e-22)
(0.810278 0.1619 -3.64514e-22)
(0.689569 -0.135554 1.62875e-21)
(0.717526 0.0648091 6.64445e-22)
(0.759933 0.231428 1.29582e-21)
(0.80637 0.34198 -1.76659e-21)
(0.847693 0.402538 1.18878e-21)
(0.873275 0.440704 -1.36077e-21)
(0.874284 0.480432 1.29554e-22)
(0.851758 0.513126 4.39091e-22)
(0.819225 0.500854 -7.13858e-22)
(0.792368 0.41178 -3.58215e-22)
(0.780048 0.25063 -2.53516e-21)
(0.784543 0.0541132 1.75448e-21)
(0.803742 -0.12958 -4.37607e-22)
(0.831068 -0.264479 -9.04712e-22)
(0.856398 -0.340867 -1.92106e-21)
(0.865372 -0.376255 -3.09152e-22)
(0.850384 -0.392564 -6.61063e-23)
(0.817355 -0.388475 1.39156e-21)
(0.783173 -0.346 1.46934e-21)
(0.763525 -0.249771 7.83106e-23)
(0.766393 -0.115902 -6.75833e-23)
(0.786565 0.0300564 -6.81027e-22)
(0.810808 0.160071 2.21796e-22)
(0.686944 -0.139872 -1.12724e-21)
(0.714087 0.0588553 9.8588e-22)
(0.756453 0.225365 -2.0465e-21)
(0.803601 0.336807 -6.3577e-23)
(0.84604 0.398875 1.35563e-21)
(0.872737 0.439001 1.16141e-22)
(0.874724 0.480839 4.41538e-22)
(0.853199 0.51524 1.52722e-22)
(0.82174 0.503837 2.69873e-21)
(0.795738 0.414761 -2.09465e-22)
(0.78382 0.25291 -1.29893e-21)
(0.788289 0.0552241 -7.83656e-22)
(0.807063 -0.129715 3.21685e-22)
(0.833664 -0.265408 -2.02604e-21)
(0.858408 -0.341617 -8.20467e-22)
(0.867182 -0.375837 -2.18422e-22)
(0.852107 -0.39085 -2.18016e-21)
(0.818925 -0.386357 1.9933e-21)
(0.784496 -0.344713 -2.31107e-21)
(0.764593 -0.250054 -7.03797e-22)
(0.7673 -0.117635 5.92284e-22)
(0.787342 0.0277088 -5.53371e-22)
(0.811406 0.158179 3.31582e-22)
(0.684497 -0.144298 5.23256e-22)
(0.710782 0.0527267 1.62717e-21)
(0.753075 0.219104 7.28629e-23)
(0.800906 0.331444 -1.30721e-21)
(0.844441 0.39504 1.08738e-21)
(0.872253 0.437138 -1.95741e-21)
(0.87524 0.481091 1.4095e-21)
(0.854747 0.517232 -2.21972e-21)
(0.824374 0.506781 4.58915e-22)
(0.799219 0.417818 4.01459e-21)
(0.787693 0.255359 -5.03318e-21)
(0.792136 0.0565466 1.47958e-22)
(0.810497 -0.129646 -2.60326e-21)
(0.836368 -0.266188 5.13298e-21)
(0.860507 -0.342296 -1.94027e-22)
(0.86908 -0.375402 -1.15606e-21)
(0.853933 -0.389137 9.93208e-22)
(0.8206 -0.384248 1.12795e-22)
(0.785926 -0.343451 -7.72432e-23)
(0.765759 -0.250389 8.50175e-22)
(0.768283 -0.119438 -9.16542e-22)
(0.788181 0.0252917 1.3248e-21)
(0.812071 0.156224 -1.00298e-22)
(0.682234 -0.148819 5.22585e-21)
(0.707613 0.0464322 -1.33852e-21)
(0.749798 0.212651 2.1002e-22)
(0.798281 0.325893 4.35814e-22)
(0.842894 0.391033 -5.45278e-23)
(0.87182 0.43511 -2.04124e-21)
(0.875827 0.481184 -7.57823e-22)
(0.856395 0.519096 4.89759e-22)
(0.82712 0.509683 -1.34471e-21)
(0.802803 0.42095 -5.11123e-21)
(0.791659 0.257977 3.99518e-21)
(0.79608 0.0580816 2.22796e-21)
(0.814042 -0.129374 5.95746e-21)
(0.83918 -0.266818 -2.09199e-21)
(0.862693 -0.342903 3.74417e-22)
(0.871065 -0.374953 5.19442e-22)
(0.85586 -0.387428 -8.26556e-22)
(0.822378 -0.382148 5.99294e-23)
(0.78746 -0.342214 4.37834e-22)
(0.767019 -0.250772 -7.72102e-22)
(0.769338 -0.121306 8.18739e-22)
(0.789078 0.0228064 -6.56773e-22)
(0.8128 0.154204 1.30439e-22)
(0.680158 -0.153419 -6.56769e-21)
(0.704581 0.039981 -5.53287e-21)
(0.74662 0.206008 3.35154e-21)
(0.795725 0.320153 1.18678e-21)
(0.841394 0.386851 -2.88316e-21)
(0.871433 0.432913 3.813e-21)
(0.876481 0.48111 7.94929e-23)
(0.858138 0.520827 1.27887e-21)
(0.829971 0.512539 -1.02049e-21)
(0.806485 0.424154 9.44987e-22)
(0.795713 0.260765 1.0623e-21)
(0.800115 0.0598295 1.13155e-21)
(0.817694 -0.128895 -3.22963e-21)
(0.842099 -0.267295 -2.11102e-21)
(0.864965 -0.343439 2.91367e-21)
(0.873133 -0.374491 1.35888e-21)
(0.857884 -0.385723 1.91816e-22)
(0.824255 -0.380055 -2.50631e-22)
(0.789092 -0.340998 2.05878e-21)
(0.768369 -0.251199 6.27863e-22)
(0.770461 -0.123236 -4.1383e-22)
(0.790031 0.0202536 6.67631e-22)
(0.813591 0.15212 -4.77859e-22)
(0.678277 -0.158083 1.15956e-21)
(0.701686 0.0333829 3.17291e-21)
(0.743542 0.199182 2.67325e-21)
(0.793234 0.314228 -3.35564e-22)
(0.839938 0.382493 1.41911e-21)
(0.871086 0.430544 -2.05931e-21)
(0.877196 0.480863 -1.87687e-21)
(0.859969 0.522419 3.01036e-21)
(0.832919 0.515347 1.47342e-23)
(0.810256 0.427431 3.5365e-21)
(0.799848 0.263723 -7.01449e-21)
(0.804236 0.0617902 -1.90247e-21)
(0.821449 -0.128211 -4.48222e-22)
(0.845125 -0.267617 2.15759e-21)
(0.867322 -0.343901 -1.23651e-21)
(0.875281 -0.37402 -1.77552e-21)
(0.860005 -0.384026 1.23202e-21)
(0.826229 -0.377972 -6.47997e-22)
(0.790817 -0.339802 -7.50585e-22)
(0.769806 -0.251666 -9.14313e-22)
(0.771651 -0.125225 1.08763e-22)
(0.791038 0.0176346 -5.99294e-22)
(0.814442 0.149969 6.70742e-22)
(0.676597 -0.162794 -2.03892e-21)
(0.698933 0.0266484 1.05366e-21)
(0.740562 0.192178 -8.74235e-22)
(0.790806 0.308119 -5.23497e-22)
(0.83852 0.377958 3.9636e-22)
(0.870776 0.427997 -2.72418e-21)
(0.877968 0.480439 2.9155e-22)
(0.861882 0.523867 1.52912e-21)
(0.835958 0.518101 -2.50604e-21)
(0.814111 0.430776 5.67461e-21)
(0.804057 0.266848 -6.27339e-21)
(0.808436 0.0639635 4.15235e-21)
(0.825304 -0.127319 4.41697e-21)
(0.848255 -0.267782 -5.29335e-22)
(0.869764 -0.34429 1.87695e-21)
(0.877506 -0.373539 7.31442e-23)
(0.862219 -0.382339 4.19711e-22)
(0.828298 -0.375897 -9.71644e-22)
(0.792632 -0.338624 -3.43085e-22)
(0.771326 -0.252171 -7.66602e-22)
(0.772903 -0.12727 -7.07236e-22)
(0.792096 0.0149504 3.75926e-22)
(0.81535 0.147751 1.07003e-21)
(0.675125 -0.167535 1.33809e-22)
(0.696322 0.0197889 -3.65673e-21)
(0.73768 0.185002 2.40269e-21)
(0.788438 0.301828 4.90546e-22)
(0.837137 0.373246 2.93692e-21)
(0.870496 0.425269 1.0463e-21)
(0.87879 0.479832 -2.47003e-21)
(0.86387 0.525165 -1.10731e-21)
(0.83908 0.520799 -1.79057e-21)
(0.818042 0.434189 -1.54121e-21)
(0.808334 0.270141 1.24498e-21)
(0.81271 0.066349 -3.04945e-21)
(0.829254 -0.126219 1.92831e-21)
(0.85149 -0.267788 -4.47593e-21)
(0.872289 -0.344604 2.66024e-22)
(0.879804 -0.373052 -2.23794e-22)
(0.864524 -0.380663 -1.87994e-21)
(0.83046 -0.37383 1.31673e-21)
(0.794531 -0.337461 8.0687e-22)
(0.772923 -0.25271 -2.09655e-22)
(0.774214 -0.129368 1.41099e-22)
(0.793201 0.0122022 8.05005e-22)
(0.816312 0.145464 -1.59966e-21)
(0.673872 -0.17229 -2.91385e-21)
(0.693858 0.012814 -7.17668e-22)
(0.734895 0.17766 -2.75869e-21)
(0.786129 0.295359 3.34459e-21)
(0.835784 0.368355 -3.78735e-22)
(0.870243 0.422357 -1.4342e-21)
(0.879657 0.479035 2.1742e-21)
(0.865926 0.526308 -1.68941e-21)
(0.842278 0.523435 1.36563e-21)
(0.822042 0.437666 7.56622e-21)
(0.812672 0.273599 -3.71454e-21)
(0.817051 0.0689463 5.36531e-21)
(0.833295 -0.124912 1.81852e-21)
(0.854826 -0.267634 -1.28874e-21)
(0.874896 -0.344841 3.21447e-21)
(0.882173 -0.372558 -5.09527e-25)
(0.866915 -0.379001 3.19455e-22)
(0.832713 -0.371772 -1.57515e-22)
(0.79651 -0.336312 -6.23422e-22)
(0.774593 -0.253279 -3.14385e-22)
(0.775582 -0.131516 6.33272e-22)
(0.79435 0.00939105 -9.20359e-24)
(0.817326 0.143109 1.95081e-22)
(0.672846 -0.177041 9.68374e-22)
(0.691545 0.00574397 4.60423e-21)
(0.732208 0.170158 -5.28494e-21)
(0.783874 0.288713 2.30714e-21)
(0.834458 0.363286 -2.2067e-21)
(0.870011 0.419258 6.18023e-22)
(0.880564 0.478045 -1.71471e-21)
(0.868043 0.527291 5.01712e-21)
(0.845545 0.526005 -2.86502e-21)
(0.826105 0.441204 -8.18899e-21)
(0.817065 0.277221 -1.627e-21)
(0.821454 0.0717544 -1.42045e-22)
(0.837422 -0.123396 5.26935e-21)
(0.858262 -0.267318 1.74421e-21)
(0.877586 -0.344999 -8.42292e-22)
(0.88461 -0.37206 -2.59839e-22)
(0.869391 -0.377355 -1.50798e-21)
(0.835055 -0.369722 2.51673e-22)
(0.798565 -0.335174 9.35021e-22)
(0.776332 -0.253876 4.71851e-22)
(0.777003 -0.133711 2.24999e-22)
(0.795542 0.00651831 4.89657e-22)
(0.818389 0.140683 5.62325e-23)
(0.672058 -0.181771 -1.25088e-21)
(0.689388 -0.00133605 1.73088e-21)
(0.72962 0.162506 -3.06608e-21)
(0.781673 0.281895 1.51211e-21)
(0.833155 0.358038 1.79835e-21)
(0.869795 0.415968 2.50693e-21)
(0.881503 0.476857 2.13192e-22)
(0.870215 0.528108 -4.30485e-21)
(0.848874 0.528504 3.69476e-21)
(0.830223 0.444798 -3.20465e-22)
(0.821507 0.281005 -1.68932e-21)
(0.825913 0.0747716 3.48061e-21)
(0.84163 -0.121672 -8.40884e-21)
(0.861796 -0.266837 -6.00902e-21)
(0.880355 -0.345077 3.74461e-21)
(0.887111 -0.371558 1.20823e-21)
(0.871947 -0.375727 -7.3609e-22)
(0.837485 -0.36768 -7.58275e-23)
(0.800691 -0.334045 -1.51579e-21)
(0.778135 -0.254497 8.12596e-22)
(0.778474 -0.135948 -6.29612e-22)
(0.796772 0.00358525 2.49085e-22)
(0.819498 0.138187 -8.48923e-22)
(0.671525 -0.186461 1.09646e-21)
(0.687395 -0.00853454 1.10498e-21)
(0.727125 0.154707 4.26689e-21)
(0.779523 0.274908 1.50635e-22)
(0.831869 0.352613 1.95222e-22)
(0.869589 0.412486 -2.69406e-21)
(0.88247 0.475465 2.24964e-21)
(0.872434 0.528753 4.93188e-22)
(0.852257 0.530928 2.31834e-21)
(0.834391 0.448446 7.37463e-23)
(0.82599 0.284948 1.98843e-22)
(0.830421 0.0779964 -4.61504e-21)
(0.845915 -0.119741 3.29413e-21)
(0.865426 -0.266191 1.26409e-21)
(0.883204 -0.345072 -4.02422e-21)
(0.889673 -0.371052 3.94876e-23)
(0.87458 -0.374118 1.98748e-21)
(0.840001 -0.365646 -3.66392e-22)
(0.802885 -0.332922 4.38197e-22)
(0.779998 -0.255138 2.43055e-22)
(0.779991 -0.138226 1.77647e-21)
(0.798038 0.000593534 -1.42188e-21)
(0.820649 0.135619 -6.13591e-23)
(0.671248 -0.191098 -7.271e-22)
(0.685571 -0.0158841 -7.06583e-22)
(0.724734 0.146774 3.1153e-21)
(0.777423 0.267756 -5.12072e-21)
(0.830598 0.347011 -1.27665e-21)
(0.869389 0.408809 -7.24667e-22)
(0.883457 0.473865 -1.85087e-21)
(0.874692 0.529222 -2.65415e-21)
(0.855687 0.533269 3.00307e-21)
(0.838602 0.452143 -6.84071e-21)
(0.830509 0.289047 5.16226e-21)
(0.834973 0.0814277 6.14635e-22)
(0.850272 -0.117603 1.5771e-21)
(0.869148 -0.265378 2.48793e-21)
(0.886132 -0.344982 2.60091e-21)
(0.892294 -0.370543 -3.41197e-21)
(0.877284 -0.372532 -2.39457e-22)
(0.8426 -0.36362 1.14634e-22)
(0.805143 -0.331802 -4.64049e-22)
(0.781914 -0.255796 -7.25782e-22)
(0.781553 -0.140541 -3.44301e-22)
(0.799338 -0.00245374 1.79599e-22)
(0.821841 0.13298 9.44514e-22)
(0.671239 -0.195666 3.26859e-22)
(0.683927 -0.0232411 1.45731e-21)
(0.72245 0.138717 -1.18981e-21)
(0.775371 0.260445 2.47343e-21)
(0.829337 0.341233 1.71254e-21)
(0.86919 0.404936 8.83736e-22)
(0.884458 0.472054 2.42702e-21)
(0.876983 0.529509 -1.67095e-21)
(0.859157 0.535524 4.93348e-22)
(0.842848 0.455883 -4.80027e-21)
(0.835057 0.293299 2.90492e-21)
(0.839563 0.0850638 -5.98082e-21)
(0.854696 -0.115258 -4.85536e-22)
(0.872959 -0.264396 4.75732e-21)
(0.889136 -0.344806 -4.93681e-21)
(0.89497 -0.370031 2.73133e-22)
(0.880057 -0.370971 1.98435e-21)
(0.845282 -0.361602 -1.38731e-21)
(0.807464 -0.330684 9.49221e-22)
(0.783878 -0.256468 -1.51347e-22)
(0.783155 -0.14289 1.09777e-21)
(0.800669 -0.00555782 -1.67109e-21)
(0.823068 0.130267 1.06564e-21)
(0.67151 -0.200146 4.86653e-21)
(0.682472 -0.0306173 -2.04463e-21)
(0.720273 0.130544 -3.59785e-21)
(0.773366 0.252979 -1.69674e-22)
(0.828082 0.335282 -1.81596e-22)
(0.868985 0.400865 -1.85479e-21)
(0.885467 0.470028 -5.91457e-22)
(0.879299 0.529608 -6.05978e-22)
(0.86266 0.537685 3.69956e-21)
(0.847124 0.459662 1.00585e-21)
(0.839629 0.297701 3.44114e-21)
(0.844186 0.0889023 -8.65357e-21)
(0.859182 -0.112709 4.65503e-21)
(0.876858 -0.263244 -3.70437e-21)
(0.892216 -0.344539 5.12921e-21)
(0.897698 -0.369515 -1.09206e-21)
(0.882893 -0.369436 4.6861e-23)
(0.848044 -0.359592 -5.63392e-22)
(0.809844 -0.329564 3.05273e-22)
(0.785885 -0.257151 -6.21812e-22)
(0.784795 -0.145271 -1.30433e-21)
(0.802027 -0.00871586 1.91067e-21)
(0.82433 0.127482 9.39049e-22)
(0.672066 -0.204526 6.91402e-23)
(0.68122 -0.0380095 1.75194e-21)
(0.71821 0.122266 -1.73278e-21)
(0.771408 0.245365 -5.4597e-22)
(0.826832 0.329158 1.34403e-21)
(0.868771 0.396595 1.14665e-21)
(0.886477 0.467784 -2.23481e-22)
(0.881633 0.529515 -1.53091e-21)
(0.866189 0.539746 -1.60938e-21)
(0.851423 0.463473 -6.5867e-21)
(0.844218 0.302249 1.92671e-21)
(0.848836 0.0929407 7.23302e-21)
(0.863725 -0.109954 -5.84145e-21)
(0.880839 -0.261921 4.69771e-22)
(0.89537 -0.344179 -1.68605e-21)
(0.900477 -0.368995 -1.35932e-21)
(0.885789 -0.367929 3.03526e-21)
(0.850885 -0.357591 1.40971e-21)
(0.812282 -0.32844 -1.22146e-21)
(0.78793 -0.257842 1.13541e-21)
(0.786469 -0.14768 -1.37202e-21)
(0.803412 -0.0119289 -1.30698e-21)
(0.825622 0.124624 -8.59938e-22)
(0.672914 -0.208792 -8.51861e-22)
(0.680183 -0.0453893 3.25225e-21)
(0.716266 0.113897 5.23862e-23)
(0.769497 0.237608 2.59818e-22)
(0.825581 0.322865 -1.61942e-21)
(0.868542 0.392126 2.87121e-21)
(0.887482 0.465318 -1.32303e-22)
(0.883978 0.529224 -5.15237e-22)
(0.869738 0.541701 1.46442e-21)
(0.85574 0.467312 4.53539e-22)
(0.848818 0.306938 1.73886e-21)
(0.853508 0.0971764 -2.29237e-21)
(0.868321 -0.106997 6.59605e-21)
(0.8849 -0.260425 -9.19883e-22)
(0.898597 -0.343725 1.41396e-22)
(0.903303 -0.368471 -3.17207e-22)
(0.888739 -0.366453 -2.40347e-21)
(0.853802 -0.355599 5.75817e-22)
(0.814778 -0.327309 -9.60664e-22)
(0.790007 -0.258535 5.05354e-22)
(0.788174 -0.150114 6.79379e-22)
(0.804821 -0.0151945 1.60869e-21)
(0.826942 0.121692 -1.26867e-22)
(0.674056 -0.212932 3.31266e-21)
(0.679375 -0.0527389 -7.23895e-21)
(0.71445 0.105447 2.15057e-21)
(0.767635 0.229716 -3.04229e-21)
(0.824329 0.316407 1.8894e-21)
(0.868293 0.387457 -3.68913e-21)
(0.888475 0.462628 2.91872e-21)
(0.886326 0.52873 3.53698e-21)
(0.8733 0.543544 -1.84814e-22)
(0.860068 0.471171 4.08878e-21)
(0.853424 0.311764 -2.87396e-21)
(0.858198 0.101607 3.63916e-21)
(0.872964 -0.103837 -2.94085e-22)
(0.889037 -0.258757 -6.36559e-21)
(0.901895 -0.343172 7.21676e-22)
(0.906173 -0.367941 3.04737e-21)
(0.891739 -0.36501 1.6897e-21)
(0.856791 -0.353618 2.79039e-22)
(0.817331 -0.326168 -7.69101e-22)
(0.792112 -0.25923 1.73568e-22)
(0.789905 -0.152571 -7.05759e-23)
(0.806251 -0.0185092 -4.42968e-22)
(0.828287 0.118687 -8.81342e-22)
(0.67549 -0.216938 2.05612e-21)
(0.678811 -0.0600484 -2.17606e-21)
(0.712773 0.0969302 -1.03797e-21)
(0.765824 0.221697 1.81336e-23)
(0.823073 0.309786 1.60987e-21)
(0.868019 0.382591 5.76665e-22)
(0.88945 0.459712 -1.64772e-21)
(0.88867 0.528029 -1.40009e-21)
(0.876867 0.545267 -2.81543e-23)
(0.864401 0.475043 -5.56055e-21)
(0.858031 0.316723 -6.47446e-22)
(0.862902 0.106229 3.78834e-21)
(0.877652 -0.100477 1.75014e-21)
(0.893246 -0.256915 -1.68828e-21)
(0.905262 -0.342519 5.4155e-22)
(0.909087 -0.367403 2.76157e-21)
(0.894785 -0.363601 -7.35178e-22)
(0.859851 -0.351647 -5.97852e-22)
(0.81994 -0.325015 8.25422e-22)
(0.794239 -0.259921 4.79873e-22)
(0.791658 -0.155047 3.0986e-23)
(0.807703 -0.0218736 -6.75868e-22)
(0.829654 0.115609 2.81831e-22)
(0.67721 -0.220799 -7.60247e-23)
(0.678507 -0.0673051 1.06889e-22)
(0.711247 0.088361 -1.40725e-21)
(0.76407 0.21356 -2.38028e-21)
(0.821812 0.303007 5.07629e-21)
(0.867717 0.377527 -2.18893e-21)
(0.8904 0.456567 -1.58733e-21)
(0.891003 0.527115 1.49366e-21)
(0.880434 0.546863 1.49344e-21)
(0.868733 0.478923 -1.65095e-21)
(0.862633 0.321808 2.51003e-21)
(0.867616 0.111039 -4.62994e-21)
(0.882379 -0.0969183 -9.2161e-23)
(0.897523 -0.254898 -6.22993e-22)
(0.908696 -0.341762 6.32442e-22)
(0.91204 -0.366856 -9.97507e-22)
(0.897872 -0.362227 -1.54561e-21)
(0.862978 -0.349689 3.57518e-22)
(0.822607 -0.323848 -7.28946e-22)
(0.796384 -0.260604 1.11721e-21)
(0.793429 -0.157541 6.2746e-22)
(0.809174 -0.0252818 3.73083e-22)
(0.831043 0.112458 -6.72671e-22)
(0.679203 -0.22451 9.78642e-22)
(0.678477 -0.074494 9.27096e-22)
(0.70989 0.079754 4.14018e-21)
(0.76238 0.205313 -7.35464e-22)
(0.820546 0.296076 -1.53887e-21)
(0.867382 0.372267 2.67333e-21)
(0.891319 0.453193 -7.37247e-22)
(0.893317 0.525983 1.08183e-21)
(0.883994 0.548326 -4.20704e-21)
(0.873059 0.482801 5.7478e-21)
(0.867226 0.327014 -1.43531e-21)
(0.87234 0.116034 3.32255e-21)
(0.887143 -0.0931622 -3.11561e-21)
(0.901865 -0.252706 -2.05489e-21)
(0.912196 -0.340897 -7.20189e-22)
(0.915032 -0.366299 -9.1858e-23)
(0.900996 -0.360892 9.75819e-22)
(0.866168 -0.347744 -5.61609e-22)
(0.82533 -0.322663 -8.21034e-22)
(0.798545 -0.261277 3.35002e-22)
(0.795211 -0.160049 -2.33796e-23)
(0.810663 -0.0287328 -8.12321e-22)
(0.832451 0.109234 1.69923e-22)
(0.681454 -0.228064 3.02684e-24)
(0.678729 -0.0816016 -4.80056e-21)
(0.708722 0.0711239 -5.85603e-22)
(0.760767 0.196968 7.79419e-22)
(0.819279 0.288997 5.86835e-22)
(0.867011 0.366813 1.60391e-21)
(0.8922 0.449589 -3.88589e-21)
(0.895606 0.52463 2.09387e-21)
(0.887541 0.549647 -4.9516e-21)
(0.877373 0.486672 2.96669e-21)
(0.871806 0.332335 -5.56489e-21)
(0.87707 0.12121 2.49276e-21)
(0.891941 -0.0892106 3.50834e-21)
(0.906266 -0.250339 5.57684e-21)
(0.915758 -0.339924 2.35299e-21)
(0.918059 -0.365729 -2.51303e-21)
(0.904153 -0.359596 -1.40049e-21)
(0.869417 -0.345815 -9.23433e-22)
(0.828112 -0.321458 -9.66237e-23)
(0.800719 -0.261935 -7.39326e-22)
(0.796999 -0.162569 9.02978e-23)
(0.812171 -0.0322262 1.61232e-22)
(0.833877 0.105939 7.78366e-23)
(0.683943 -0.231458 -2.27662e-21)
(0.679272 -0.0886176 3.99984e-22)
(0.707769 0.0624854 1.63693e-21)
(0.759246 0.188536 -6.9242e-22)
(0.818017 0.281778 -1.80755e-22)
(0.866604 0.36117 -6.30493e-22)
(0.893039 0.445754 1.7547e-21)
(0.897863 0.523051 -2.95022e-21)
(0.891069 0.550819 3.44908e-21)
(0.881669 0.490525 -2.32468e-21)
(0.87637 0.337764 3.50381e-21)
(0.881809 0.126563 -2.52292e-21)
(0.896771 -0.0850646 -1.8021e-21)
(0.910722 -0.247795 -3.60556e-21)
(0.919381 -0.338837 4.41922e-21)
(0.921121 -0.365144 5.80566e-22)
(0.90734 -0.35834 2.16498e-23)
(0.872722 -0.343903 6.21215e-22)
(0.830952 -0.320232 1.3221e-21)
(0.802905 -0.262574 -3.26148e-23)
(0.798787 -0.165099 -9.08318e-22)
(0.813694 -0.0357604 1.23265e-24)
(0.835323 0.102572 -1.81273e-22)
(0.68665 -0.234689 -4.85069e-21)
(0.680105 -0.0955343 3.8815e-21)
(0.707058 0.0538512 1.41689e-21)
(0.757845 0.180028 -2.00223e-21)
(0.816772 0.274427 2.08871e-21)
(0.866161 0.35534 7.29959e-22)
(0.893831 0.441688 2.73654e-21)
(0.900082 0.521242 -5.0168e-21)
(0.894571 0.551836 -3.04421e-21)
(0.885942 0.494353 1.69507e-21)
(0.880918 0.343295 4.71596e-21)
(0.88656 0.13209 -1.0595e-20)
(0.901632 -0.0807252 2.4168e-21)
(0.91523 -0.245074 -1.52292e-21)
(0.923061 -0.337637 -7.48951e-22)
(0.924214 -0.364542 2.0687e-21)
(0.910551 -0.357126 -1.58985e-21)
(0.876079 -0.342011 7.44869e-22)
(0.833851 -0.318983 -3.18157e-22)
(0.805103 -0.26319 -4.80907e-22)
(0.800568 -0.167635 6.61869e-22)
(0.815234 -0.0393346 -4.15849e-22)
(0.83679 0.0991349 -3.62319e-23)
(0.689552 -0.237748 8.43819e-22)
(0.681218 -0.102342 -1.02914e-21)
(0.706622 0.045234 1.13817e-22)
(0.7566 0.171456 -2.25954e-21)
(0.815567 0.266952 3.93523e-22)
(0.865691 0.349328 2.77206e-21)
(0.894574 0.437393 -5.14075e-21)
(0.902256 0.519199 7.48791e-21)
(0.898043 0.552689 3.84562e-21)
(0.890187 0.498148 -6.48386e-21)
(0.88545 0.348919 8.63464e-21)
(0.891329 0.137786 2.00555e-21)
(0.906522 -0.0761956 5.99483e-22)
(0.919784 -0.242178 -3.20107e-21)
(0.926796 -0.336319 -1.60442e-21)
(0.927337 -0.36392 1.24192e-21)
(0.913783 -0.355954 -2.10389e-22)
(0.879484 -0.34014 1.31893e-21)
(0.836808 -0.317709 -2.13418e-21)
(0.807314 -0.263778 9.44135e-22)
(0.802334 -0.170174 6.38076e-22)
(0.816786 -0.0429461 1.33497e-22)
(0.83828 0.0956284 -1.59327e-22)
(0.692631 -0.240623 2.73756e-21)
(0.682594 -0.109022 1.25208e-21)
(0.706489 0.0366561 -1.23278e-23)
(0.755562 0.162841 -1.30442e-21)
(0.81444 0.259367 -6.5558e-23)
(0.865209 0.343142 -2.8497e-21)
(0.895269 0.432871 8.24361e-23)
(0.904383 0.51692 1.02665e-21)
(0.90148 0.55337 -9.17194e-22)
(0.894401 0.501897 -4.17006e-21)
(0.889975 0.354624 -4.48457e-21)
(0.896129 0.143636 9.49046e-21)
(0.911445 -0.0714865 2.84185e-22)
(0.924381 -0.239107 -4.89227e-21)
(0.930583 -0.334875 -1.53537e-21)
(0.930488 -0.363265 1.21203e-21)
(0.917032 -0.354816 3.06657e-23)
(0.882933 -0.338286 6.68174e-22)
(0.839822 -0.316404 8.27008e-22)
(0.809539 -0.264328 -3.53245e-22)
(0.804079 -0.172708 -6.47053e-22)
(0.818348 -0.0465887 -2.786e-22)
(0.839801 0.0920575 2.59017e-22)
(0.695872 -0.243324 1.59636e-22)
(0.684204 -0.115575 1.09886e-21)
(0.706687 0.0281391 -1.18417e-21)
(0.754798 0.154206 -1.17083e-21)
(0.813453 0.251693 1.91114e-21)
(0.864753 0.336799 1.94403e-21)
(0.895929 0.428131 -2.01036e-21)
(0.906463 0.514403 -1.1147e-21)
(0.904882 0.553869 -1.79947e-21)
(0.898587 0.505582 5.7362e-22)
(0.894511 0.360383 -1.5716e-21)
(0.900978 0.149622 4.12196e-21)
(0.916402 -0.0665967 3.54018e-21)
(0.929017 -0.235848 -2.50153e-21)
(0.93442 -0.333292 1.63181e-21)
(0.933665 -0.362571 -1.08556e-21)
(0.920295 -0.353714 1.44965e-21)
(0.886421 -0.336455 -1.38349e-21)
(0.842893 -0.315071 -1.76827e-22)
(0.811781 -0.264841 5.24191e-22)
(0.805797 -0.175237 -3.47561e-22)
(0.819915 -0.0502625 2.42962e-22)
(0.841357 0.0884243 1.59704e-23)
(0.699264 -0.245939 1.71091e-21)
(0.686012 -0.122109 -2.74499e-21)
(0.707234 0.019605 9.3363e-22)
(0.754396 0.145509 -1.68267e-21)
(0.812708 0.243919 2.50503e-21)
(0.864395 0.330294 -1.02997e-21)
(0.896592 0.423168 2.08307e-21)
(0.908517 0.511645 -5.32781e-21)
(0.90826 0.554183 3.14507e-21)
(0.902762 0.509204 9.27029e-21)
(0.899099 0.366233 -7.35027e-21)
(0.90591 0.155831 5.18876e-21)
(0.921401 -0.061443 -1.13563e-20)
(0.933689 -0.232376 1.76398e-21)
(0.938301 -0.331596 1.66249e-21)
(0.936866 -0.361888 2.34846e-22)
(0.923567 -0.3527 -1.3195e-22)
(0.889944 -0.33469 -5.99466e-22)
(0.84602 -0.313743 3.02919e-22)
(0.814042 -0.265347 -3.78201e-22)
(0.807484 -0.1778 -2.69441e-23)
(0.821481 -0.0540128 1.13115e-23)
(0.842958 0.0846924 -1.04131e-23)
(0.702801 -0.248471 1.70167e-21)
(0.687978 -0.128738 -2.55698e-21)
(0.708135 0.0107782 1.96116e-22)
(0.75447 0.136582 1.63359e-21)
(0.812367 0.23593 -6.14098e-22)
(0.864274 0.323536 6.95763e-22)
(0.897351 0.417899 -4.19497e-21)
(0.910607 0.508611 5.45499e-21)
(0.911675 0.554372 -2.07743e-21)
(0.906996 0.512948 -8.87931e-21)