/*--------------------------------*- C++ -*----------------------------------*\
  =========                 |
  \\      /  F ield         | OpenFOAM: The Open Source CFD Toolbox
   \\    /   O peration     | Website:  https://openfoam.org
    \\  /    A nd           | Version:  7
     \\/     M anipulation  |
\*---------------------------------------------------------------------------*/
FoamFile
{
    version     2.0;
    format      ascii;
    class       volScalarField;
    location    "100";
    object      p;
}
// * * * * * * * * * * * * * * * * * * * * * * * * * * * * * * * * * * * * * //

dimensions      [0 2 -2 0 0 0 0];

internalField   nonuniform List<scalar> 
4575
(
-0.0459594
-0.0424974
-0.041604
-0.0419339
-0.0426697
-0.0412102
-0.0392651
-0.0360494
-0.0337824
-0.0317642
-0.0315399
-0.030418
-0.0299547
-0.0265854
-0.0244757
-0.0223586
-0.0224736
-0.0212757
-0.0214037
-0.0152915
-0.0109375
-0.00643407
-0.00547473
-0.0451569
-0.0421817
-0.0417904
-0.0425815
-0.0436873
-0.0423689
-0.0404162
-0.036946
-0.0343433
-0.031869
-0.0311918
-0.0297541
-0.029035
-0.0257216
-0.0237345
-0.0220827
-0.0226473
-0.0218514
-0.0223523
-0.0161587
-0.0117654
-0.00684011
-0.00536186
-0.044348
-0.0418588
-0.0419731
-0.0432326
-0.0447127
-0.043535
-0.0415691
-0.0378406
-0.034901
-0.0319719
-0.0308432
-0.0290919
-0.0281156
-0.0248576
-0.0229924
-0.0218048
-0.0228182
-0.0224254
-0.0232973
-0.0170252
-0.0125936
-0.00724777
-0.00524691
-0.0435329
-0.0415284
-0.0421516
-0.0438865
-0.0457452
-0.0447081
-0.0427233
-0.0387328
-0.0354555
-0.0320734
-0.0304946
-0.0284319
-0.0271969
-0.0239938
-0.0222498
-0.0215249
-0.0229861
-0.0229972
-0.0242384
-0.0178906
-0.0134218
-0.00765703
-0.00513
-0.0427114
-0.0411899
-0.0423251
-0.0445422
-0.0467839
-0.0458874
-0.0438784
-0.0396223
-0.0360067
-0.0321736
-0.0301464
-0.0277745
-0.0262795
-0.0231305
-0.0215068
-0.0212428
-0.0231508
-0.0235663
-0.025175
-0.0187545
-0.0142499
-0.00806787
-0.00501128
-0.0418837
-0.040843
-0.0424929
-0.045199
-0.0478282
-0.0470725
-0.045034
-0.040509
-0.0365547
-0.0322728
-0.0297991
-0.0271201
-0.0253639
-0.0222682
-0.0207636
-0.0209585
-0.023312
-0.0241323
-0.0261068
-0.0196166
-0.0150773
-0.00848025
-0.00489088
-0.0410498
-0.0404872
-0.0426542
-0.0458559
-0.0488771
-0.0482628
-0.0461898
-0.0413925
-0.0370993
-0.0323712
-0.0294529
-0.0264694
-0.0244505
-0.0214072
-0.0200205
-0.0206719
-0.0234694
-0.0246949
-0.0270332
-0.0204764
-0.015904
-0.00889413
-0.00476893
-0.0402099
-0.0401222
-0.0428082
-0.046512
-0.04993
-0.0494576
-0.0473453
-0.0422726
-0.0376407
-0.032469
-0.0291085
-0.0258228
-0.0235397
-0.0205478
-0.0192777
-0.0203828
-0.0236229
-0.0252535
-0.0279538
-0.0213337
-0.0167294
-0.00930948
-0.00464559
-0.0393641
-0.0397476
-0.0429542
-0.0471664
-0.050986
-0.0506564
-0.0485001
-0.043149
-0.0381787
-0.0325664
-0.028766
-0.0251807
-0.0226322
-0.0196905
-0.0185354
-0.0200911
-0.0237722
-0.0258077
-0.0288682
-0.0221879
-0.0175534
-0.00972625
-0.00452098
-0.0385125
-0.0393628
-0.0430913
-0.0478181
-0.0520442
-0.0518585
-0.0496539
-0.0440215
-0.0387133
-0.0326637
-0.028426
-0.0245437
-0.0217283
-0.0188356
-0.0177938
-0.0197968
-0.023917
-0.0263572
-0.0297759
-0.0230387
-0.0183755
-0.0101444
-0.00439526
-0.0376552
-0.0389676
-0.0432187
-0.0484661
-0.0531037
-0.0530633
-0.0508063
-0.0448899
-0.0392445
-0.032761
-0.0280888
-0.0239122
-0.0208285
-0.0179835
-0.0170531
-0.0194998
-0.0240572
-0.0269015
-0.0306765
-0.0238857
-0.0191956
-0.0105638
-0.00426857
-0.0367925
-0.0385616
-0.0433357
-0.0491094
-0.0541636
-0.0542703
-0.0519569
-0.0457538
-0.0397723
-0.0328585
-0.0277548
-0.0232866
-0.0199334
-0.0171345
-0.0163136
-0.0191999
-0.0241925
-0.0274402
-0.0315696
-0.0247285
-0.0200133
-0.0109845
-0.00414104
-0.0359245
-0.0381444
-0.0434413
-0.0497469
-0.0552231
-0.0554787
-0.0531052
-0.0466132
-0.0402965
-0.0329564
-0.0274244
-0.0226675
-0.0190434
-0.0162889
-0.0155754
-0.0188971
-0.0243228
-0.027973
-0.0324546
-0.0255667
-0.0208282
-0.0114064
-0.00401282
-0.0350514
-0.0377155
-0.0435348
-0.0503777
-0.0562811
-0.056688
-0.0542511
-0.0474676
-0.0408171
-0.0330548
-0.027098
-0.0220553
-0.0181589
-0.0154472
-0.0148388
-0.0185913
-0.0244479
-0.0284994
-0.0333313
-0.0264
-0.0216402
-0.0118293
-0.00388406
-0.0341736
-0.0372748
-0.0436152
-0.0510005
-0.0573368
-0.0578974
-0.055394
-0.048317
-0.0413342
-0.0331539
-0.0267758
-0.0214504
-0.0172805
-0.0146096
-0.014104
-0.0182823
-0.0245675
-0.0290191
-0.0341993
-0.0272278
-0.0224488
-0.0122533
-0.0037549
-0.0332912
-0.0368217
-0.043682
-0.0516144
-0.0583891
-0.0591064
-0.0565337
-0.049161
-0.0418475
-0.0332538
-0.0264583
-0.0208533
-0.0164087
-0.0137765
-0.0133712
-0.0179702
-0.0246816
-0.0295318
-0.035058
-0.0280499
-0.0232537
-0.0126782
-0.00362549
-0.0324046
-0.0363562
-0.043734
-0.0522181
-0.059437
-0.0603143
-0.0576697
-0.0499996
-0.042357
-0.0333546
-0.0261457
-0.0202644
-0.0155438
-0.0129481
-0.0126407
-0.0176548
-0.0247899
-0.030037
-0.0359072
-0.0288657
-0.0240547
-0.013104
-0.00349597
-0.031514
-0.0358777
-0.0437707
-0.0528108
-0.0604796
-0.0615203
-0.0588018
-0.0508323
-0.0428627
-0.0334564
-0.0258385
-0.0196842
-0.0146864
-0.012125
-0.0119125
-0.017336
-0.0248922
-0.0305345
-0.0367465
-0.029675
-0.0248514
-0.0135304
-0.00336648
-0.0306199
-0.0353862
-0.0437911
-0.0533911
-0.0615157
-0.0627239
-0.0599294
-0.0516591
-0.0433644
-0.0335593
-0.0255368
-0.0191131
-0.013837
-0.0113073
-0.011187
-0.0170138
-0.0249885
-0.0310239
-0.0375755
-0.0304773
-0.0256436
-0.0139575
-0.00323718
-0.0297225
-0.0348813
-0.0437946
-0.0539579
-0.0625445
-0.0639242
-0.0610524
-0.0524798
-0.0438621
-0.0336634
-0.0252411
-0.0185514
-0.0129959
-0.0104953
-0.0104644
-0.0166881
-0.0250786
-0.0315049
-0.0383939
-0.0312723
-0.0264309
-0.0143851
-0.00310821
-0.0288222
-0.0343629
-0.0437802
-0.0545103
-0.0635647
-0.0651207
-0.0621703
-0.053294
-0.0443557
-0.0337686
-0.0249515
-0.0179996
-0.0121636
-0.00968945
-0.00974481
-0.0163589
-0.0251623
-0.0319772
-0.0392012
-0.0320595
-0.0272129
-0.0148132
-0.00297972
-0.0279195
-0.0338308
-0.0437473
-0.0550469
-0.0645753
-0.0663124
-0.0632828
-0.0541018
-0.0448451
-0.0338752
-0.0246683
-0.017458
-0.0113407
-0.00888996
-0.00902853
-0.016026
-0.0252396
-0.0324405
-0.0399973
-0.0328385
-0.0279895
-0.0152415
-0.00285185
-0.0270148
-0.0332847
-0.0436952
-0.0555667
-0.0655753
-0.0674988
-0.0643895
-0.0549028
-0.0453301
-0.0339831
-0.0243919
-0.0169271
-0.0105274
-0.00809716
-0.00831576
-0.0156894
-0.0253104
-0.0328946
-0.0407817
-0.033609
-0.0287603
-0.0156699
-0.00272475
-0.0261085
-0.0327248
-0.0436232
-0.0560687
-0.0665635
-0.0686791
-0.06549
-0.0556968
-0.0458108
-0.0340923
-0.0241223
-0.0164072
-0.00972436
-0.00731132
-0.00760671
-0.0153492
-0.0253745
-0.0333392
-0.0415541
-0.0343707
-0.0295249
-0.0160984
-0.00259858
-0.0252012
-0.0321507
-0.0435305
-0.0565515
-0.0675388
-0.0698524
-0.0665839
-0.0564838
-0.0462869
-0.0342028
-0.0238599
-0.0158986
-0.00893187
-0.00653275
-0.0069016
-0.0150051
-0.0254318
-0.033774
-0.0423143
-0.035123
-0.0302831
-0.0165267
-0.00247348
-0.0242933
-0.0315626
-0.0434166
-0.0570143
-0.0685002
-0.071018
-0.0676709
-0.0572635
-0.0467583
-0.0343147
-0.0236048
-0.0154017
-0.00815039
-0.00576173
-0.00620064
-0.0146573
-0.0254822
-0.0341989
-0.0430619
-0.0358657
-0.0310345
-0.0169548
-0.00234959
-0.0233853
-0.0309604
-0.0432809
-0.0574559
-0.0694464
-0.072175
-0.0687507
-0.0580357
-0.047225
-0.0344279
-0.0233571
-0.0149167
-0.00738032
-0.00499854
-0.00550406
-0.0143056
-0.0255258
-0.0346136
-0.0437968
-0.0365984
-0.0317788
-0.0173825
-0.00222708
-0.0224779
-0.0303441
-0.0431227
-0.0578751
-0.0703764
-0.0733228
-0.0698227
-0.0588004
-0.0476868
-0.0345423
-0.0231172
-0.014444
-0.00662208
-0.00424345
-0.00481208
-0.01395
-0.0255624
-0.0350178
-0.0445185
-0.0373207
-0.0325157
-0.0178096
-0.0021061
-0.0215716
-0.0297139
-0.0429417
-0.0582711
-0.071289
-0.0744603
-0.0708866
-0.0595572
-0.0481435
-0.034658
-0.0228849
-0.0139839
-0.00587606
-0.00349675
-0.00412491
-0.0135906
-0.025592
-0.0354115
-0.045227
-0.0380323
-0.0332449
-0.018236
-0.00198679
-0.020667
-0.0290698
-0.0427372
-0.0586427
-0.0721831
-0.0755868
-0.0719419
-0.0603062
-0.0485952
-0.0347749
-0.0226606
-0.0135366
-0.00514264
-0.0027587
-0.00344278
-0.0132273
-0.0256145
-0.0357945
-0.0459218
-0.0387329
-0.0339661
-0.0186615
-0.00186931
-0.0197647
-0.0284121
-0.042509
-0.0589891
-0.0730577
-0.0767014
-0.0729883
-0.0610471
-0.0490416
-0.034893
-0.0224442
-0.0131023
-0.00442219
-0.00202958
-0.00276593
-0.01286
-0.0256299
-0.0361666
-0.0466029
-0.039422
-0.0346789
-0.0190859
-0.00175382
-0.0188654
-0.0277409
-0.0422565
-0.0593092
-0.0739115
-0.0778032
-0.0740253
-0.0617798
-0.0494825
-0.0350121
-0.0222359
-0.0126814
-0.00371509
-0.00130966
-0.00209459
-0.0124889
-0.0256382
-0.0365276
-0.04727
-0.0400995
-0.035383
-0.0195092
-0.00164046
-0.0179699
-0.0270566
-0.0419795
-0.059602
-0.0747434
-0.0788913
-0.0750523
-0.0625041
-0.049918
-0.0351322
-0.0220358
-0.0122741
-0.00302179
-0.000599243
-0.00142901
-0.012114
-0.0256393
-0.0368775
-0.0479229
-0.0407649
-0.0360781
-0.019931
-0.0015294
-0.0170789
-0.0263594
-0.0416777
-0.0598668
-0.0755523
-0.0799646
-0.076069
-0.06322
-0.050348
-0.0352534
-0.0218438
-0.0118805
-0.00234258
0.000101389
-0.000769453
-0.0117351
-0.0256332
-0.0372161
-0.0485614
-0.0414179
-0.0367638
-0.0203513
-0.00142079
-0.0161929
-0.0256497
-0.0413509
-0.0601027
-0.0763374
-0.0810229
-0.0770755
-0.0639277
-0.0507723
-0.0353751
-0.0216593
-0.0114999
-0.00167711
0.000792314
-0.000116034
-0.0113524
-0.02562
-0.0375434
-0.0491855
-0.0420585
-0.0374399
-0.0207699
-0.00131478
-0.0153117
-0.0249275
-0.0409992
-0.0603098
-0.0770992
-0.0820671
-0.0780721
-0.0646266
-0.0511896
-0.0354959
-0.0214813
-0.0111314
-0.00102484
0.00147388
0.000531315
-0.010966
-0.0255998
-0.0378596
-0.0497952
-0.0426864
-0.0381059
-0.0211863
-0.0012115
-0.0144382
-0.0241941
-0.0406227
-0.0604869
-0.0778344
-0.083091
-0.0790525
-0.0653125
-0.0515989
-0.0356168
-0.021313
-0.0107807
-0.000390551
0.00214331
0.0011713
-0.010576
-0.0255724
-0.0381641
-0.0503895
-0.0433002
-0.0387614
-0.0216004
-0.00111108
-0.0135916
-0.0234563
-0.040218
-0.0606209
-0.0785202
-0.0840687
-0.0800003
-0.0659824
-0.0520059
-0.0357483
-0.0211671
-0.0104652
0.000210005
0.00278965
0.00179791
-0.0101827
-0.0255355
-0.0384534
-0.050964
-0.043896
-0.0394064
-0.0220129
-0.00101383
-0.0127742
-0.0227134
-0.0397758
-0.0606955
-0.0791448
-0.085008
-0.0809396
-0.0666642
-0.0524303
-0.035902
-0.0210434
-0.0101734
0.000787894
0.00341924
0.00241299
-0.00978426
-0.0254867
-0.0387261
-0.0515192
-0.0444784
-0.0400424
-0.0224258
-0.000920396
-0.0117758
-0.0218786
-0.0393308
-0.0608627
-0.0799572
-0.0861809
-0.0820537
-0.0674305
-0.0528594
-0.0360214
-0.0208464
-0.00975228
0.00149584
0.00414934
0.00308546
-0.0093735
-0.0254524
-0.0390254
-0.0521032
-0.0450891
-0.0406705
-0.0228349
-0.000830667
-0.00843584
-0.0194396
-0.0384955
-0.0621017
-0.0829891
-0.0898686
-0.085138
-0.0693163
-0.0537511
-0.036144
-0.0201762
-0.00841145
0.00350605
0.00615976
0.00485136
-0.00844099
-0.0254934
-0.0398386
-0.053524
-0.0465032
-0.0419706
-0.023678
-0.000651368
-0.00611381
-0.0176872
-0.0378949
-0.063128
-0.0856374
-0.0931253
-0.0878231
-0.0708808
-0.0542133
-0.0359003
-0.019214
-0.00694534
0.00550885
0.00806601
0.00665352
-0.00747866
-0.025543
-0.0406762
-0.0552171
-0.0482079
-0.0436653
-0.0248832
-0.000423395
-0.00412519
-0.0162076
-0.037306
-0.0638479
-0.087907
-0.096137
-0.0904159
-0.0722653
-0.0545087
-0.0355687
-0.0182495
-0.00555315
0.00741563
0.00986641
0.00832809
-0.00658993
-0.0255605
-0.0413785
-0.0567629
-0.0497783
-0.0452329
-0.0260729
-0.000229449
-0.00197077
-0.0145186
-0.0365201
-0.064466
-0.0902055
-0.0991798
-0.0929163
-0.0734816
-0.0546166
-0.0351085
-0.0172516
-0.00421349
0.00927226
0.0116373
0.0100102
-0.00566842
-0.0255435
-0.0420412
-0.0582044
-0.0512402
-0.0466614
-0.0272281
-7.22371e-05
0.000199558
-0.012725
-0.0356051
-0.0649761
-0.0923516
-0.10198
-0.0951446
-0.0744414
-0.054495
-0.0345062
-0.016219
-0.00294031
0.0110191
0.013308
0.0116356
-0.00474183
-0.0255033
-0.0426539
-0.059502
-0.0525541
-0.0479223
-0.0283306
4.24741e-05
0.00224556
-0.0109603
-0.0346012
-0.0652449
-0.0941081
-0.104375
-0.0970096
-0.075102
-0.0541259
-0.0337538
-0.0151517
-0.00174143
0.012633
0.0148415
0.0131542
-0.00383797
-0.0254382
-0.0431848
-0.0606305
-0.0536947
-0.048995
-0.0293617
0.000110249
0.00413106
-0.00925471
-0.0334767
-0.0651597
-0.09536
-0.106271
-0.0984335
-0.0754225
-0.0534921
-0.032844
-0.0140498
-0.000620954
0.0141001
0.0162222
0.0145485
-0.00296243
-0.0253411
-0.0436217
-0.0615814
-0.0546451
-0.0498598
-0.0303015
0.00012794
0.00585521
-0.00759752
-0.0321965
-0.0646687
-0.0960306
-0.107557
-0.0993254
-0.0753572
-0.0525785
-0.031772
-0.0129132
0.000418497
0.0154044
0.0174374
0.0158077
-0.00211625
-0.0252089
-0.0439649
-0.0623476
-0.0553882
-0.0504959
-0.0311282
9.34593e-05
0.0074124
-0.00598871
-0.0307523
-0.0637388
-0.0960253
-0.108108
-0.0995902
-0.0748605
-0.0513731
-0.0305354
-0.0117428
0.00137564
0.0165308
0.0184728
0.0169175
-0.00130476
-0.0250408
-0.0442135
-0.0629193
-0.0559071
-0.0508824
-0.0318191
6.00303e-06
0.00878756
-0.00444493
-0.0291476
-0.0623275
-0.0952433
-0.107807
-0.0991358
-0.0738881
-0.0498682
-0.0291354
-0.0105408
0.00225086
0.0174654
0.0193135
0.0178599
-0.000536153
-0.0248342
-0.0443632
-0.0632857
-0.0561862
-0.0509994
-0.0323502
-0.000133672
0.00996208
-0.00298741
-0.0273828
-0.0603922
-0.0935981
-0.106551
-0.0978784
-0.0724001
-0.0480609
-0.0275768
-0.00931047
0.00304637
0.0181963
0.0199452
0.0186165
0.000181024
-0.0245839
-0.044407
-0.0634343
-0.0562108
-0.0508283
-0.0326973
-0.000323018
0.0109183
-0.00163484
-0.0254582
-0.0579046
-0.0910264
-0.104257
-0.095749
-0.0703637
-0.0459542
-0.0258684
-0.00805672
0.00376624
0.0187143
0.0203553
0.019169
0.000838351
-0.0242821
-0.0443348
-0.06335
-0.0559678
-0.050353
-0.0328359
-0.000557507
0.0116411
-0.000404321
-0.0233807
-0.054856
-0.0874912
-0.100872
-0.0927014
-0.067757
-0.043557
-0.0240228
-0.0067862
0.00441644
0.0190146
0.0205341
0.0195001
0.00142736
-0.0239182
-0.0441311
-0.0630134
-0.0554448
-0.0495605
-0.0327424
-0.000830486
0.0121185
0.000686661
-0.0211656
-0.051257
-0.0829879
-0.0963803
-0.0887175
-0.0645725
-0.040885
-0.0220567
-0.0055071
0.00500462
0.0190972
0.020476
0.0195945
0.00194002
-0.0234774
-0.0437731
-0.062399
-0.0546303
-0.0484425
-0.032395
-0.00113311
0.0123424
0.00162172
-0.0188339
-0.0471375
-0.0775503
-0.0908078
-0.0838104
-0.0608201
-0.0379608
-0.0199899
-0.00422893
0.0055399
0.0189689
0.0201807
0.0194402
0.00236988
-0.0229392
-0.0432281
-0.0614737
-0.0535137
-0.0469969
-0.0317751
-0.00145434
0.0123122
0.00238895
-0.0164101
-0.0425483
-0.0712522
-0.0842236
-0.0780298
-0.0565297
-0.0348137
-0.0178449
-0.00296203
0.00603239
0.0186441
0.0196555
0.0190311
0.00271347
-0.022277
-0.0424523
-0.0601962
-0.0520846
-0.0452288
-0.0308692
-0.00178109
0.0120387
0.00298484
-0.0139206
-0.0375595
-0.064203
-0.0767412
-0.0714658
-0.0517537
-0.0314797
-0.0156461
-0.00171697
0.0064928
0.0181457
0.0189106
0.0183696
0.0029719
-0.0214575
-0.0413912
-0.0585173
-0.0503338
-0.0431521
-0.0296707
-0.0020985
0.0115497
0.00341901
-0.011391
-0.0322573
-0.0565462
-0.0685202
-0.0642482
-0.0465672
-0.0280011
-0.0134183
-0.000503786
0.00693198
0.0175055
0.0179854
0.0174698
0.00315233
-0.0204422
-0.0399812
-0.0563821
-0.0482534
-0.0407906
-0.028182
-0.00239051
0.0108958
0.00371991
-0.00884201
-0.0267399
-0.0484561
-0.0597574
-0.0565413
-0.0410668
-0.0244255
-0.011186
0.000668729
0.00736037
0.0167645
0.0169159
0.0163589
0.00326943
-0.0191908
-0.0381562
-0.0537356
-0.0458382
-0.0381783
-0.0264167
-0.0026405
0.0101557
0.00394101
-0.00628522
-0.0211155
-0.0401302
-0.0506779
-0.0485362
-0.0353674
-0.0208048
-0.00897213
0.00179384
0.00778715
0.0159698
0.0157529
0.0150808
0.00334619
-0.0176661
-0.0358566
-0.0505316
-0.0430882
-0.0353597
-0.0244008
-0.00283222
0.0094404
0.00416593
-0.00372072
-0.0154974
-0.0317823
-0.041527
-0.0404426
-0.0295972
-0.0171939
-0.00679773
0.00286725
0.00821992
0.0151729
0.0145592
0.013697
0.00341377
-0.0158423
-0.0330419
-0.0467436
-0.0400119
-0.032388
-0.0221738
-0.0029511
0.00888697
0.00450576
-0.00113856
-0.0100013
-0.0236328
-0.0325562
-0.0324791
-0.0238919
-0.013648
-0.00468112
0.00388713
0.00866415
0.0144263
0.0134061
0.0122852
0.00350959
-0.0137139
-0.0297046
-0.0423791
-0.0366295
-0.0293224
-0.019788
-0.00298572
0.00863948
0.00508418
0.00147573
-0.00474217
-0.0158997
-0.0240146
-0.0248598
-0.0183856
-0.0102209
-0.00263804
0.00485378
0.00912229
0.0137788
0.0123676
0.0109357
0.00367343
-0.0113033
-0.025884
-0.0374919
-0.0329766
-0.0262236
-0.017307
-0.00292922
0.00882084
0.00601214
0.00413028
0.000166122
-0.00878644
-0.0161306
-0.0177785
-0.0132013
-0.00696173
-0.000682055
0.00576909
0.00959307
0.01327
0.0115124
0.00974378
0.00394167
-0.00866706
-0.0216731
-0.0321891
-0.0291081
-0.023148
-0.0148015
-0.00278053
0.00949622
0.00735427
0.00681273
0.00461735
-0.00246435
-0.0090926
-0.0113899
-0.00844126
-0.00391239
0.00117487
0.00663567
0.0100715
0.0129246
0.0108943
0.00879854
0.00434025
-0.00589462
-0.017217
-0.0266315
-0.0251012
-0.020161
-0.0123434
-0.00254512
0.0106531
0.00909753
0.0094804
0.0085238
0.00294269
-0.00303048
-0.00580338
-0.0041753
-0.00110493
0.00292203
0.00745628
0.0105492
0.0127484
0.0105428
0.00816887
0.00487793
-0.00310089
-0.0127025
-0.0210243
-0.0210501
-0.0172975
-0.0100017
-0.00223533
0.0121908
0.0111367
0.0120553
0.0118255
0.00737709
0.00200521
-0.0010462
-0.000436029
0.00143997
0.00454972
0.00823334
0.0110157
0.0127272
0.0104578
0.00789009
0.00554242
-0.000412248
-0.0083364
-0.0155955
-0.0170627
-0.0145886
-0.00783695
-0.00186994
0.0138979
0.0132827
0.0144237
0.0144969
0.010863
0.0060526
0.00290918
0.00277696
0.00371269
0.00604919
0.00896823
0.0114602
0.0128278
0.0106075
0.00795617
0.00630178
0.00205277
-0.00431525
-0.010568
-0.0132546
-0.0120555
-0.00589523
-0.00147236
0.0155075
0.0153017
0.0164533
0.0165469
0.0134961
0.00921838
0.00613393
0.00549047
0.0057136
0.00741297
0.00966063
0.0118724
0.0130045
0.0109335
0.00832075
0.00711261
0.00420608
-0.000795621
-0.00612959
-0.00973672
-0.00971194
-0.00420431
-0.00106787
0.0168798
0.016995
0.0180377
0.0180193
0.0154119
0.0116416
0.00872014
0.00774732
0.00745112
0.00863573
0.010308
0.0122437
0.0132095
0.0113616
0.0089089
0.00793153
0.00600572
0.00212994
-0.00240299
-0.00660101
-0.0075676
-0.00277276
-0.000680711
0.0179384
0.0182585
0.0191431
0.0189905
0.0167532
0.0134633
0.0107619
0.00959502
0.00893914
0.00971535
0.0109065
0.0125674
0.0134024
0.0118161
0.00962185
0.00872378
0.00745629
0.00444018
0.000567651
-0.00390428
-0.00563088
-0.00159197
-0.000330514
0.0186764
0.0190958
0.0198149
0.0195587
0.0176497
0.0148054
0.0123464
0.0110841
0.0101963
0.0106532
0.0114519
0.0128402
0.0135548
0.0122342
0.0103653
0.00946325
0.00859544
0.00617791
0.00281937
-0.00166245
-0.00390936
-0.000640583
-2.95097e-05
0.019142
0.0195795
0.0201451
0.0198262
0.0182092
0.0157668
0.0135534
0.0122664
0.0112445
0.011454
0.0119398
0.0130622
0.0136525
0.0125733
0.0110559
0.0101219
0.00946641
0.00742575
0.00445251
0.000146112
-0.00240787
0.000110741
0.000217385
0.0193978
0.0198015
0.0202323
0.0198828
0.0185187
0.0164301
0.0144547
0.0131906
0.0121064
0.0121258
0.0123659
0.0132354
0.0136948
0.0128139
0.0116287
0.0106656
0.0101003
0.00827704
0.00559485
0.00156837
-0.00112469
0.000694819
0.0004113
0.0194992
0.019843
0.020159
0.0197993
0.0186471
0.0168641
0.0151116
0.0139008
0.0128046
0.0126786
0.0127272
0.0133628
0.0136875
0.0129522
0.012048
0.0110671
0.0105187
0.00881756
0.00636947
0.00266643
-4.97369e-05
0.00114329
0.000557211
0.0197649
0.0199857
0.0196272
0.0186484
0.0171253
0.0155756
0.0144354
0.0133602
0.0131236
0.0130229
0.0134478
0.013639
0.0129976
0.0122952
0.0113171
0.0107463
0.00912088
0.00687719
0.0035131
0.000833293
0.00148356
0.000661982
0.0196109
0.0197542
0.0194024
0.0185631
0.0172581
0.015889
0.0148269
0.0137928
0.0134728
0.0132548
0.0134942
0.0135594
0.01297
0.0123957
0.0114266
0.0108167
0.00924923
0.00719019
0.00414635
0.00154498
0.00173837
0.000733269
0.0194149
0.0194927
0.0191495
0.0184209
0.0172971
0.0160858
0.0151029
0.0141204
0.0137378
0.0134272
0.0135066
0.0134568
0.0128877
0.0123859
0.0114242
0.0107693
0.00925392
0.007359
0.0046068
0.00210887
0.00192639
0.000778629
0.0191973
0.0192191
0.0188847
0.0182431
0.0172687
0.0161934
0.0152861
0.0143592
0.0139299
0.0135461
0.0134893
0.0133377
0.0127669
0.0122983
0.0113424
0.0106416
0.00917571
0.00742137
0.00492882
0.00254799
0.00206218
0.000804745
0.0189709
0.0189446
0.0186183
0.0180447
0.0171928
0.0162334
0.0153948
0.0145237
0.0140598
0.0136186
0.0134471
0.0132073
0.0126214
0.012157
0.0112079
0.0104635
0.00904516
0.00740688
0.0051419
0.00288349
0.00215678
0.000817038
0.0187434
0.0186763
0.0183571
0.0178364
0.0170837
0.0162222
0.0154428
0.0146273
0.0141375
0.0136518
0.0133843
0.0130691
0.0124619
0.0119823
0.011041
0.0102572
0.00888413
0.00733895
0.00527084
0.00313408
0.00221891
0.000819758
0.0185195
0.0184182
0.0181048
0.0176256
0.0169527
0.0161732
0.0154498
0.0146818
0.0141721
0.0136527
0.0133053
0.0129257
0.0122961
0.0117891
0.0108559
0.0100381
0.0087075
0.0072361
0.00533576
0.00331567
0.00225587
0.000816227
0.0183022
0.0181723
0.0178637
0.0174168
0.016808
0.0160973
0.0154228
0.0146964
0.0141717
0.0136273
0.013214
0.0127802
0.012127
0.0115875
0.0106626
0.00981608
0.00852513
0.00711243
0.00535286
0.0034418
0.00227351
0.000808825
0.0180931
0.0179394
0.0176349
0.0172132
0.0166558
0.0160023
0.0153686
0.0146793
0.0141432
0.0135809
0.013114
0.0126344
0.011961
0.011385
0.0104679
0.00959777
0.00834345
0.00697812
0.00533506
0.00352394
0.00227677
0.000799161
0.0178931
0.01772
0.0174188
0.0170169
0.0165004
0.015894
0.0152944
0.0146374
0.0140928
0.0135184
0.0130082
0.0124897
0.0117994
0.011187
0.0102765
0.00938723
0.00816652
0.00684025
0.00529251
0.00357175
0.00226931
0.00078828
0.0177027
0.0175138
0.0172154
0.0168292
0.0163451
0.0157773
0.0152056
0.014573
0.014026
0.0134436
0.0128988
0.0123475
0.0116433
0.0109969
0.0100915
0.00918699
0.00799682
0.00670365
0.00523312
0.00359323
0.00225436
0.000776899
0.0175221
0.0173205
0.0170245
0.0166508
0.0161924
0.0156561
0.0151075
0.0144999
0.013948
0.0133601
0.0127882
0.012209
0.0114935
0.0108165
0.00991513
0.00899856
0.00783581
0.00657153
0.00516307
0.00359484
0.00223452
0.000765554
0.0173514
0.0171398
0.0168459
0.0164823
0.0160441
0.0155335
0.0150039
0.0144174
0.0138622
0.0132708
0.0126779
0.0120753
0.0113506
0.0106469
0.00974863
0.00882277
0.00768435
0.00644588
0.0050872
0.00358185
0.00221174
0.000754652
0.0171907
0.0169714
0.0166793
0.0163238
0.0159017
0.0154122
0.0148979
0.0143287
0.0137717
0.0131782
0.0125697
0.0119472
0.0112152
0.0104888
0.00959291
0.00866002
0.00754297
0.0063279
0.00500927
0.0035585
0.0021873
0.000744508
0.0170401
0.016815
0.0165246
0.0161757
0.0157663
0.015294
0.0147921
0.0142372
0.0136791
0.0130848
0.0124637
0.0118257
0.0110877
0.0103424
0.00944849
0.00851045
0.00741196
0.00621829
0.0049321
0.00352827
0.00216228
0.000735236
0.0169
0.0166705
0.0163816
0.0160383
0.0156389
0.0151805
0.0146886
0.0141455
0.0135875
0.0129925
0.012363
0.0117115
0.0109686
0.0102079
0.00931568
0.00837409
0.00729153
0.00611745
0.00485777
0.00349404
0.00213754
0.000726788
0.0167706
0.016538
0.0162506
0.0159119
0.0155203
0.0150732
0.0145893
0.014056
0.0134986
0.0129033
0.0122676
0.0116052
0.0108584
0.0100853
0.00919468
0.00825087
0.00718184
0.00602561
0.00478785
0.00345808
0.00211361
0.000719143
0.0166524
0.0164177
0.0161316
0.0157968
0.0154114
0.0149734
0.014496
0.0139707
0.0134141
0.0128187
0.0121786
0.0115076
0.0107578
0.0099748
0.00908566
0.00814072
0.00708308
0.00594286
0.00472345
0.00342221
0.00209097
0.000712302
0.0165459
0.0163098
0.016025
0.0156934
0.015313
0.0148823
0.0144101
0.0138912
0.0133356
0.0127402
0.0120971
0.0114194
0.0106672
0.00987652
0.00898876
0.00804358
0.00699541
0.00586933
0.00466543
0.00338788
0.00207001
0.000706249
0.0164518
0.016215
0.0159312
0.0156024
0.0152258
0.0148009
0.0143329
0.013819
0.0132645
0.0126693
0.0120242
0.0113412
0.0105872
0.0097907
0.00890421
0.00795944
0.00691905
0.00580516
0.0046144
0.00335626
0.0020511
0.000700968
0.0163709
0.0161337
0.0158509
0.0155243
0.0151507
0.0147304
0.0142656
0.0137557
0.0132023
0.0126072
0.0119608
0.0112739
0.0105186
0.00971768
0.00883232
0.00788834
0.00685427
0.00575058
0.00457084
0.00332831
0.00203457
0.000696459
0.016304
0.0160667
0.0157848
0.0154599
0.0150886
0.0146718
0.0142095
0.0137026
0.0131502
0.0125552
0.011908
0.0112181
0.0104619
0.00965789
0.00877347
0.00783047
0.0068014
0.00570589
0.00453516
0.0033048
0.00202076
0.000692733
0.0162521
0.0160148
0.0157336
0.0154101
0.0150405
0.0146261
0.0141657
0.0136609
0.0131094
0.0125145
0.0118668
0.0111748
0.0104181
0.00961187
0.0087282
0.00778614
0.00676084
0.00567148
0.00450776
0.00328638
0.00201001
0.000689809
0.0162163
0.0159791
0.0156984
0.0153758
0.0150073
0.0145945
0.0141354
0.013632
0.0130811
0.0124862
0.0118383
0.011145
0.0103879
0.00958028
0.00869717
0.00775581
0.00673312
0.00564783
0.00448904
0.00327357
0.00200269
0.000687719
0.0161978
0.0159607
0.0156802
0.015358
0.0149901
0.0145781
0.0141197
0.0136169
0.0130664
0.0124714
0.0118236
0.0111294
0.0103724
0.0095639
0.00868126
0.00774008
0.00671896
0.00563549
0.00447957
0.00326679
0.00199914
0.000686532
0.0195399
0.0192598
0.0189526
0.0186159
0.0182528
0.0178567
0.0174314
0.0169651
0.0164615
0.0159052
0.0152982
0.0146249
0.0138851
0.0130653
0.0121629
0.0111658
0.0100703
0.0088597
0.00753785
0.00607901
0.00450739
0.00279255
0.000977967
0.019553
0.0192719
0.0189641
0.0186269
0.0182641
0.0178683
0.0174442
0.0169789
0.0164772
0.0159223
0.0153173
0.0146455
0.0139072
0.0130889
0.012188
0.0111923
0.0100983
0.00888816
0.0075667
0.00610529
0.0045303
0.00280797
0.000984866
0.0195782
0.0192952
0.0189859
0.0186481
0.0182856
0.0178907
0.0174688
0.0170057
0.0165074
0.0159555
0.0153539
0.0146853
0.0139498
0.0131346
0.0122362
0.0112436
0.0101523
0.0089436
0.0076226
0.00615683
0.00457489
0.00283891
0.000998204
0.0196144
0.0193285
0.0190171
0.0186782
0.0183163
0.0179227
0.0175041
0.0170444
0.016551
0.0160036
0.015407
0.014743
0.0140114
0.0132008
0.0123059
0.0113182
0.0102308
0.00902471
0.00770471
0.00623284
0.00464101
0.00288523
0.001018
0.0196605
0.0193707
0.0190565
0.0187163
0.0183551
0.0179632
0.0175491
0.0170937
0.016607
0.0160655
0.0154755
0.0148173
0.0140906
0.0132859
0.0123955
0.0114146
0.0103324
0.00913052
0.00781253
0.00633305
0.00472895
0.00294727
0.00104453
0.0197153
0.0194205
0.0191027
0.0187609
0.0184008
0.0180111
0.0176027
0.0171527
0.0166745
0.0161401
0.0155582
0.0149071
0.0141861
0.0133885
0.0125033
0.0115313
0.010456
0.00926038
0.0079459
0.0064576
0.00483944
0.00302576
0.00107823
0.0197776
0.0194767
0.0191547
0.0188108
0.0184521
0.0180652
0.0176638
0.0172203
0.0167525
0.0162265
0.0156543
0.0150111
0.0142966
0.0135072
0.0126278
0.011667
0.0106002
0.0094138
0.00810492
0.00660697
0.00497372
0.00312184
0.00111973
0.0198457
0.0195391
0.0192111
0.0188655
0.0185076
0.0181242
0.0177314
0.0172955
0.0168402
0.0163238
0.0157629
0.0151283
0.0144208
0.0136402
0.012767
0.0118201
0.0107639
0.00959047
0.00828994
0.00678204
0.00513348
0.00323696
0.00116987
0.0199173
0.0196044
0.0192703
0.018922
0.0185665
0.0181869
0.0178043
0.0173773
0.0169367
0.0164311
0.0158833
0.0152577
0.0145573
0.0137861
0.0129192
0.011989
0.0109459
0.00979018
0.00850151
0.006984
0.00532086
0.00337294
0.0012297
0.0199893
0.0196728
0.0193306
0.0189795
0.0186263
0.018252
0.0178816
0.0174648
0.0170414
0.0165477
0.0160148
0.0153982
0.0147048
0.0139431
0.0130821
0.0121718
0.0111446
0.0100127
0.0087403