/*--------------------------------*- C++ -*----------------------------------*\
  =========                 |
  \\      /  F ield         | OpenFOAM: The Open Source CFD Toolbox
   \\    /   O peration     | Website:  https://openfoam.org
    \\  /    A nd           | Version:  7
     \\/     M anipulation  |
\*---------------------------------------------------------------------------*/
FoamFile
{
    version     2.0;
    format      ascii;
    class       surfaceScalarField;
    location    "100";
    object      phi;
}
// * * * * * * * * * * * * * * * * * * * * * * * * * * * * * * * * * * * * * //

dimensions      [0 3 -1 0 0 0 0];

internalField   nonuniform List<scalar> 
8927
(
0.00152443
0.00853013
-0.00853112
0.0014982
0.0105739
-0.0105477
0.0014661
0.0111058
-0.0110737
0.00144699
0.0101065
-0.0100874
0.00144791
0.00689019
-0.00689111
0.00146281
0.00281226
-0.00282715
0.00147442
-0.00188646
0.00187484
0.00147037
-0.00626798
0.00627204
0.00145694
-0.00945184
0.00946527
0.00144663
-0.0116112
0.0116215
0.0014436
-0.010294
0.010297
0.00144326
-0.00804754
0.00804788
0.00143931
-0.0026553
0.00265926
0.00142903
0.00260231
-0.00259203
0.00141786
0.00746465
-0.00745347
0.00141017
0.01189
-0.0118823
0.00140655
0.0105062
-0.0105026
0.00139992
0.0100898
-0.0100831
0.00138491
0.00291298
-0.00289797
0.00136549
-0.00265303
0.00267245
0.001351
-0.00687028
0.00688476
0.00134241
-0.0135235
0.0135321
-0.00633833
0.00634921
0.0015287
0.00852816
0.00150302
0.0105996
0.00147058
0.0111382
0.00145008
0.010127
0.00144918
0.0068911
0.00146259
0.00279884
0.00147306
-0.00189694
0.001468
-0.00626292
0.0014536
-0.00943744
0.0014431
-0.0116007
0.00144073
-0.0102916
0.00144151
-0.00804832
0.00143889
-0.00265269
0.00142984
0.00261136
0.00141996
0.00747453
0.0014128
0.0118972
0.00140906
0.0105099
0.00140174
0.0100971
0.00138553
0.00292919
0.00136535
-0.00263285
0.0013499
-0.00685483
0.00134149
-0.0135151
-0.00632837
0.00153288
0.00852514
0.00150778
0.0106247
0.00147499
0.011171
0.00145309
0.0101489
0.00145032
0.00689386
0.00146226
0.0027869
0.00147163
-0.00190631
0.00146559
-0.00625688
0.00145024
-0.00942209
0.00143951
-0.01159
0.0014378
-0.0102899
0.00143971
-0.00805022
0.00143846
-0.00265144
0.00143067
0.00261914
0.00142209
0.00748311
0.00141545
0.0119038
0.0014116
0.0105138
0.00140361
0.0101051
0.00138622
0.00294657
0.00136531
-0.00261193
0.0013489
-0.00683841
0.00134068
-0.0135069
-0.00631933
0.00153698
0.00852102
0.00151248
0.0106492
0.00147934
0.0112042
0.00145599
0.0101723
0.00145135
0.00689851
0.00146182
0.00277644
0.00147013
-0.00191463
0.00146316
-0.00624991
0.00144685
-0.00940578
0.00143587
-0.011579
0.0014348
-0.0102888
0.00143785
-0.00805327
0.001438
-0.0026516
0.00143151
0.00262563
0.00142424
0.00749039
0.00141813
0.0119099
0.00141417
0.0105177
0.00140552
0.0101137
0.00138699
0.0029651
0.00136536
-0.00259031
0.001348
-0.00682105
0.00133997
-0.0134988
-0.00631123
0.00154099
0.00851575
0.00151712
0.010673
0.00148362
0.0112377
0.00145882
0.0101971
0.00145226
0.00690506
0.00146127
0.00276743
0.00146856
-0.00192192
0.0014607
-0.00624204
0.00144344
-0.00938852
0.00143218
-0.0115677
0.00143174
-0.0102884
0.00143594
-0.00805748
0.00143753
-0.00265319
0.00143236
0.0026308
0.00142641
0.00749634
0.00142082
0.0119155
0.00141676
0.0105218
0.00140748
0.010123
0.00138783
0.00298476
0.00136551
-0.00256799
0.00134721
-0.00680275
0.00133938
-0.013491
-0.00630407
0.00154491
0.00850925
0.00152171
0.0106962
0.00148785
0.0112715
0.00146155
0.0102234
0.00145307
0.00691354
0.00146061
0.00275989
0.00146692
-0.00192824
0.00145821
-0.00623333
0.00144001
-0.00937032
0.00142845
-0.0115562
0.00142861
-0.0102885
0.00143398
-0.00806286
0.00143704
-0.00265624
0.00143322
0.00263462
0.0014286
0.00750097
0.00142353
0.0119206
0.00141937
0.010526
0.00140949
0.0101329
0.00138875
0.0030055
0.00136575
-0.002545
0.00134652
-0.00678351
0.00133888
-0.0134834
-0.00629787
0.00154872
0.00850147
0.00152623
0.0107187
0.00149201
0.0113058
0.00146421
0.0102512
0.00145378
0.00692398
0.00145985
0.00275382
0.00146522
-0.0019336
0.00145569
-0.00622381
0.00143655
-0.00935118
0.00142467
-0.0115443
0.00142541
-0.0102893
0.00143197
-0.00806942
0.00143653
-0.0026608
0.00143409
0.00263706
0.0014308
0.00750426
0.00142626
0.0119251
0.001422
0.0105302
0.00141154
0.0101434
0.00138974
0.0030273
0.0013661
-0.00252136
0.00134594
-0.00676335
0.0013385
-0.0134759
-0.00629263
0.00155243
0.00849235
0.00153069
0.0107405
0.00149612
0.0113403
0.0014668
0.0102805
0.00145439
0.00693639
0.00145899
0.00274922
0.00146344
-0.00193805
0.00145316
-0.00621352
0.00143309
-0.00933111
0.00142084
-0.0115321
0.00142216
-0.0102906
0.00142991
-0.00807717
0.00143599
-0.00266688
0.00143495
0.0026381
0.00143301
0.0075062
0.00142899
0.0119291
0.00142466
0.0105346
0.00141363
0.0101544
0.0013908
0.00305013
0.00136654
-0.00249709
0.00134547
-0.00674228
0.00133823
-0.0134687
-0.00628836
0.00155604
0.00848181
0.00153508
0.0107614
0.00150017
0.0113752
0.00146931
0.0103114
0.0014549
0.0069508
0.00145803
0.00274609
0.0014616
-0.00194162
0.0014506
-0.00620252
0.0014296
-0.00931012
0.00141698
-0.0115194
0.00141884
-0.0102924
0.00142779
-0.00808613
0.00143543
-0.00267451
0.00143582
0.00263771
0.00143522
0.0075068
0.00143173
0.0119326
0.00142732
0.010539
0.00141577
0.0101659
0.00139194
0.00307396
0.00136707
-0.00247222
0.0013451
-0.00672031
0.00133806
-0.0134616
-0.00628507
0.00155952
0.0084698
0.0015394
0.0107815
0.00150417
0.0114105
0.00147176
0.0103438
0.00145533
0.00696724
0.00145697
0.00274445
0.00145969
-0.00194434
0.00144801
-0.00619085
0.00142611
-0.00928822
0.00141307
-0.0115064
0.00141546
-0.0102948
0.00142562
-0.00809629
0.00143484
-0.00268373
0.00143668
0.00263587
0.00143744
0.00750603
0.00143448
0.0119356
0.00143
0.0105434
0.00141795
0.010178
0.00139316
0.00309874
0.00136771
-0.00244677
0.00134485
-0.00669745
0.001338
-0.0134548
-0.00628276
0.00156289
0.00845626
0.00154364
0.0108008
0.00150811
0.011446
0.00147415
0.0103777
0.00145567
0.00698572
0.00145582
0.0027443
0.00145772
-0.00194624
0.00144541
-0.00617854
0.00142261
-0.00926541
0.00140912
-0.0114929
0.00141202
-0.0102977
0.0014234
-0.00810767
0.00143422
-0.00269456
0.00143754
0.00263255
0.00143967
0.0075039
0.00143723
0.011938
0.00143269
0.010548
0.00142016
0.0101905
0.00139445
0.00312446
0.00136845
-0.00242077
0.00134471
-0.00667371
0.00133804
-0.0134481
-0.00628144
0.00156612
0.00844111
0.00154781
0.0108191
0.00151199
0.0114818
0.00147648
0.0104132
0.00145592
0.00700627
0.00145457
0.00274566
0.00145567
-0.00194735
0.00144279
-0.00616566
0.0014191
-0.00924172
0.00140514
-0.0114789
0.00140851
-0.0103011
0.00142112
-0.00812028
0.00143358
-0.00270702
0.00143839
0.00262774
0.00144189
0.0075004
0.00143997
0.0119399
0.0014354
0.0105526
0.00142242
0.0102035
0.00139581
0.00315107
0.00136928
-0.00239424
0.00134467
-0.00664911
0.0013382
-0.0134416
-0.00628112
0.00156923
0.00842429
0.00155189
0.0108364
0.00151582
0.0115179
0.00147875
0.0104503
0.0014561
0.00702892
0.00145322
0.00274854
0.00145357
-0.00194769
0.00144015
-0.00615224
0.00141558
-0.00921715
0.00140113
-0.0114645
0.00140495
-0.0103049
0.00141878
-0.0081341
0.0014329
-0.00272114
0.00143923
0.00262142
0.0014441
0.00749553
0.00144272
0.0119413
0.0014381
0.0105572
0.00142471
0.0102169
0.00139725
0.00317854
0.00137021
-0.00236721
0.00134475
-0.00662364
0.00133846
-0.0134354
-0.0062818
0.00157218
0.00840572
0.00155589
0.0108527
0.0015196
0.0115542
0.00148097
0.0104889
0.00145621
0.00705368
0.00145179
0.00275296
0.00145139
-0.00194729
0.00143748
-0.00613833
0.00141206
-0.00919173
0.00139708
-0.0114495
0.00140133
-0.0103092
0.00141639
-0.00814916
0.00143219
-0.00273693
0.00144005
0.00261355
0.00144631
0.00748927
0.00144546
0.0119422
0.00144081
0.0105618
0.00142704
0.0102307
0.00139876
0.00320682
0.00137125
-0.0023397
0.00134494
-0.00659734
0.00133882
-0.0134292
-0.00628348
0.00157499
0.00838535
0.0015598
0.0108679
0.00152332
0.0115906
0.00148315
0.0105291
0.00145625
0.00708058
0.00145027
0.00275893
0.00144915
-0.00194616
0.0014348
-0.00612398
0.00140854
-0.00916547
0.00139301
-0.011434
0.00139766
-0.0103138
0.00141394
-0.00816544
0.00143144
-0.00275443
0.00144086
0.00260413
0.0014485
0.00748163
0.00144819
0.0119425
0.00144353
0.0105665
0.0014294
0.0102448
0.00140034
0.00323589
0.00137238
-0.00231174
0.00134524
-0.00657021
0.00133929
-0.0134233
-0.00628617
0.00157764
0.00836309
0.00156361
0.010882
0.00152699
0.0116273
0.00148527
0.0105708
0.00145622
0.00710963
0.00144867
0.00276649
0.00144683
-0.00194433
0.00143209
-0.00610924
0.00140501
-0.00913839
0.0013889
-0.0114179
0.00139392
-0.0103188
0.00141143
-0.00818294
0.00143065
-0.00277365
0.00144164
0.00259313
0.00145068
0.00747259
0.00145091
0.0119422
0.00144624
0.0105711
0.0014318
0.0102592
0.00140199
0.00326569
0.00137361
-0.00228335
0.00134566
-0.00654226
0.00133987
-0.0134175
-0.00628986
0.00158012
0.00833889
0.00156732
0.0108948
0.0015306
0.011664
0.00148736
0.0106141
0.00145614
0.00714085
0.00144698
0.00277565
0.00144445
-0.00194181
0.00142937
-0.00609416
0.00140149
-0.00911051
0.00138478
-0.0114012
0.00139014
-0.0103242
0.00140886
-0.00820166
0.00142982
-0.0027946
0.0014424
0.00258054
0.00145283
0.00746216
0.00145361
0.0119415
0.00144895
0.0105758
0.00143422
0.010274
0.00140371
0.0032962
0.00137494
-0.00225458
0.00134618
-0.00651351
0.00134056
-0.0134119
-0.00629457
0.00158243
0.00831266
0.00157092
0.0109063
0.00153415
0.0117007
0.0014894
0.0106588
0.00145599
0.00717427
0.0014452
0.00278644
0.001442
-0.00193861
0.00142662
-0.00607877
0.00139797
-0.00908186
0.00138062
-0.0113838
0.00138629
-0.0103299
0.00140623
-0.0082216
0.00142894
-0.00281732
0.00144314
0.00256635
0.00145497
0.00745033
0.0014563
0.0119401
0.00145165
0.0105804
0.00143667
0.0102889
0.0014055
0.00332737
0.00137636
-0.00222543
0.00134682
-0.00648397
0.00134134
-0.0134064
-0.00630029
0.00158455
0.00828435
0.0015744
0.0109164
0.00153764
0.0117375
0.00149141
0.0107051
0.00145579
0.00720988
0.00144335
0.00279889
0.00143948
-0.00193474
0.00142384
-0.00606313
0.00139445
-0.00905246
0.00137645
-0.0113658
0.00138239
-0.0103358
0.00140354
-0.00824275
0.00142802
-0.0028418
0.00144385
0.00255052
0.00145708
0.0074371
0.00145897
0.0119383
0.00145435
0.0105851
0.00143915
0.0103041
0.00140736
0.00335916
0.00137789
-0.00219595
0.00134757
-0.00645366
0.00134224
-0.0134011
-0.00630702
0.00158648
0.00825386
0.00157776
0.0109252
0.00154107
0.0117742
0.00149338
0.0107528
0.00145555
0.00724771
0.00144142
0.00281302
0.00143689
-0.00193021
0.00142104
-0.00604728
0.00139093
-0.00902235
0.00137225
-0.0113472
0.00137844
-0.010342
0.00140079
-0.0082651
0.00142705
-0.00286806
0.00144452
0.00253305
0.00145916
0.00742246
0.00146161
0.0119358
0.00145703
0.0105896
0.00144165
0.0103195
0.00140929
0.00339152
0.00137951
-0.00216617
0.00134844
-0.00642259
0.00134323
-0.0133958
-0.00631476
0.0015882
0.00822115
0.001581
0.0109324
0.00154443
0.0118108
0.00149531
0.0108019
0.00145525
0.00728777
0.00143941
0.00282886
0.00143422
-0.00192503
0.00141821
-0.00603127
0.00138741
-0.00899155
0.00136804
-0.0113278
0.00137443
-0.0103484
0.00139797
-0.00828864
0.00142603
-0.00289613
0.00144516
0.00251393
0.00146121
0.00740641
0.00146423
0.0119328
0.0014597
0.0105942
0.00144417
0.0103351
0.00141128
0.00342441
0.00138122
-0.00213611
0.00134941
-0.00639078
0.00134433
-0.0133908
-0.00632351
0.00158971
0.00818612
0.0015841
0.010938
0.00154772
0.0118471
0.00149721
0.0108524
0.00145492
0.00733006
0.00143733
0.00284645
0.00143148
-0.00191918
0.00141536
-0.00601515
0.0013839
-0.00896009
0.00136381
-0.0113077
0.00137037
-0.0103549
0.00139509
-0.00831336
0.00142496
-0.002926
0.00144576
0.00249313
0.00146322
0.00738894
0.00146682
0.0119292
0.00146236
0.0105986
0.00144671
0.0103507
0.00141334
0.00345778
0.00138303
-0.0021058
0.0013505
-0.00635824
0.00134554
-0.0133858
-0.00633327
0.001591
0.00814872
0.00158705
0.0109419
0.00155094
0.0118832
0.00149908
0.0109042
0.00145455
0.0073746
0.00143517
0.00286582
0.00142867
-0.00191268
0.00141247
-0.00599894
0.0013804
-0.00892802
0.00135957
-0.0112869
0.00136626
-0.0103616
0.00139214
-0.00833924
0.00142383
-0.00295769
0.00144631
0.00247065
0.0014652
0.00737006
0.00146937
0.011925
0.00146499
0.010603
0.00144927
0.0103664
0.00141546
0.00349159
0.00138494
-0.00207528
0.0013517
-0.006325
0.00134685
-0.013381
-0.00634403
0.00159205
0.00810887
0.00158985
0.0109441
0.00155408
0.011919
0.00150091
0.0109574
0.00145414
0.00742137
0.00143295
0.00288701
0.00142579
-0.00190551
0.00140955
-0.00598271
0.00137689
-0.00889536
0.00135532
-0.0112653
0.0013621
-0.0103684
0.00138913
-0.00836627
0.00142265
-0.0029912
0.00144682
0.00244648
0.00146713
0.00734975
0.00147189
0.0119202
0.0014676
0.0106073
0.00145184
0.0103822
0.00141764
0.00352579
0.00138694
-0.00204458
0.00135301
-0.00629108
0.00134826
-0.0133762
-0.0063558
0.00159285
0.0080665
0.00159249
0.0109445
0.00155713
0.0119544
0.00150271
0.0110118
0.00145369
0.00747038
0.00143066
0.00291004
0.00142282
-0.00189767
0.00140659
-0.00596647
0.00137339
-0.00886217
0.00135105
-0.0112429
0.00135789
-0.0103753
0.00138605
-0.00839444
0.0014214
-0.00302655
0.00144728
0.00242059
0.00146901
0.00732802
0.00147438
0.0119149
0.00147019
0.0106115
0.00145443
0.0103979
0.00141988
0.00356034
0.00138903
-0.00201373
0.00135443
-0.00625648
0.00134977
-0.0133715
-0.00636856
0.0015934
0.00802154
0.00159496
0.0109429
0.0015601
0.0119893
0.00150447
0.0110675
0.00145322
0.00752163
0.00142831
0.00293495
0.00141978
-0.00188915
0.00140359
-0.00595029
0.0013699
-0.00882847
0.00134678
-0.0112198
0.00135363
-0.0103821
0.00138291
-0.00842372
0.00142009
-0.00306373
0.00144769
0.00239299
0.00147085
0.00730487
0.00147682
0.0119089
0.00147274
0.0106156
0.00145702
0.0104137
0.00142218
0.00359518
0.00139121
-0.00198276
0.00135597
-0.00622124
0.00135138
-0.013367
-0.00638232
0.00159369
0.00797394
0.00159725
0.0109394
0.00156297
0.0120235
0.0015062
0.0111242
0.00145272
0.00757511
0.00142589
0.00296177
0.00141667
-0.00187992
0.00140056
-0.00593418
0.0013664
-0.00879431
0.00134249
-0.0111959
0.00134932
-0.0103889
0.00137969
-0.00845409
0.00141871
-0.00310275
0.00144805
0.00236365
0.00147263
0.00728028
0.00147923
0.0119023
0.00147527
0.0106195
0.00145962
0.0104293
0.00142453
0.00363026
0.00139348
-0.00195171
0.00135761
-0.00618537
0.0013531
-0.0133624
-0.00639706
0.00159369
0.00792361
0.00159935
0.0109337
0.00156573
0.0120571
0.00150788
0.0111821
0.00145219
0.0076308
0.00142342
0.00299055
0.00141347
-0.00186998
0.00139748
-0.00591818
0.00136291
-0.00875974
0.0013382
-0.0111712
0.00134496
-0.0103957
0.00137641
-0.00848553
0.00141727
-0.00314362
0.00144835
0.00233258
0.00147437
0.00725427
0.00148158
0.0118951
0.00147777
0.0106233
0.00146222
0.0104449
0.00142694
0.00366554
0.00139584
-0.00192061
0.00135937
-0.00614889
0.00135492
-0.013358
-0.00641278
0.00159341
0.0078705
0.00160124
0.0109259
0.00156839
0.01209
0.00150953
0.0112409
0.00145164
0.00768869
0.00142089
0.0030213
0.0014102
-0.00185929
0.00139435
-0.00590234
0.00135942
-0.00872481
0.00133391
-0.0111457
0.00134056
-0.0104023
0.00137305
-0.00851802
0.00141576
-0.00318633
0.00144859
0.00229975
0.00147604
0.00722682
0.00148389
0.0118872
0.00148023
0.010627
0.00146482
0.0104603
0.00142941
0.00370096
0.00139829
-0.00188949
0.00136123
-0.00611183
0.00135684
-0.0133536
-0.00642947
0.00159283
0.00781455
0.00160293
0.0109158
0.00157094
0.012122
0.00151114
0.0113007
0.00145107
0.00774876
0.0014183
0.00305407
0.00140685
-0.00184784
0.00139118
-0.00588666
0.00135593
-0.00868956
0.00132962
-0.0111194
0.00133611
-0.0104088
0.00136962
-0.00855153
0.00141418
-0.00323089
0.00144877
0.00226517
0.00147765
0.00719794
0.00148615
0.0118788
0.00148265
0.0106305
0.00146743
0.0104755
0.00143192
0.00373647
0.00140082
-0.00185839
0.00136321
-0.00607422
0.00135886
-0.0133493
-0.00644712
0.00159195
0.00775571
0.0016044
0.0109033
0.00157336
0.012153
0.00151269
0.0113614
0.00145048
0.00781098
0.00141566
0.00308889
0.00140342
-0.00183559
0.00138795
-0.00587119
0.00135244
-0.00865405
0.00132532
-0.0110923
0.00133161
-0.0104151
0.00136612
-0.00858604
0.00141253
-0.00327731
0.00144888
0.00222881
0.0014792
0.00716762
0.00148835
0.0118696
0.00148503
0.0106338
0.00147003
0.0104905
0.00143448
0.00377201
0.00140343
-0.00182735
0.00136529
-0.00603608
0.00136099
-0.013345
-0.00646572
0.00159074
0.00769392
0.00160563
0.0108884
0.00157565
0.012183
0.0015142
0.0114229
0.00144987
0.00787531
0.00141297
0.00312578
0.00139991
-0.00182253
0.00138466
-0.00585595
0.00134894
-0.00861833
0.00132102
-0.0110644
0.00132707
-0.0104212
0.00136254
-0.00862151
0.00141081
-0.00332557
0.00144893
0.00219069
0.00148069
0.00713586
0.0014905
0.0118598
0.00148736
0.010637
0.00147262
0.0105052
0.00143709
0.00380754
0.00140613
-0.00179639
0.00136748
-0.00599743
0.00136321
-0.0133407
-0.00648525
0.0015892
0.00762913
0.00160662
0.010871
0.00157779
0.0122118
0.00151566
0.011485
0.00144924
0.00794173
0.00141024
0.00316477
0.00139632
-0.0018086
0.00138132
-0.00584096
0.00134544
-0.00858245
0.00131672
-0.0110356
0.00132248
-0.0104269
0.00135889
-0.00865792
0.00140901
-0.00337568
0.00144892
0.00215078
0.00148211
0.00710267
0.0014926
0.0118493
0.00148966
0.0106399
0.0014752
0.0105197
0.00143974
0.003843
0.0014089
-0.00176556
0.00136978
-0.00595831
0.00136553
-0.0133364
-0.00650572
0.00158733
0.00756131
0.00160736
0.010851
0.00157979
0.0122394
0.00151706
0.0115477
0.0014486
0.0080102
0.00140747
0.0032059
0.00139265
-0.00179378
0.00137792
-0.00582623
0.00134193
-0.00854646
0.00131242
-0.0110061
0.00131785
-0.0104324
0.00135517
-0.00869524
0.00140713
-0.00342765
0.00144883
0.00210908
0.00148346
0.00706805
0.00149463
0.0118381
0.0014919
0.0106426
0.00147777
0.0105338
0.00144243
0.00387834
0.00141176
-0.00173488
0.00137219
-0.00591874
0.00136795
-0.0133322
-0.00652709
0.00158512
0.00749042
0.00160783
0.0108283
0.00158163
0.0122656
0.0015184
0.011611
0.00144794
0.00808065
0.00140465
0.00324919
0.0013889
-0.00177803
0.00137446
-0.00581178
0.00133842
-0.00851042
0.00130813
-0.0109758
0.00131318
-0.0104374
0.00135136
-0.00873342
0.00140518
-0.00348147
0.00144868
0.00206558
0.00148474
0.00703198
0.0014966
0.0118263
0.00149409
0.0106452
0.00148033
0.0105476
0.00144517
0.0039135
0.00141469
-0.00170439
0.0013747
-0.00587875
0.00137047
-0.013328
-0.00654936
0.00158256
0.00741645
0.00160803
0.0108028
0.00158331
0.0122903
0.00151967
0.0116746
0.00144727
0.00815305
0.00140181
0.00329465
0.00138507
-0.0017613
0.00137092
-0.00579763
0.00133489
-0.00847438
0.00130384
-0.0109448
0.00130846
-0.010442
0.00134748
-0.00877245
0.00140315
-0.00353714
0.00144846
0.00202028
0.00148595
0.00699449
0.00149852
0.0118137
0.00149624
0.0106474
0.00148287
0.0105609
0.00144794
0.00394843
0.00141769
-0.00167414
0.00137731
-0.00583837
0.00137308
-0.0133237
-0.00657251
0.00157966
0.00733936
0.00160796
0.0107745
0.00158481
0.0123135
0.00152088
0.0117385
0.0014466
0.00822733
0.00139893
0.00334233
0.00138117
-0.00174354
0.00136732
-0.00578378
0.00133135
-0.00843841
0.00129954
-0.010913
0.0013037
-0.0104462
0.00134352
-0.00881227
0.00140105
-0.00359467
0.00144817
0.00197316
0.0014871
0.00695556
0.00150037
0.0118004
0.00149833
0.0106495
0.00148539
0.0105739
0.00145075
0.00398307
0.00142076
-0.00164415
0.00138003
-0.00579765
0.00137579
-0.0133195
-0.00659652
0.00157642
0.00725915
0.00160761
0.0107433
0.00158614
0.0123349
0.00152204
0.0118026
0.00144595
0.00830342
0.00139604
0.00339223
0.0013772
-0.00172469
0.00136365
-0.00577023
0.00132779
-0.00840256
0.00129525
-0.0108804
0.00129889
-0.0104498
0.00133948
-0.00885286
0.00139886
-0.00365405
0.00144781
0.00192421
0.00148818
0.00691519
0.00150217
0.0117864
0.00150038
0.0106513
0.0014879
0.0105864
0.00145359
0.00401737
0.00142391
-0.00161446
0.00138286
-0.0057566
0.00137859
-0.0133152
-0.00662137
0.00157289
0.00717581
0.00160701
0.0107092
0.00158731
0.0123546
0.00152314
0.0118668
0.00144529
0.00838127
0.00139311
0.00344441
0.00137312
-0.0017047
0.00135988
-0.00575698
0.0013242
-0.00836688
0.00129096
-0.0108472
0.00129405
-0.0104529
0.00133537
-0.00889418
0.0013966
-0.00371528
0.0014474
0.00187341
0.0014892
0.00687339
0.00150392
0.0117717
0.00150238
0.0106528
0.00149038
0.0105984
0.00145647
0.00405129
0.00142712
-0.00158511
0.00138578
-0.00571526
0.00138148
-0.0133109
-0.00664704
0.00156938
0.00708948
0.0016063
0.0106723
0.00158828
0.0123727
0.001524
0.0119311
0.00144427
0.00846101
0.0013898
0.00349887
0.00136863
-0.00168353
0.00135593
-0.00574428
0.00132053
-0.00833148
0.00128671
-0.0108134
0.00128933
-0.0104555
0.00133127
-0.00893612
0.00139445
-0.00377846
0.001447
0.00182085
0.00149028
0.00683011
0.00150565
0.0117563
0.00150431
0.0106541
0.00149292
0.0106098
0.00145919
0.00408501
0.00143048
-0.0015564
0.0013887
-0.00567348
0.0013843
-0.0133065
-0.00667369
0.00488876
0.00703598
0.00487393
0.0106871
0.00480355
0.0124431
0.00471566
0.0120189
0.00466808
0.00850859
0.00472543
0.00344152
0.00484068
-0.00179878
0.00491615
-0.00581975
0.00484818
-0.00826351
0.00471841
-0.0106836
0.00463882
-0.010376
0.00462877
-0.00892607
0.00467135
-0.00382104
0.00470064
0.00179157
0.00474315
0.0067876
0.00476254
0.011737
0.00477282
0.0106438
0.00478951
0.0105931
0.00472329
0.00415123
0.00466415
-0.00149726
0.00450858
-0.0055179
0.00444929
-0.0132472
-0.0067212
0.00505461
0.00697023
0.00505077
0.0106909
0.00498596
0.0125079
0.00489567
0.0121092
0.00483779
0.00856647
0.00489233
0.00338698
0.00500921
-0.00191566
0.00509208
-0.00590262
0.00502063
-0.00819206
0.00487594
-0.0105389
0.00478234
-0.0102824
0.00476836
-0.0089121
0.00481967
-0.00387234
0.00485386
0.00175739
0.00490521
0.00673625
0.00492313
0.011719
0.00493145
0.0106355
0.00495545
0.0105691
0.00488706
0.00421962
0.00483306
-0.00144326
0.00466481
-0.00534965
0.00459543
-0.0131778
-0.00677202
0.00522826
0.00689143
0.00523618
0.010683
0.00517853
0.0125655
0.00508872
0.012199
0.00502529
0.0086299
0.00507483
0.00333745
0.00519166
-0.00203249
0.00527873
-0.00598969
0.00520338
-0.00811671
0.00504266
-0.0103782
0.00493339
-0.0101731
0.00491495
-0.00889365
0.00497489
-0.00393228
0.00501572
0.00171656
0.0050735
0.00667846
0.00509082
0.0117017
0.00509685
0.0106295
0.00512713
0.0105388
0.00506248
0.00428427
0.00501078
-0.00139156
0.00483181
-0.00517069
0.00475062
-0.0130967
-0.00682499
0.00541062
0.00679742
0.0054326
0.010661
0.00538447
0.0126137
0.00529765
0.0122859
0.00523042
0.00869714
0.00527412
0.00329375
0.0053876
-0.00214597
0.00547653
-0.00607862
0.00539671
-0.0080369
0.00521909
-0.0102006
0.00509229
-0.0100463
0.00506804
-0.0088694
0.00513752
-0.00400176
0.00518571
0.00166836
0.00525036
0.00661381
0.00526666
0.0116854
0.00526952
0.0106266
0.00530656
0.0105018
0.00524741
0.00434342
0.00519905
-0.00134321
0.00500957
-0.0049812
0.00491502
-0.0130021
-0.00687913
0.0056017
0.00668561
0.00564059
0.0106222
0.00560462
0.0126496
0.0055235
0.012367
0.00545458
0.00876606
0.00549156
0.00325677
0.00559806
-0.00225247
0.005686
-0.00616655
0.00560096
-0.00795186
0.0054057
-0.0100053
0.00525947
-0.00990007
0.00522787
-0.0088378
0.00530753
-0.00408142
0.00536407
0.00161183
0.00543611
0.00654177
0.00545116
0.0116704
0.00544976
0.010628
0.00549383
0.0104577
0.00544212
0.00439513
0.00539839
-0.00129948
0.00519869
-0.0047815
0.00508914
-0.0128925
-0.00693329
0.00580143
0.00655321
0.00586021
0.0105634
0.00583924
0.0126706
0.00576718
0.012439
0.0056992
0.00883403
0.00572848
0.00322749
0.00582412
-0.00234811
0.00590761
-0.00625004
0.00581634
-0.00786059
0.00560284
-0.00979181
0.00543536
-0.00973259
0.00539457
-0.00879701
0.005485
-0.00417185
0.00555104
0.00154579
0.0056311
0.0064617
0.00564473
0.0116567
0.00563782
0.0106349
0.00568907
0.0104064
0.00564693
0.00443727
0.00560932
-0.00126186
0.00539977
-0.00457196
0.0052735
-0.0127663
-0.00698613
0.00600957
0.00639745
0.00609115
0.0104818
0.00608834
0.0126734
0.00602936
0.012498
0.00596524
0.00889816
0.00598596
0.00320677
0.00606669
-0.00242884
0.00614171
-0.00632506
0.0060429
-0.00776179
0.00581077
-0.00955968
0.0056203
-0.00954212
0.00556826
-0.00874497
0.00566989
-0.00427348
0.00574681
0.00146887
0.00583566
0.00637285
0.00584782
0.0116446
0.00583403
0.0106487
0.00589247
0.010348
0.00586216
0.00446759
0.00583231
-0.00123202
0.00561336
-0.004353
0.00546856
-0.0126215
-0.00703612
0.00622563
0.0062157
0.00633286
0.0103746
0.00635172
0.0126545
0.00631025
0.0125395
0.00625307
0.00895534
0.00626468
0.00319515
0.00632645
-0.00249061
0.00638852
-0.00638712
0.00628058
-0.00765385
0.00602964
-0.00930874
0.00581465
-0.00932712
0.00574905
-0.00867938
0.00586208
-0.0043865
0.00595147
0.00137947
0.00605009
0.00627423
0.00606093
0.0116337
0.00603883
0.0106708
0.00610427
0.0102826
0.00608812
0.00448373
0.00606784
-0.00121174
0.00583996
-0.00412512
0.00567475
-0.0124563
-0.00708159
0.0064489
0.00600563
0.00658455
0.0102389
0.00662883
0.0126103
0.00660941
0.0125589
0.00656246
0.00900228
0.0065648
0.00319281
0.00660378
-0.00252959
0.00664806
-0.00643141
0.0065291
-0.00753489
0.00625943
-0.00903907
0.00601867
-0.00908636
0.00593704
-0.00859775
0.00606133
-0.00451079
0.006165
0.0012758
0.00627466
0.00616457
0.00628463
0.0116238
0.00625288
0.0107026
0.00632486
0.0102106
0.0063252
0.00448338
0.00631634
-0.00120287
0.00608003
-0.00388882
0.00589245
-0.0122687
-0.00712068
0.00667841
0.00576537
0.0068451
0.0100722
0.00691863
0.0125367
0.0069258
0.0125517
0.0068925
0.00903559
0.00688586
0.00319945
0.00689862
-0.00254235
0.00692013
-0.00645292
0.00678798
-0.00740274
0.00649994
-0.00875102
0.00623259
-0.00881902
0.00613232
-0.00849747
0.00626732
-0.0046458
0.0063872
0.00115592
0.00650951
0.00604226
0.00651953
0.0116138
0.00647704
0.0107451
0.00655486
0.0101328
0.00657384
0.00446441
0.00657818
-0.00120721
0.00633397
-0.0036446
0.00612195
-0.0120567
-0.00715135
0.00691298
0.00549369
0.00711305
0.00987216
0.00721955
0.0124302
0.00725768
0.0125136
0.00724149
0.00905177
0.00722668
0.00321426
0.0072104
-0.00252607
0.00720422
-0.00644673
0.00705651
-0.00725503
0.00675076
-0.00844527
0.00645654
-0.0085248
0.00633494
-0.00837588
0.00647959
-0.00479045
0.00661768
0.00101783
0.00675463
0.00590531
0.00676627
0.0116021
0.00671247
0.0107989
0.00679523
0.01005
0.00683455
0.0044251
0.00685372
-0.00122638
0.00660207
-0.00339296
0.00636347
-0.0118181
-0.00717141
0.00715118
0.00519023
0.00738656
0.00963678
0.00752946
0.0122873
0.00760262
0.0124405
0.00760701
0.00904738
0.00758534
0.00323593
0.00753795
-0.00247868
0.00749945
-0.00640822
0.00733371
-0.0070893
0.00701123
-0.00812279
0.00669051
-0.00820408
0.00654497
-0.00823033
0.00669753
-0.00494301
0.00685576
0.000859601
0.00700974
0.00575133
0.00702546
0.0115864
0.00696064
0.0108637
0.00704727
0.00996337
0.00710799
0.00436437
0.00714317
-0.00126156
0.0068845
-0.00313429
0.00661713
-0.0115507
-0.00717853
0.00739137
0.00485557
0.00766342
0.00936473
0.00784568
0.0121051
0.00795749
0.0123286
0.00798587
0.009019
0.00795915
0.00326265
0.00787946
-0.002399
0.00780458
-0.00633334
0.00761837
-0.00690309
0.00728047
-0.00778488
0.0069344
-0.00785801
0.00676243
-0.00805837
0.00692042
-0.005101
0.00710043
0.000679589
0.00727423
0.00557753
0.00729757
0.0115631
0.00722329
0.010938
0.00731268
0.00987399
0.00739492
0.00428213
0.00744664
-0.00131327
0.00718128
-0.00286893
0.00688288
-0.0112523
-0.00717023
0.00763171
0.00449138
0.00794107
0.00905537
0.008165
0.0118811
0.00831854
0.0121751
0.00837415
0.00896338
0.0083447
0.0032921
0.00823245
-0.00228674
0.00811793
-0.00621882
0.00790901
-0.00669417
0.0075573
-0.00743317
0.00718789
-0.00748861
0.00698736
-0.00785783
0.00714739
-0.00526103
0.00735033
0.000476646
0.00754704
0.00538082
0.00758284
0.0115273
0.00750233
0.0110185
0.00759351
0.0097828
0.00769618
0.00417946
0.00776401
-0.00138111
0.00749218
-0.0025971
0.00716054
-0.0109207
-0.00714391