/*--------------------------------*- C++ -*----------------------------------*\
  =========                 |
  \\      /  F ield         | OpenFOAM: The Open Source CFD Toolbox
   \\    /   O peration     | Website:  https://openfoam.org
    \\  /    A nd           | Version:  7
     \\/     M anipulation  |
\*---------------------------------------------------------------------------*/
FoamFile
{
    version     2.0;
    format      ascii;
    class       volVectorField;
    location    "100";
    object      U;
}
// * * * * * * * * * * * * * * * * * * * * * * * * * * * * * * * * * * * * * //

dimensions      [0 1 -1 0 0 0 0];

internalField   nonuniform List<vector> 
4575
(
(0.826115 0.286407 -6.43269e-23)
(0.818351 0.348405 5.30249e-23)
(0.800129 0.359488 -6.95276e-23)
(0.786628 0.321601 -5.54422e-23)
(0.782869 0.215637 -1.15127e-22)
(0.79166 0.0866746 -1.71642e-23)
(0.802948 -0.0568888 3.94118e-23)
(0.808296 -0.186249 5.21973e-23)
(0.802043 -0.276052 -2.04791e-23)
(0.797115 -0.333115 -4.68755e-23)
(0.79369 -0.2901 -1.53382e-23)
(0.796739 -0.222825 6.37324e-23)
(0.795768 -0.0723163 1.23296e-23)
(0.795179 0.0693869 -6.14104e-23)
(0.787009 0.195874 5.50071e-23)
(0.78599 0.306712 1.48466e-23)
(0.781762 0.266333 -8.28702e-24)
(0.785947 0.251282 -4.74515e-24)
(0.777976 0.0710893 -1.41368e-23)
(0.773587 -0.0641047 -7.94299e-24)
(0.759745 -0.162626 9.93916e-25)
(0.76139 -0.314265 -2.27101e-23)
(0.753273 -0.144825 2.0889e-23)
(0.825728 0.286265 3.92857e-23)
(0.818009 0.349169 -1.60464e-22)
(0.799897 0.360444 3.92078e-23)
(0.78637 0.322145 -1.47679e-22)
(0.782503 0.215552 5.97645e-23)
(0.791375 0.0861556 -1.45065e-22)
(0.803025 -0.0573048 -1.41034e-22)
(0.80863 -0.186194 -1.95533e-22)
(0.802309 -0.275724 5.49299e-24)
(0.7971 -0.332893 1.14376e-22)
(0.793573 -0.2901 -9.42312e-23)
(0.796602 -0.222909 -7.1431e-23)
(0.79559 -0.0723075 2.01167e-24)
(0.79504 0.0695617 1.20186e-23)
(0.787085 0.196065 -3.50192e-23)
(0.786491 0.306817 -4.75218e-23)
(0.782408 0.26634 2.03295e-22)
(0.78672 0.25137 -8.82417e-23)
(0.778527 0.0713899 -1.73492e-22)
(0.773782 -0.0637069 5.59894e-23)
(0.759765 -0.162347 -9.38888e-23)
(0.760627 -0.314139 -3.11751e-23)
(0.753266 -0.144662 -4.20182e-23)
(0.825434 0.286085 -2.07134e-22)
(0.817763 0.349909 3.1008e-23)
(0.799754 0.361406 6.31245e-23)
(0.786185 0.322727 3.7841e-22)
(0.782195 0.215521 2.58383e-23)
(0.791143 0.085681 7.02389e-22)
(0.803165 -0.0576854 -6.97608e-23)
(0.809042 -0.186106 3.48506e-22)
(0.802659 -0.275362 -2.48258e-22)
(0.797152 -0.332657 -1.15477e-22)
(0.793504 -0.290113 2.62004e-22)
(0.79651 -0.223018 1.48327e-22)
(0.795466 -0.0723337 1.38371e-22)
(0.794969 0.0697022 3.90845e-23)
(0.787236 0.196219 4.97232e-23)
(0.787058 0.306902 9.76917e-23)
(0.783114 0.266346 -2.14635e-22)
(0.787551 0.25147 6.05386e-23)
(0.779145 0.0717184 2.2445e-22)
(0.774049 -0.0632895 8.01738e-23)
(0.75986 -0.162042 1.02817e-22)
(0.759933 -0.314011 1.0959e-22)
(0.753326 -0.144516 3.32603e-23)
(0.825231 0.285863 2.91428e-22)
(0.817615 0.350624 -3.22858e-22)
(0.7997 0.362373 -5.93552e-23)
(0.786074 0.32335 -7.06822e-23)
(0.781948 0.215545 -8.19755e-23)
(0.790965 0.0852508 -2.76009e-22)
(0.803365 -0.0580315 2.1151e-22)
(0.809532 -0.185985 -4.15156e-22)
(0.803091 -0.274966 8.59165e-23)
(0.797271 -0.332408 2.30693e-22)
(0.793483 -0.290138 -3.65284e-22)
(0.796463 -0.223155 -2.31191e-22)
(0.795397 -0.0723954 -3.81429e-23)
(0.794966 0.0698079 1.53397e-22)
(0.787461 0.196335 -1.31846e-22)
(0.787692 0.306968 2.4541e-23)
(0.78388 0.266349 4.1718e-22)
(0.78844 0.251582 -1.52503e-22)
(0.77983 0.0720746 1.10016e-22)
(0.774388 -0.0628528 -1.03118e-22)
(0.760032 -0.16171 -8.32021e-23)
(0.759308 -0.31388 6.36502e-23)
(0.753453 -0.144388 -7.7461e-24)
(0.825121 0.2856 -5.50663e-23)
(0.817563 0.351313 4.77307e-22)
(0.799736 0.363346 1.9428e-24)
(0.78604 0.324014 2.74551e-22)
(0.781763 0.215626 -3.56556e-22)
(0.79084 0.0848653 -1.39347e-22)
(0.803628 -0.0583439 1.45875e-22)
(0.8101 -0.185832 4.336e-22)
(0.803608 -0.274536 3.72478e-22)
(0.797457 -0.332143 -7.20453e-22)
(0.793511 -0.290173 5.55897e-22)
(0.79646 -0.223317 3.13191e-22)
(0.795383 -0.0724932 -3.60842e-23)
(0.79503 0.0698783 2.16396e-23)
(0.787759 0.196414 3.44963e-22)
(0.788391 0.307015 -2.45833e-22)
(0.784704 0.266351 -3.35234e-22)
(0.789387 0.251706 3.30243e-22)
(0.780581 0.0724579 -8.33661e-23)
(0.774799 -0.062397 -1.36056e-22)
(0.760281 -0.161352 8.70646e-23)
(0.758752 -0.313746 -1.04193e-22)
(0.753646 -0.144277 -8.22726e-23)
(0.825101 0.285293 3.58995e-22)
(0.817608 0.351975 -5.58065e-22)
(0.799864 0.364324 -1.1467e-22)
(0.786083 0.32472 -2.99404e-23)
(0.781642 0.215763 8.97322e-22)
(0.790771 0.0845247 -5.61266e-22)
(0.803951 -0.0586236 -2.6068e-22)
(0.810746 -0.185648 -1.57886e-22)
(0.804209 -0.274072 5.38616e-22)
(0.797711 -0.331863 3.56884e-22)
(0.793587 -0.290219 6.00801e-23)
(0.796501 -0.223506 -2.39424e-22)
(0.795423 -0.0726276 3.8066e-22)
(0.795161 0.069913 -1.41826e-22)
(0.788129 0.196456 -5.22565e-22)
(0.789154 0.307045 1.09128e-22)
(0.785587 0.266352 -3.92429e-23)
(0.79039 0.251842 -1.12803e-22)
(0.7814 0.0728681 -1.53859e-22)
(0.775283 -0.0619224 5.63219e-23)
(0.760606 -0.160967 1.01802e-22)
(0.758266 -0.313609 -2.72387e-24)
(0.753905 -0.144184 6.29695e-23)
(0.825172 0.28494 5.17129e-22)
(0.817749 0.352609 8.03865e-22)
(0.800083 0.365309 1.12862e-21)
(0.786207 0.325469 -2.22961e-22)
(0.781587 0.21596 -7.25857e-22)
(0.790758 0.0842294 3.4864e-23)
(0.804336 -0.0588712 3.40842e-22)
(0.811469 -0.185435 -1.78503e-22)
(0.804894 -0.273574 -5.09417e-22)
(0.798034 -0.331566 -1.73194e-23)
(0.793713 -0.290274 -5.63161e-22)
(0.796588 -0.223722 2.9666e-22)
(0.795517 -0.0727991 -7.2631e-23)
(0.795358 0.0699115 -1.55669e-22)
(0.788571 0.19646 4.82919e-22)
(0.789982 0.307056 -2.78112e-22)
(0.786527 0.266351 4.2225e-23)
(0.791449 0.251989 4.51823e-23)
(0.782286 0.0733045 2.98389e-22)
(0.775839 -0.0614292 -1.70435e-22)
(0.761009 -0.160555 -1.39086e-22)
(0.75785 -0.313469 -1.0333e-22)
(0.75423 -0.144109 6.83904e-23)
(0.825333 0.28454 -6.69006e-22)
(0.817987 0.353215 3.63735e-22)
(0.800396 0.366301 -3.69845e-22)
(0.786413 0.326262 -1.04856e-21)
(0.7816 0.216215 -1.21449e-22)
(0.790802 0.0839796 5.28939e-22)
(0.80478 -0.0590876 -6.27423e-23)
(0.812269 -0.185193 6.14337e-22)
(0.805664 -0.273041 -6.26488e-22)
(0.798425 -0.33125 -1.93164e-22)
(0.793889 -0.290338 8.79762e-23)
(0.796719 -0.223964 -5.44526e-22)
(0.795666 -0.0730084 -2.6807e-22)
(0.795621 0.0698734 -1.35383e-22)
(0.789083 0.196428 -3.05661e-23)
(0.790872 0.307049 3.29315e-22)
(0.787524 0.266349 4.88322e-22)
(0.792564 0.252147 -8.18456e-22)
(0.783239 0.0737667 -6.17554e-22)
(0.776468 -0.0609177 -2.92016e-22)
(0.76149 -0.160117 2.86926e-22)
(0.757504 -0.313325 -2.36031e-23)
(0.75462 -0.144051 8.52206e-23)
(0.825582 0.284091 -6.39742e-22)
(0.818321 0.35379 -1.51362e-22)
(0.800802 0.367298 7.42834e-22)
(0.786702 0.327099 1.38442e-21)
(0.781682 0.216531 -9.57561e-22)
(0.790903 0.0837758 1.26818e-21)
(0.805285 -0.0592734 7.4506e-22)
(0.813144 -0.184923 -4.11171e-22)
(0.806518 -0.272475 5.64247e-22)
(0.798885 -0.330915 2.67339e-22)
(0.794114 -0.290409 8.69523e-23)
(0.796894 -0.224232 -9.67939e-23)
(0.795868 -0.0732558 -9.03426e-23)
(0.795951 0.0697985 2.37884e-22)
(0.789664 0.196358 -2.69066e-23)
(0.791824 0.307025 -5.64205e-22)
(0.788576 0.266345 -8.38594e-22)
(0.793733 0.252316 5.72552e-22)
(0.784258 0.0742542 4.44e-22)
(0.777168 -0.0603882 5.60274e-23)
(0.76205 -0.159652 -2.62711e-22)
(0.757229 -0.313177 -1.6531e-22)
(0.755074 -0.14401 -3.45943e-23)
(0.825919 0.283592 1.05763e-22)
(0.818749 0.354336 -1.31039e-21)
(0.801302 0.368302 -1.78041e-22)
(0.787077 0.327982 -5.73767e-23)
(0.781837 0.216908 1.11576e-21)
(0.791064 0.0836186 -1.79743e-21)
(0.80585 -0.0594295 -8.18448e-22)
(0.814095 -0.184627 -1.18252e-21)
(0.807457 -0.271874 -6.17807e-23)
(0.799415 -0.33056 -5.6845e-22)
(0.794388 -0.290488 1.45551e-22)
(0.797114 -0.224527 1.10906e-21)
(0.796124 -0.0735418 4.21639e-22)
(0.796345 0.0696863 3.11691e-24)
(0.790314 0.196251 4.10095e-22)
(0.792837 0.306984 5.3749e-22)
(0.789683 0.266341 6.36014e-22)
(0.794957 0.252495 1.04052e-21)
(0.785344 0.0747664 -6.72814e-22)
(0.777941 -0.059841 -1.33807e-22)
(0.762688 -0.159161 5.8808e-22)
(0.757025 -0.313025 4.05811e-22)
(0.755593 -0.143986 -1.62556e-22)
(0.826342 0.283039 1.14749e-21)
(0.819273 0.354849 1.49357e-22)
(0.801897 0.369312 -1.36684e-21)
(0.787538 0.328911 -3.02717e-22)
(0.782065 0.217348 -3.63429e-22)
(0.791284 0.0835085 -1.66341e-22)
(0.806474 -0.0595563 7.50384e-22)
(0.815121 -0.184306 8.99712e-22)
(0.80848 -0.271238 -6.99965e-22)
(0.800014 -0.330184 1.84818e-21)
(0.794713 -0.290573 -4.79026e-22)
(0.797378 -0.224848 -8.7176e-22)
(0.796432 -0.0738667 -2.50328e-22)
(0.796803 0.0695366 1.56096e-22)
(0.791031 0.196108 -1.35092e-22)
(0.79391 0.306926 4.18339e-22)
(0.790844 0.266336 -1.65034e-23)
(0.796233 0.252683 -1.15068e-21)
(0.786496 0.0753028 3.71483e-22)
(0.778787 -0.0592766 5.86804e-22)
(0.763404 -0.158643 -5.55372e-22)
(0.756891 -0.312868 -4.36441e-22)
(0.756176 -0.143979 1.10095e-22)
(0.82685 0.282432 2.00319e-22)
(0.81989 0.355328 -5.77431e-22)
(0.802587 0.370327 9.90956e-23)
(0.788087 0.329886 9.11327e-22)
(0.782368 0.217851 4.63177e-22)
(0.791565 0.0834461 1.00666e-21)
(0.807156 -0.0596545 1.55375e-21)
(0.81622 -0.183959 -1.33912e-22)
(0.809587 -0.270569 7.26745e-22)
(0.800684 -0.329786 -4.1767e-22)
(0.795087 -0.290662 4.96092e-22)
(0.797687 -0.225195 3.54038e-22)
(0.796794 -0.0742309 -5.99397e-22)
(0.797326 0.0693491 6.23262e-24)
(0.791814 0.195928 -1.87588e-22)
(0.795042 0.306852 -6.82e-22)
(0.792057 0.26633 4.65526e-22)
(0.797561 0.252882 -5.03455e-22)
(0.787713 0.0758628 -2.94058e-22)
(0.779704 -0.0586952 -1.66708e-22)
(0.7642 -0.158099 1.3443e-22)
(0.756829 -0.312707 1.98549e-22)
(0.756822 -0.143989 -1.1366e-22)
(0.827441 0.281769 -8.59337e-22)
(0.820601 0.355773 -3.81254e-22)
(0.803373 0.371346 6.351e-22)
(0.788727 0.330907 -9.69188e-22)
(0.782749 0.218418 2.25427e-22)
(0.791907 0.0834321 1.92618e-22)
(0.807897 -0.0597245 -3.73088e-21)
(0.817392 -0.18359 1.09414e-22)
(0.810779 -0.269866 -1.65285e-21)
(0.801425 -0.329364 -9.67832e-22)
(0.795512 -0.290756 3.94166e-22)
(0.798039 -0.225568 -2.34576e-22)
(0.797207 -0.0746348 4.36595e-22)
(0.797911 0.0691237 8.80001e-23)
(0.792662 0.195712 -6.58191e-22)
(0.796232 0.306761 6.4451e-22)
(0.793322 0.266323 -3.07169e-22)
(0.79894 0.253089 1.47609e-21)
(0.788996 0.0764458 -2.95314e-22)
(0.780693 -0.0580971 2.00782e-23)
(0.765075 -0.157528 9.59327e-23)
(0.756839 -0.31254 1.04492e-22)
(0.757531 -0.144016 4.15513e-23)
(0.828114 0.281048 1.51965e-21)
(0.821403 0.356182 6.44266e-22)
(0.804255 0.37237 -3.01345e-22)
(0.789457 0.331975 4.89769e-22)
(0.783208 0.21905 2.27269e-21)
(0.792313 0.0834674 -2.29869e-21)
(0.808695 -0.0597669 2.73659e-21)
(0.818636 -0.183199 -3.657e-23)
(0.812053 -0.269129 1.19185e-21)
(0.802236 -0.328917 9.44738e-22)
(0.795987 -0.290853 -7.48221e-22)
(0.798436 -0.225966 -1.93937e-22)
(0.797671 -0.0750785 -1.33001e-22)
(0.798559 0.06886 -6.34082e-22)
(0.793575 0.19546 5.07122e-22)
(0.797479 0.306655 -1.72192e-22)
(0.794638 0.266316 3.31916e-22)
(0.800369 0.253305 -7.30145e-23)
(0.790344 0.0770511 -1.08044e-22)
(0.781753 -0.0574829 -5.22477e-22)
(0.766029 -0.156931 -9.97568e-22)
(0.756919 -0.312368 -4.49483e-23)
(0.758302 -0.144059 -1.70859e-23)
(0.828867 0.280266 -2.54288e-22)
(0.822297 0.356552 -6.59624e-22)
(0.805233 0.373397 -4.95474e-22)
(0.79028 0.333089 -2.91672e-21)
(0.783748 0.219749 -3.18329e-22)
(0.792782 0.0835526 4.25453e-22)
(0.80955 -0.0597819 -3.8336e-21)
(0.81995 -0.182786 5.05044e-22)
(0.813411 -0.268359 1.88141e-22)
(0.803119 -0.328445 6.16762e-22)
(0.796513 -0.290951 3.00705e-23)
(0.798876 -0.22639 5.9931e-22)
(0.798187 -0.0755624 2.99049e-22)
(0.799268 0.0685579 6.53991e-22)
(0.79455 0.195172 -4.70488e-22)
(0.798782 0.306533 -3.01437e-22)
(0.796004 0.266308 -8.64139e-22)
(0.801847 0.253529 2.53715e-22)
(0.791756 0.0776782 1.52418e-21)
(0.782885 -0.0568528 1.57139e-21)
(0.767061 -0.156308 6.04717e-22)
(0.757071 -0.31219 -3.26988e-22)
(0.759135 -0.144118 1.28425e-25)
(0.829697 0.279422 3.7402e-22)
(0.82328 0.356884 1.92369e-21)
(0.806307 0.374427 -5.0859e-22)
(0.791196 0.334251 1.51057e-21)
(0.78437 0.220514 1.18449e-21)
(0.793316 0.0836887 1.15367e-21)
(0.810462 -0.0597699 2.50673e-21)
(0.821334 -0.182353 7.82591e-23)
(0.814851 -0.267555 5.24081e-22)
(0.804074 -0.327947 -8.65794e-22)
(0.797089 -0.291051 8.09326e-22)
(0.799361 -0.226838 -7.83568e-22)
(0.798752 -0.0760866 1.25405e-23)
(0.800038 0.0682173 -3.52677e-22)
(0.795586 0.194848 4.30929e-22)
(0.800139 0.306395 -5.12416e-23)
(0.797418 0.266299 8.34863e-22)
(0.803373 0.253761 -4.17826e-22)
(0.793233 0.0783262 -1.15562e-21)
(0.784087 -0.0562073 -1.65508e-21)
(0.768173 -0.155658 1.29651e-21)
(0.757295 -0.312006 4.98271e-22)
(0.760029 -0.144193 1.87449e-22)
(0.830603 0.278515 9.25204e-23)
(0.824351 0.357174 -8.92002e-22)
(0.807478 0.375457 2.42372e-21)
(0.792207 0.335459 -1.18095e-21)
(0.785075 0.221347 -6.80804e-22)
(0.793915 0.0838767 -2.19654e-22)
(0.811429 -0.0597311 -3.22632e-21)
(0.822786 -0.181902 2.87744e-21)
(0.816373 -0.266719 -1.60074e-21)
(0.805101 -0.327421 6.79556e-22)
(0.797717 -0.29115 -5.08352e-22)
(0.799888 -0.227311 3.40591e-22)
(0.799366 -0.0766514 -2.23649e-22)
(0.800867 0.067838 2.05654e-22)
(0.796683 0.194489 -9.26555e-23)
(0.80155 0.306243 2.61059e-22)
(0.79888 0.26629 -9.52213e-22)
(0.804945 0.254 -8.60151e-22)
(0.794772 0.0789945 5.58506e-22)
(0.785361 -0.0555467 1.92213e-21)
(0.769364 -0.154983 -1.96929e-21)
(0.757591 -0.311815 -5.2601e-22)
(0.760983 -0.144284 2.05679e-23)
(0.831582 0.277541 9.9895e-22)
(0.82551 0.357421 -1.28193e-22)
(0.808743 0.376488 2.24155e-22)
(0.793313 0.336713 8.73019e-22)
(0.785867 0.222248 -1.95121e-21)
(0.794582 0.0841176 1.41253e-21)
(0.812452 -0.0596656 3.78171e-21)
(0.824305 -0.181433 -3.60065e-21)
(0.817975 -0.265851 1.52719e-22)
(0.806199 -0.326867 -8.569e-22)
(0.798394 -0.291248 -9.75537e-22)
(0.800458 -0.227808 4.52104e-22)
(0.800029 -0.0772566 4.45587e-22)
(0.801755 0.0674201 -1.84033e-22)
(0.79784 0.194095 6.50346e-23)
(0.803013 0.306076 -5.27109e-22)
(0.800389 0.266281 -2.52251e-22)
(0.806563 0.254245 2.02429e-22)
(0.796374 0.0796824 -1.89785e-21)
(0.786704 -0.0548716 -9.27625e-22)
(0.770634 -0.154281 1.49151e-22)
(0.757959 -0.311617 8.55856e-22)
(0.761998 -0.144391 -1.14181e-22)
(0.832632 0.2765 3.42763e-23)
(0.826753 0.357623 -1.35674e-21)
(0.810104 0.377517 -1.72838e-21)
(0.794516 0.338013 1.90707e-21)
(0.786744 0.223219 6.36418e-22)
(0.795317 0.0844123 1.45901e-22)
(0.81353 -0.0595736 -2.81349e-21)
(0.82589 -0.180948 1.82354e-21)
(0.819657 -0.264951 1.32277e-21)
(0.80737 -0.326283 -5.27457e-22)
(0.799123 -0.291343 4.29005e-22)
(0.801072 -0.228329 -1.87643e-22)
(0.80074 -0.0779026 -7.65621e-22)
(0.802701 0.0669633 2.83581e-22)
(0.799054 0.193665 -2.57129e-23)
(0.804527 0.305894 5.87346e-22)
(0.801944 0.266272 7.61506e-22)
(0.808225 0.254497 -1.5754e-22)
(0.798038 0.0803891 1.11349e-21)
(0.788117 -0.0541824 -4.6163e-22)
(0.771982 -0.153553 6.6398e-22)
(0.758398 -0.311411 -1.08485e-21)
(0.763071 -0.144512 3.66144e-23)
(0.833751 0.275389 -2.76386e-22)
(0.828081 0.357778 -1.57163e-22)
(0.81156 0.378542 5.10592e-22)
(0.795815 0.339358 -4.26694e-22)
(0.787711 0.224259 -2.59556e-21)
(0.796122 0.0847621 3.81161e-22)
(0.814662 -0.0594548 -9.36411e-22)
(0.827539 -0.180447 -7.72516e-22)
(0.821418 -0.26402 -1.13276e-21)
(0.808614 -0.32567 -3.05575e-23)
(0.799902 -0.291435 1.84358e-22)
(0.801728 -0.228872 -3.08343e-22)
(0.801498 -0.0785892 4.38759e-22)
(0.803703 0.0664677 4.69172e-23)
(0.800324 0.193202 -3.47614e-22)
(0.806091 0.305698 -9.13611e-22)
(0.803543 0.266262 3.94265e-22)
(0.809931 0.254755 -8.933e-22)
(0.799763 0.0811138 3.12322e-21)
(0.7896 -0.0534794 5.74345e-22)
(0.773408 -0.1528 -4.8249e-22)
(0.75891 -0.311198 1.15413e-21)
(0.764204 -0.144649 1.13409e-22)
(0.834935 0.274206 -7.99389e-22)
(0.829489 0.357884 1.92576e-21)
(0.81311 0.379564 -6.58768e-23)
(0.797212 0.340748 -2.74297e-21)
(0.788766 0.225369 1.37291e-21)
(0.796997 0.085168 -4.90087e-21)
(0.815849 -0.0593093 2.01041e-21)
(0.829251 -0.179932 2.22034e-21)
(0.823256 -0.263058 -1.83857e-23)
(0.809931 -0.325025 1.65061e-21)
(0.800732 -0.291521 2.00789e-22)
(0.802426 -0.229438 4.11479e-23)
(0.802302 -0.0793164 1.45716e-22)
(0.804761 0.0659333 -1.738e-22)
(0.801651 0.192704 5.18614e-22)
(0.807704 0.305487 5.92725e-22)
(0.805186 0.266252 1.01952e-22)
(0.811677 0.255017 4.97209e-22)
(0.801548 0.0818558 4.47878e-22)
(0.791151 -0.0527633 -9.55939e-22)
(0.774912 -0.152021 -3.49524e-22)
(0.759494 -0.310977 -5.80904e-22)
(0.765394 -0.1448 -2.14449e-22)
(0.836183 0.27295 1.6236e-21)
(0.830977 0.357939 -1.20458e-21)
(0.814753 0.380579 1.63304e-21)
(0.798706 0.342181 1.96928e-22)
(0.789912 0.22655 7.09816e-22)
(0.797943 0.0856312 4.4141e-21)
(0.817089 -0.0591368 3.88917e-22)
(0.831024 -0.179403 -2.32122e-21)
(0.825171 -0.262067 -1.08084e-21)
(0.811322 -0.324348 7.67483e-23)
(0.801613 -0.291601 4.59421e-23)
(0.803166 -0.230026 4.93701e-22)
(0.803151 -0.0800842 -2.66586e-22)
(0.805874 0.0653601 -3.15728e-22)
(0.803031 0.192173 -4.11326e-22)
(0.809364 0.305263 -4.68902e-22)
(0.806871 0.266242 -2.3567e-21)
(0.813465 0.255284 -5.3271e-23)
(0.803392 0.0826143 -4.2784e-21)
(0.792771 -0.0520344 2.39017e-21)
(0.776493 -0.151217 -5.48251e-22)
(0.76015 -0.310746 4.74606e-22)
(0.766642 -0.144965 -1.48221e-22)
(0.837491 0.271619 -1.18305e-22)
(0.832542 0.35794 -2.13665e-22)
(0.816488 0.381585 -1.24148e-21)
(0.800298 0.343658 5.06585e-22)
(0.79115 0.227803 -1.60488e-21)
(0.798963 0.0861529 -2.74446e-21)
(0.818382 -0.0589371 1.00132e-21)
(0.832858 -0.178862 2.80636e-21)
(0.82716 -0.261046 1.25212e-21)
(0.812785 -0.323639 -2.64517e-22)
(0.802544 -0.291674 6.35187e-22)
(0.803948 -0.230635 -7.92015e-22)
(0.804045 -0.0808924 3.99421e-22)
(0.80704 0.0647481 3.4712e-22)
(0.804464 0.191608 2.86165e-22)
(0.81107 0.305025 9.4134e-23)
(0.808597 0.266232 8.42508e-23)
(0.815291 0.255556 -1.12408e-21)
(0.805295 0.0833884 -2.03395e-22)
(0.794459 -0.0512933 -1.97339e-21)
(0.778151 -0.150388 8.76682e-22)
(0.760879 -0.310507 6.20383e-23)
(0.767947 -0.145144 1.42941e-22)
(0.838856 0.27021 -1.28179e-21)
(0.834182 0.357887 -1.22484e-21)
(0.818314 0.382581 2.70503e-21)
(0.801988 0.345176 3.00523e-21)
(0.792481 0.229127 2.72464e-21)
(0.800056 0.0867344 -1.17831e-21)
(0.819729 -0.0587097 -3.91157e-21)
(0.834749 -0.17831 -1.06705e-21)
(0.829223 -0.259997 -1.878e-21)
(0.814323 -0.322897 -2.86657e-22)
(0.803526 -0.291737 -7.97209e-22)
(0.804771 -0.231264 8.49533e-22)
(0.804982 -0.0817409 1.36906e-22)
(0.808258 0.0640974 -1.74025e-22)
(0.805949 0.191009 8.86398e-23)
(0.812822 0.304774 1.04641e-22)
(0.810364 0.266222 2.67999e-21)
(0.817155 0.255831 3.26363e-21)
(0.807256 0.0841772 9.07465e-22)
(0.796214 -0.0505403 1.56839e-21)
(0.779885 -0.149534 1.71369e-21)
(0.761681 -0.310258 5.1347e-22)
(0.769308 -0.145337 1.68017e-23)
(0.840275 0.268722 -3.0432e-22)
(0.835895 0.357775 4.87114e-22)
(0.82023 0.383565 -1.72169e-21)
(0.803775 0.346734 -2.68784e-21)
(0.793905 0.230522 1.67592e-21)
(0.801225 0.0873769 9.66254e-22)
(0.821129 -0.0584541 2.68005e-21)
(0.836698 -0.177747 5.00938e-22)
(0.831357 -0.258921 1.95879e-21)
(0.815933 -0.32212 -9.56807e-22)
(0.804558 -0.29179 -7.06085e-22)
(0.805634 -0.231912 -1.44097e-22)
(0.805962 -0.0826295 -4.62715e-22)
(0.809528 0.0634081 -5.55838e-23)
(0.807484 0.190378 -2.42762e-22)
(0.814617 0.304509 1.55431e-22)
(0.81217 0.266212 -1.61283e-21)
(0.819055 0.256108 -1.03293e-21)
(0.809273 0.08498 1.74259e-21)
(0.798035 -0.0497762 1.37172e-22)
(0.781694 -0.148655 -1.13574e-21)
(0.762556 -0.31 -1.60497e-21)
(0.770725 -0.145543 -1.12133e-22)
(0.841745 0.267153 1.64777e-21)
(0.837677 0.357604 -1.47416e-21)
(0.822233 0.384534 -6.44089e-23)
(0.805659 0.348331 -1.66728e-22)
(0.795424 0.231989 6.41899e-22)
(0.80247 0.0880817 9.6148e-22)
(0.822581 -0.0581697 -6.41744e-22)
(0.838702 -0.177175 -8.21921e-22)
(0.833561 -0.257819 -3.87973e-22)
(0.817618 -0.32131 1.03255e-21)
(0.80564 -0.291832 2.88909e-22)
(0.806537 -0.23258 -9.78725e-22)
(0.806983 -0.0835579 2.10315e-22)
(0.810848 0.0626802 -1.61803e-22)
(0.809069 0.189714 -2.15723e-22)
(0.816454 0.304231 3.40879e-22)
(0.814014 0.266203 -3.23553e-22)
(0.82099 0.256389 1.31608e-21)
(0.811346 0.0857957 -6.92645e-22)
(0.799923 -0.0490012 -1.62459e-21)
(0.783578 -0.147751 1.5238e-21)
(0.763504 -0.309731 6.45115e-22)
(0.772196 -0.145761 8.01156e-24)
(0.843262 0.265502 -8.02531e-22)
(0.839526 0.357371 1.13355e-22)
(0.824323 0.385486 -3.82883e-22)
(0.807639 0.349966 1.01493e-21)
(0.797037 0.233528 -4.36001e-21)
(0.803792 0.0888499 -3.48309e-21)
(0.824086 -0.057856 6.03369e-22)
(0.840759 -0.176593 1.18372e-21)
(0.835833 -0.256691 -1.87803e-21)
(0.819376 -0.320464 -9.32648e-22)
(0.806773 -0.29186 4.67943e-22)
(0.807479 -0.233265 6.01246e-22)
(0.808045 -0.0845258 -9.62952e-23)
(0.812217 0.061914 1.26735e-22)
(0.810701 0.189019 1.99569e-22)
(0.818333 0.303941 -3.81816e-22)
(0.815895 0.266193 1.04984e-21)
(0.822958 0.256671 -1.73674e-21)
(0.813474 0.0866236 2.36533e-21)
(0.801876 -0.0482161 -2.35068e-21)
(0.785535 -0.146823 1.39189e-22)
(0.764525 -0.309451 -8.31781e-22)
(0.773721 -0.145991 2.55114e-23)
(0.844824 0.263767 -9.93449e-22)
(0.841439 0.357072 9.08503e-22)
(0.826496 0.386419 -1.47212e-21)
(0.809716 0.351637 1.50314e-21)
(0.798746 0.235139 5.38876e-21)
(0.805193 0.0896829 8.76386e-23)
(0.825643 -0.057512 -3.58737e-21)
(0.842868 -0.176004 -1.08218e-21)
(0.838172 -0.255539 2.63431e-21)
(0.821207 -0.319582 2.0611e-21)
(0.807955 -0.291874 9.51969e-22)
(0.808459 -0.233967 7.70631e-23)
(0.809147 -0.085533 8.14178e-24)
(0.813634 0.0611096 5.61874e-23)
(0.812381 0.188291 5.99711e-23)
(0.820251 0.303638 -4.60312e-22)
(0.817811 0.266184 -1.0852e-22)
(0.824958 0.256955 5.24847e-22)
(0.815654 0.0874627 -3.54148e-21)
(0.803893 -0.0474212 3.41383e-21)
(0.787566 -0.145871 -1.15644e-21)
(0.76562 -0.30916 9.05976e-22)
(0.7753 -0.146233 2.83604e-23)
(0.846427 0.261946 -7.59013e-22)
(0.843413 0.356707 -1.38398e-21)
(0.828752 0.38733 2.18294e-21)
(0.811887 0.353341 1.36862e-21)
(0.800552 0.236821 -2.45238e-21)
(0.806675 0.0905818 -1.43573e-22)
(0.827253 -0.057137 2.04644e-21)
(0.845028 -0.175408 2.82245e-22)
(0.840575 -0.254364 -2.76278e-21)
(0.823112 -0.318665 -1.41538e-21)
(0.809188 -0.291872 2.17048e-22)
(0.809476 -0.234685 -6.35474e-22)
(0.810289 -0.0865791 5.38976e-23)
(0.815098 0.0602672 1.12952e-22)
(0.814106 0.187533 -7.72301e-23)
(0.822209 0.303323 2.10468e-22)
(0.819763 0.266175 -8.32925e-22)
(0.826989 0.257239 -4.75942e-22)
(0.817887 0.088312 9.32167e-22)
(0.805974 -0.0466171 -1.51356e-21)
(0.789668 -0.144896 2.54435e-22)
(0.76679 -0.308858 3.79098e-22)
(0.776932 -0.146487 -3.23423e-23)
(0.848069 0.260038 1.21486e-21)
(0.845446 0.356273 -4.20181e-22)
(0.831088 0.388216 -8.64788e-22)
(0.814152 0.355077 -1.0408e-22)
(0.802453 0.238573 1.82787e-21)
(0.808237 0.091548 -1.00556e-22)
(0.828916 -0.05673 6.58445e-22)
(0.847237 -0.174805 9.35942e-22)
(0.84304 -0.253167 2.07664e-21)
(0.825089 -0.317712 -5.16551e-22)
(0.810471 -0.291853 -5.291e-22)
(0.810529 -0.235419 4.48995e-22)
(0.811468 -0.0876637 4.44875e-23)
(0.816608 0.0593869 -2.09589e-23)
(0.815875 0.186743 -2.91364e-23)
(0.824204 0.302995 4.70381e-22)
(0.821749 0.266167 7.25864e-22)
(0.829049 0.257524 -4.86064e-22)
(0.820171 0.0891706 -1.03064e-21)
(0.808119 -0.0458044 3.73221e-22)
(0.791841 -0.143897 -9.9522e-22)
(0.768033 -0.308543 -7.37359e-22)
(0.778616 -0.146751 1.45936e-23)
(0.849744 0.258041 -2.57048e-23)
(0.847533 0.355767 4.6026e-22)
(0.8335 0.389075 -1.01686e-21)
(0.816509 0.356844 -1.6883e-21)
(0.804452 0.240396 -1.24865e-21)
(0.809882 0.0925824 2.35379e-21)
(0.830631 -0.05629 -2.53774e-21)
(0.849492 -0.174195 2.56443e-21)
(0.845566 -0.251949 -6.09039e-22)
(0.827138 -0.316722 -1.28188e-23)
(0.811804 -0.291814 -6.77462e-24)
(0.811616 -0.236166 3.54414e-23)
(0.812685 -0.0887864 8.85611e-23)
(0.818164 0.0584691 4.16004e-23)
(0.817688 0.185923 1.39841e-23)
(0.826235 0.302655 -6.45656e-22)
(0.823768 0.266159 2.29231e-22)
(0.831136 0.257808 1.09825e-21)
(0.822505 0.0900376 1.60217e-21)
(0.810325 -0.0449836 -1.3229e-21)
(0.794084 -0.142875 -7.40426e-23)
(0.769352 -0.308217 4.05547e-22)
(0.78035 -0.147025 7.74258e-23)
(0.851452 0.255956 -4.09104e-22)
(0.849672 0.355187 -7.03857e-22)
(0.835988 0.389904 2.71118e-21)
(0.818956 0.358638 -4.84806e-22)
(0.806547 0.242289 -2.01669e-21)
(0.811611 0.0936863 1.12318e-21)
(0.8324 -0.0558158 -5.27221e-22)
(0.851793 -0.17358 -3.00442e-21)
(0.848151 -0.250711 1.23925e-22)
(0.829259 -0.315696 6.24966e-22)
(0.813186 -0.291756 -2.51938e-24)
(0.812737 -0.236925 5.2623e-23)
(0.813939 -0.0899469 -3.23136e-23)
(0.819765 0.0575139 -2.41264e-24)
(0.819544 0.185073 1.37258e-22)
(0.828302 0.302304 5.34614e-22)
(0.825818 0.266152 5.59922e-22)
(0.83325 0.258092 4.06243e-22)
(0.824887 0.090912 5.93348e-22)
(0.812593 -0.0441551 2.113e-21)
(0.796396 -0.141831 -8.01321e-22)
(0.770744 -0.307877 -2.00386e-22)
(0.782134 -0.147309 1.20772e-23)
(0.85319 0.253779 5.24895e-22)
(0.851859 0.35453 -5.50901e-22)
(0.838548 0.3907 -1.61119e-21)
(0.821493 0.360457 -9.12853e-22)
(0.80874 0.24425 1.30233e-22)
(0.813425 0.0948609 3.59008e-21)
(0.834222 -0.0553062 -8.10288e-22)
(0.854137 -0.17296 3.25954e-21)
(0.850793 -0.249456 1.14286e-21)
(0.831451 -0.314633 2.54495e-22)
(0.814619 -0.291675 2.63535e-22)
(0.813889 -0.237697 -1.48737e-23)
(0.815228 -0.0911448 4.59066e-23)
(0.82141 0.0565216 -2.17121e-23)
(0.821442 0.184193 -6.33712e-23)
(0.830403 0.30194 -5.96578e-22)
(0.8279 0.266146 -6.60618e-22)
(0.835388 0.258375 -1.59082e-22)
(0.827317 0.0917928 -1.94007e-23)
(0.814921 -0.0433197 1.26082e-22)
(0.798776 -0.140764 1.21278e-21)
(0.772212 -0.307524 2.51585e-22)
(0.783968 -0.147601 -5.013e-23)
(0.854956 0.251511 2.42012e-22)
(0.854093 0.353796 -1.11726e-21)
(0.841178 0.391461 2.17412e-21)
(0.824117 0.362299 -1.0859e-21)
(0.811031 0.24628 1.30664e-21)
(0.815326 0.0961073 -2.09822e-22)
(0.836097 -0.0547597 -2.80107e-21)
(0.856523 -0.172335 7.02333e-22)
(0.853488 -0.248183 -1.98729e-21)
(0.833712 -0.313534 -1.6661e-21)
(0.816101 -0.291572 -5.33041e-22)
(0.815072 -0.238479 -4.07354e-22)
(0.816552 -0.0923799 4.6309e-23)
(0.823099 0.0554924 4.83021e-25)
(0.823381 0.183285 2.68862e-23)
(0.832538 0.301566 -1.23849e-22)
(0.830012 0.266141 -8.02964e-22)
(0.83755 0.258655 4.0597e-22)
(0.829794 0.0926791 -4.89674e-22)
(0.817308 -0.0424776 -1.26957e-22)
(0.801223 -0.139676 -9.37478e-22)
(0.773755 -0.307158 7.98853e-23)
(0.785849 -0.147902 2.68218e-23)
(0.856751 0.249151 -1.90948e-22)
(0.85637 0.352981 8.9559e-22)
(0.843874 0.392183 4.95205e-22)
(0.826827 0.364161 -6.44062e-22)
(0.81342 0.248376 5.03001e-22)
(0.817316 0.0974261 -2.68319e-21)
(0.838027 -0.0541755 1.66917e-21)
(0.858949 -0.171705 -2.79364e-21)
(0.856237 -0.246895 1.81481e-21)
(0.836043 -0.312398 1.43609e-21)
(0.817632 -0.291444 1.73509e-22)
(0.816283 -0.23927 2.83486e-22)
(0.81791 -0.0936511 1.74338e-23)
(0.824833 0.0544267 -3.83158e-24)
(0.825362 0.182347 2.77512e-23)
(0.834706 0.30118 6.63415e-22)
(0.832153 0.266136 2.11549e-22)
(0.839735 0.258934 -1.30428e-21)
(0.832315 0.0935699 -4.20638e-22)
(0.819754 -0.0416298 -4.93724e-22)
(0.803735 -0.138567 3.03534e-22)
(0.775374 -0.306778 2.60555e-22)
(0.787776 -0.148211 -5.0679e-24)
(0.858576 0.246701 -6.00613e-23)
(0.858689 0.352084 -3.84359e-22)
(0.846635 0.392864 -4.01031e-22)
(0.829621 0.366039 5.259e-25)
(0.81591 0.250534 3.61432e-22)
(0.819398 0.0988151 2.72163e-22)
(0.840013 -0.0535542 8.4218e-22)
(0.861413 -0.171071 6.8429e-22)
(0.859035 -0.245592 6.3581e-22)
(0.838441 -0.311224 1.77751e-23)
(0.819213 -0.291287 -5.84126e-22)
(0.817523 -0.240067 3.36842e-24)
(0.819302 -0.0949562 -2.56784e-23)
(0.82661 0.0533262 8.75723e-24)
(0.827386 0.181383 -2.38272e-23)
(0.836907 0.300783 -4.66359e-22)
(0.834324 0.266133 9.59141e-22)
(0.841942 0.25921 7.18717e-22)
(0.834881 0.0944635 2.62161e-22)
(0.822256 -0.040777 -1.25865e-22)
(0.806312 -0.137436 -6.54764e-22)
(0.777067 -0.306383 -8.89348e-22)
(0.789748 -0.148526 -1.33001e-23)
(0.860438 0.244163 -2.07776e-22)
(0.861052 0.351105 -2.55271e-22)
(0.84946 0.393498 7.77945e-22)
(0.8325 0.367927 -1.3039e-21)
(0.818503 0.252751 2.28908e-21)
(0.821573 0.100275 1.02826e-22)
(0.842054 -0.0528912 -2.17738e-21)
(0.863914 -0.17043 1.00974e-21)
(0.861882 -0.244273 -1.9634e-21)
(0.840906 -0.310012 -2.60537e-22)
(0.820843 -0.291102 -6.87178e-22)
(0.818789 -0.24087 3.78731e-22)
(0.820725 -0.0962964 -2.73563e-23)
(0.828432 0.0521906 3.26055e-24)
(0.829453 0.180391 -3.7888e-23)
(0.839141 0.300375 3.60361e-23)
(0.836525 0.26613 -4.25646e-22)
(0.84417 0.259481 -6.67609e-22)
(0.837489 0.0953591 -3.93716e-22)
(0.824815 -0.0399193 -3.78467e-22)
(0.808952 -0.136285 1.11134e-21)
(0.778835 -0.305973 7.07122e-22)
(0.791764 -0.148848 2.28471e-23)
(0.862348 0.241516 -4.841e-22)
(0.863464 0.350033 1.25867e-21)
(0.852351 0.394086 -1.13001e-21)
(0.835463 0.369834 -6.16984e-22)
(0.821203 0.255049 1.37618e-21)
(0.823846 0.101838 -1.37497e-21)
(0.844153 -0.052163 1.22228e-21)
(0.86645 -0.169772 1.06326e-21)
(0.864774 -0.242943 -2.5021e-22)
(0.843436 -0.30877 6.45596e-22)
(0.822521 -0.290899 3.47746e-22)
(0.820082 -0.241698 -2.9245e-22)
(0.822179 -0.0976901 1.21785e-24)
(0.830298 0.0510064 -3.94005e-23)
(0.831567 0.179367 2.52766e-23)
(0.841411 0.299956 -1.12186e-22)
(0.838757 0.266131 2.43256e-22)
(0.846419 0.259753 2.54012e-22)
(0.84014 0.0962612 8.41009e-22)
(0.827428 -0.0390522 -3.53968e-22)
(0.811655 -0.135114 9.45125e-23)
(0.780679 -0.305548 -3.55958e-22)
(0.793822 -0.149175 6.66901e-24)
(0.86433 0.238702 -1.58291e-22)
(0.865942 0.348846 -7.76505e-22)
(0.855315 0.394649 1.87144e-21)
(0.838519 0.371822 -1.73998e-21)
(0.824019 0.257506 -9.49653e-22)
(0.82622 0.103558 1.85582e-21)
(0.84631 -0.0513563 -4.28722e-22)
(0.869018 -0.169114 -8.1392e-22)
(0.86771 -0.241623 7.47184e-23)
(0.846029 -0.307519 -1.11285e-22)
(0.824247 -0.290693 4.62742e-22)
(0.8214 -0.242565 5.50881e-23)
(0.823663 -0.0991554 -4.10458e-23)
(0.832209 0.0497548 4.30587e-23)
(0.833733 0.178294 4.34235e-24)
(0.843723 0.299527 4.30627e-23)
(0.841023 0.266145 -1.40651e-22)