/*--------------------------------*- C++ -*----------------------------------*\
  =========                 |
  \\      /  F ield         | OpenFOAM: The Open Source CFD Toolbox
   \\    /   O peration     | Website:  https://openfoam.org
    \\  /    A nd           | Version:  7
     \\/     M anipulation  |
\*---------------------------------------------------------------------------*/
FoamFile
{
    version     2.0;
    format      ascii;
    class       volScalarField;
    location    "280";
    object      p;
}
// * * * * * * * * * * * * * * * * * * * * * * * * * * * * * * * * * * * * * //

dimensions      [0 2 -2 0 0 0 0];

internalField   nonuniform List<scalar> 
4575
(
-0.443247
-0.435296
-0.429223
-0.449572
-0.44127
-0.434978
-0.428267
-0.421037
-0.455907
-0.447263
-0.440757
-0.433796
-0.426235
-0.41793
-0.408584
-0.397969
-0.46222
-0.453246
-0.44653
-0.439313
-0.431401
-0.422616
-0.412647
-0.401275
-0.388425
-0.374188
-0.358808
-0.342631
-0.468479
-0.459188
-0.452266
-0.444785
-0.436498
-0.427198
-0.41656
-0.404387
-0.39065
-0.375503
-0.359253
-0.342292
-0.325026
-0.307811
-0.290927
-0.474648
-0.465055
-0.457932
-0.450177
-0.441491
-0.431637
-0.420285
-0.407267
-0.392612
-0.376539
-0.359418
-0.341682
-0.323759
-0.306006
-0.288692
-0.271991
-0.256003
-0.240762
-0.226281
-0.480688
-0.470811
-0.46349
-0.455451
-0.44634
-0.435893
-0.423783
-0.409881
-0.39428
-0.377271
-0.359282
-0.340787
-0.322227
-0.303958
-0.286234
-0.26921
-0.25297
-0.237531
-0.222905
-0.209132
-0.48656
-0.476419
-0.468903
-0.460568
-0.451004
-0.439924
-0.427015
-0.412195
-0.395627
-0.377676
-0.358828
-0.339592
-0.320419
-0.301658
-0.283544
-0.266217
-0.24974
-0.234116
-0.219356
-0.205443
-0.492223
-0.481837
-0.47413
-0.465486
-0.45544
-0.44369
-0.429942
-0.414173
-0.396622
-0.377731
-0.358039
-0.338085
-0.318323
-0.299094
-0.280614
-0.263002
-0.246305
-0.230511
-0.215629
-0.201585
-0.497634
-0.487025
-0.479129
-0.470163
-0.459607
-0.447148
-0.432525
-0.415782
-0.39724
-0.377414
-0.356898
-0.33625
-0.315929
-0.296258
-0.277434
-0.259558
-0.242658
-0.226709
-0.211718
-0.197555
-0.502749
-0.49194
-0.483857
-0.474555
-0.463458
-0.450256
-0.434726
-0.416989
-0.397453
-0.376707
-0.355388
-0.334077
-0.313225
-0.293139
-0.273997
-0.255877
-0.238791
-0.222704
-0.207616
-0.193348
-0.507523
-0.496538
-0.48827
-0.478615
-0.466951
-0.452972
-0.436508
-0.417763
-0.397237
-0.375588
-0.353496
-0.331553
-0.310201
-0.289729
-0.270292
-0.25195
-0.234697
-0.218488
-0.203319
-0.188959
-0.511911
-0.500775
-0.492323
-0.4823
-0.47004
-0.455254
-0.437833
-0.418075
-0.396569
-0.374041
-0.351207
-0.328665
-0.306847
-0.286018
-0.266313
-0.24777
-0.23037
-0.214058
-0.198822
-0.184384
-0.515865
-0.504604
-0.49597
-0.485563
-0.472682
-0.457061
-0.438668
-0.417896
-0.395426
-0.372047
-0.348507
-0.325404
-0.303153
-0.281998
-0.26205
-0.24333
-0.225803
-0.209406
-0.194118
-0.179619
-0.519342
-0.507981
-0.499164
-0.488359
-0.474832
-0.458355
-0.43898
-0.4172
-0.393788
-0.369592
-0.345384
-0.321758
-0.29911
-0.27766
-0.257497
-0.238624
-0.22099
-0.204527
-0.189205
-0.174661
-0.522295
-0.510861
-0.501862
-0.490644
-0.476449
-0.459099
-0.438736
-0.415961
-0.391636
-0.366661
-0.341826
-0.317717
-0.294708
-0.272996
-0.252645
-0.233643
-0.215926
-0.199417
-0.184078
-0.169506
-0.524679
-0.513198
-0.504017
-0.492372
-0.477492
-0.459256
-0.437907
-0.414158
-0.388952
-0.363241
-0.337823
-0.313273
-0.289941
-0.267998
-0.247489
-0.228383
-0.210604
-0.19407
-0.178733
-0.164151
-0.526451
-0.51495
-0.505587
-0.493503
-0.477922
-0.458793
-0.436468
-0.411769
-0.385722
-0.359319
-0.333365
-0.308416
-0.2848
-0.262661
-0.242023
-0.222839
-0.205021
-0.188484
-0.173166
-0.158594
-0.527568
-0.516073
-0.506528
-0.493994
-0.477702
-0.457678
-0.434392
-0.408776
-0.381931
-0.354885
-0.328442
-0.303141
-0.279279
-0.256978
-0.23624
-0.217004
-0.199171
-0.182652
-0.167375
-0.152832
-0.527989
-0.516527
-0.506801
-0.493808
-0.476797
-0.455883
-0.431658
-0.405161
-0.377567
-0.34993
-0.323048
-0.297439
-0.273372
-0.250943
-0.230135
-0.210875
-0.193052
-0.176573
-0.161357
-0.146862
-0.527676
-0.516271
-0.506365
-0.492908
-0.475175
-0.453382
-0.428245
-0.400912
-0.37262
-0.344445
-0.317176
-0.291305
-0.267073
-0.244552
-0.223706
-0.204448
-0.186659
-0.170243
-0.15511
-0.140686
-0.526591
-0.51527
-0.505185
-0.491259
-0.472806
-0.450151
-0.424137
-0.396014
-0.36708
-0.338424
-0.310821
-0.284735
-0.260379
-0.237801
-0.216947
-0.197719
-0.17999
-0.163659
-0.148635
-0.134311
-0.524701
-0.513488
-0.503227
-0.48883
-0.469665
-0.44617
-0.419317
-0.390458
-0.36094
-0.331861
-0.303978
-0.277724
-0.253286
-0.230687
-0.209858
-0.190688
-0.17304
-0.156818
-0.141933
-0.127733
-0.521974
-0.510893
-0.500459
-0.485594
-0.465728
-0.441421
-0.413775
-0.384236
-0.354195
-0.324753
-0.296644
-0.270271
-0.245792
-0.223208
-0.202435
-0.183351
-0.16581
-0.149716
-0.134992
-0.120896
-0.518381
-0.507455
-0.496853
-0.481525
-0.460974
-0.435889
-0.407501
-0.377343
-0.346842
-0.317098
-0.288817
-0.262373
-0.237896
-0.215364
-0.19468
-0.175711
-0.158299
-0.142357
-0.127788
-0.113666
-0.513897
-0.503149
-0.492383
-0.476601
-0.455387
-0.429563
-0.400487
-0.369773
-0.338879
-0.308894
-0.280498
-0.254031
-0.229597
-0.207154
-0.186592
-0.167767
-0.150514
-0.134752
-0.120331
-0.106014
-0.5085
-0.497951
-0.487029
-0.470803
-0.448954
-0.422435
-0.39273
-0.361527
-0.330306
-0.300142
-0.271686
-0.245246
-0.220897
-0.198581
-0.178173
-0.159521
-0.142454
-0.126903
-0.112666
-0.098541
-0.502169
-0.491842
-0.480772
-0.464118
-0.441663
-0.414498
-0.384227
-0.352604
-0.321124
-0.290845
-0.262384
-0.236018
-0.211798
-0.189645
-0.169425
-0.150975
-0.134118
-0.118815
-0.104745
-0.0909537
-0.494892
-0.484806
-0.473597
-0.456533
-0.433509
-0.405751
-0.37498
-0.343007
-0.311337
-0.281005
-0.252595
-0.226353
-0.202302
-0.180351
-0.160351
-0.142135
-0.125528
-0.110472
-0.0966189
-0.0831569
-0.486654
-0.47683
-0.465493
-0.448042
-0.424487
-0.396194
-0.36499
-0.33274
-0.30095
-0.270628
-0.242325
-0.216253
-0.192415
-0.170701
-0.150956
-0.133004
-0.116672
-0.101892
-0.0882886
-0.0751393
-0.477449
-0.467905
-0.456453
-0.438639
-0.414597
-0.38583
-0.354265
-0.321811
-0.28997
-0.259721
-0.231579
-0.205726
-0.182141
-0.160703
-0.141245
-0.123587
-0.107555
-0.0930782
-0.0797515
-0.0669094
-0.467272
-0.458025
-0.446473
-0.428324
-0.403843
-0.374665
-0.342812
-0.310228
-0.278405
-0.248291
-0.220364
-0.194776
-0.171488
-0.150361
-0.131224
-0.113889
-0.0981839
-0.0840356
-0.0710076
-0.456122
-0.447191
-0.435554
-0.417101
-0.392232
-0.362708
-0.330642
-0.298002
-0.266266
-0.236348
-0.20869
-0.183415
-0.160462
-0.139684
-0.120899
-0.103917
-0.0885641
-0.0747695
-0.444003
-0.435403
-0.423698
-0.404976
-0.379771
-0.349972
-0.317766
-0.285144
-0.253565
-0.223903
-0.196566
-0.171649
-0.149073
-0.128678
-0.110278
-0.0936776
-0.430921
-0.422668
-0.410915
-0.391959
-0.366475
-0.336469
-0.3042
-0.271671
-0.240315
-0.210968
-0.184004
-0.15949
-0.13733
-0.117354
-0.0993703
-0.416886
-0.408995
-0.397214
-0.378063
-0.352358
-0.322217
-0.289961
-0.257598
-0.22653
-0.197557
-0.171016
-0.14695
-0.125245
-0.105723
-0.401913
-0.394398
-0.38261
-0.363305
-0.337439
-0.307235
-0.275069
-0.242942
-0.212227
-0.183685
-0.157617
-0.13404
-0.112829
-0.38602
-0.378893
-0.367121
-0.347704
-0.321739
-0.291546
-0.259544
-0.227722
-0.197425
-0.169369
-0.14382
-0.120776
-0.369226
-0.3625
-0.350767
-0.331283
-0.305282
-0.275175
-0.243407
-0.211958
-0.182142
-0.154625
-0.129643
-0.351556
-0.345242
-0.333574
-0.314068
-0.288096
-0.258148
-0.226675
-0.195679
-0.1664
-0.139473
-0.333038
-0.327146
-0.315568
-0.296088
-0.270214
-0.240471
-0.209391
-0.178904
-0.15022
-0.313702
-0.30824
-0.29678
-0.277379
-0.251668
-0.22218
-0.191572
-0.161659
-0.293577
-0.288558
-0.277243
-0.257972
-0.232439
-0.203352
-0.17325
-0.272697
-0.268138
-0.256998
-0.237879
-0.212619
-0.183981
-0.251097
-0.247019
-0.236086
-0.21713
-0.192242
-0.228814
-0.225239
-0.214496
-0.19583
-0.171338
-0.20588
-0.202852
-0.192317
-0.173982
-0.182336
-0.179913
-0.169599
-0.158291
-0.156422
-0.146382
-0.133809
-0.132409
-0.108885
-0.0835666
-0.185602
-0.214165
-0.242369
-0.240918
-0.270157
-0.268238
-0.256494
-0.297479
-0.295104
-0.283
-0.324334
-0.321429
-0.309031
-0.28763
-0.350696
-0.347157
-0.334543
-0.312747
-0.284286
-0.376419
-0.372314
-0.359499
-0.337339
-0.308366
-0.275822
-0.40146
-0.396845
-0.383848
-0.361361
-0.33194
-0.298761
-0.425789
-0.420689
-0.407486
-0.384826
-0.354966
-0.321221
-0.286443
-0.449368
-0.443807
-0.43043
-0.40763
-0.377402
-0.343164
-0.307717
-0.273216
-0.472161
-0.466157
-0.452639
-0.429679
-0.399266
-0.364555
-0.328505
-0.293278
-0.260181
-0.494133
-0.487702
-0.474074
-0.451017
-0.420441
-0.385366
-0.348775
-0.312885
-0.279044
-0.247903
-0.51525
-0.508406
-0.494698
-0.471606
-0.440899
-0.405567
-0.368496
-0.33201
-0.297481
-0.265609
-0.236603
-0.535483
-0.528236
-0.514476
-0.491404
-0.460636
-0.425095
-0.387656
-0.350628
-0.315469
-0.282915
-0.253211
-0.226314
-0.554804
-0.547164
-0.533379
-0.510379
-0.479624
-0.443946
-0.40621
-0.36871
-0.332984
-0.299802
-0.269445
-0.241893
-0.216978
-0.573186
-0.565164
-0.551381
-0.528502
-0.497831
-0.462095
-0.424125
-0.386243
-0.350006
-0.31625
-0.285288
-0.257122
-0.2316
-0.208505
-0.590605
-0.582215
-0.56846
-0.545749
-0.51523
-0.479515
-0.44139
-0.403193
-0.366516
-0.332241
-0.300721
-0.271985
-0.245893
-0.222237
-0.200796
-0.607042
-0.598297
-0.584593
-0.562098
-0.531796
-0.496182
-0.457983
-0.419543
-0.382493
-0.347758
-0.315731
-0.286467
-0.259844
-0.235663
-0.213704
-0.193745
-0.622481
-0.613393
-0.599766
-0.577529
-0.547509
-0.512074
-0.473883
-0.435277
-0.397921
-0.362785
-0.330303
-0.300557
-0.273442
-0.248769
-0.226326
-0.20589
-0.187269
-0.170384
-0.636907
-0.627492
-0.613962
-0.592026
-0.562352
-0.527173
-0.489071
-0.450377
-0.412785
-0.37731
-0.344424
-0.314241
-0.286674
-0.261546
-0.23865
-0.217767
-0.198703
-0.181378
-0.165243
-0.650311
-0.640585
-0.627172
-0.605577
-0.57631
-0.541462
-0.503531
-0.464826
-0.427069
-0.391318
-0.358082
-0.327509
-0.299532
-0.273985
-0.250668
-0.229367
-0.209887
-0.192145
-0.175636
-0.159724
-0.662687
-0.652666
-0.639389
-0.618172
-0.589369
-0.554927
-0.517247
-0.478612
-0.440763
-0.404797
-0.371268
-0.340352
-0.312006
-0.286077
-0.262372
-0.240682
-0.220813
-0.202679
-0.185815
-0.169541
-0.674033
-0.663734
-0.65061
-0.629805
-0.601522
-0.567558
-0.530209
-0.491722
-0.453854
-0.417739
-0.383971
-0.352761
-0.324088
-0.297815
-0.273756
-0.251707
-0.231475
-0.212975
-0.195778
-0.179152
-0.68435
-0.67379
-0.660834
-0.640472
-0.612761
-0.579344
-0.542405
-0.504147
-0.466332
-0.430133
-0.396184
-0.364729
-0.335773
-0.309193
-0.284812
-0.262436
-0.241869
-0.223028
-0.205523
-0.188549
-0.693642
-0.68284
-0.670066
-0.650174
-0.623083
-0.59028
-0.553828
-0.515877
-0.478191
-0.441974
-0.4079
-0.37625
-0.347054
-0.320205
-0.295538
-0.272863
-0.25199
-0.232834
-0.215052
-0.197725
-0.701919
-0.690894
-0.678313
-0.658915
-0.632489
-0.600363
-0.564473
-0.526906
-0.489423
-0.453254
-0.419114
-0.387319
-0.357927
-0.330848
-0.305929
-0.282988
-0.261834
-0.242387
-0.224368
-0.206678
-0.709193
-0.697964
-0.685587
-0.666704
-0.640982
-0.609592
-0.574336
-0.537231
-0.500024
-0.463971
-0.429823
-0.397933
-0.368388
-0.341118
-0.315982
-0.292806
-0.271402
-0.251683
-0.233464
-0.215432
-0.715478
-0.704066
-0.691901
-0.67355
-0.648568
-0.617969
-0.583416
-0.546848
-0.509991
-0.47412
-0.440023
-0.40809
-0.378436
-0.351013
-0.325694
-0.302314
-0.280691
-0.260725
-0.242262
-0.22412
-0.720795
-0.70922
-0.697274
-0.679469
-0.655258
-0.625499
-0.591716
-0.555758
-0.519323
-0.4837
-0.449713
-0.417788
-0.388069
-0.360533
-0.335064
-0.311511
-0.289698
-0.269516
-0.250852
-0.232794
-0.725166
-0.71345
-0.701728
-0.684479
-0.661063
-0.632191
-0.599238
-0.56396
-0.528019
-0.492712
-0.458894
-0.427027
-0.397289
-0.369677
-0.344094
-0.320397
-0.298422
-0.278056
-0.259199
-0.241093
-0.728616
-0.716782
-0.705289
-0.688602
-0.666002
-0.638055
-0.60599
-0.57146
-0.536082
-0.501156
-0.467565
-0.435809
-0.406095
-0.378447
-0.352782
-0.328972
-0.306861
-0.286334
-0.267288
-0.249042
-0.731175
-0.719245
-0.707983
-0.691861
-0.670092
-0.643105
-0.611981
-0.578262
-0.543515
-0.509035
-0.475731
-0.444135
-0.41449
-0.386843
-0.361131
-0.337237
-0.315014
-0.294348
-0.275134
-0.256736
-0.732874
-0.720872
-0.709842
-0.694285
-0.673357
-0.647358
-0.617221
-0.584374
-0.550323
-0.516354
-0.483394
-0.45201
-0.422478
-0.394871
-0.369145
-0.345195
-0.322886
-0.302103
-0.282747
-0.26422
-0.733747
-0.721698
-0.710901
-0.695905
-0.675823
-0.650834
-0.621725
-0.589806
-0.556514
-0.523117
-0.490559
-0.459438
-0.430062
-0.402532
-0.376825
-0.35285
-0.330479
-0.309603
-0.290132
-0.271502
-0.733832
-0.721759
-0.711195
-0.696753
-0.677518
-0.653555
-0.625509
-0.594568
-0.562095
-0.529331
-0.497232
-0.466424
-0.437248
-0.409833
-0.384178
-0.360205
-0.3378
-0.316854
-0.297289
-0.278579
-0.733167
-0.721095
-0.710764
-0.696868
-0.678473
-0.655545
-0.628592
-0.598676
-0.567077
-0.535004
-0.503419
-0.472974
-0.444041
-0.41678
-0.391208
-0.367267
-0.344852
-0.32386
-0.304222
-0.285452
-0.731793
-0.719748
-0.709648
-0.696286
-0.678722
-0.656833
-0.630995
-0.602143
-0.571471
-0.540146
-0.50913
-0.479097
-0.45045
-0.423378
-0.397923
-0.374041
-0.351642
-0.330626
-0.310936
-0.292126
-0.729754
-0.71776
-0.707889
-0.695048
-0.678302
-0.657449
-0.632741
-0.604989
-0.57529
-0.544766
-0.514371
-0.484799
-0.456481
-0.429635
-0.404328
-0.380534
-0.358175
-0.337157
-0.317435
-0.298606
-0.727093
-0.715176
-0.705533
-0.693197
-0.67725
-0.657424
-0.633856
-0.607231
-0.578549
-0.548877
-0.519154
-0.49009
-0.462143
-0.43556
-0.410432
-0.386753
-0.364458
-0.343461
-0.323725
-0.304895
-0.723855
-0.712039
-0.702622
-0.690776
-0.675607
-0.656793
-0.634367
-0.608891
-0.581263
-0.552489
-0.523489
-0.494979
-0.467445
-0.44116
-0.416242
-0.392705
-0.370499
-0.349544
-0.329812
-0.310999
-0.720087
-0.708398
-0.699205
-0.68783
-0.673414
-0.655593
-0.634304
-0.609992
-0.58345
-0.555618
-0.527386
-0.499476
-0.472395
-0.446445
-0.421769
-0.3984
-0.376305
-0.355413
-0.335703
-0.316925
-0.715835
-0.704297
-0.695327
-0.684405
-0.670715
-0.653862
-0.633699
-0.610558
-0.58513
-0.558277
-0.530858
-0.503593
-0.477006
-0.451425
-0.42702
-0.403845
-0.381884
-0.361075
-0.341404
-0.322678
-0.711145
-0.699781
-0.691033
-0.680547
-0.667553
-0.651639
-0.632584
-0.610617
-0.586321
-0.560483
-0.533918
-0.507339
-0.481285
-0.456109
-0.432005
-0.40905
-0.387245
-0.366539
-0.346922
-0.328265
-0.706063
-0.694898
-0.68637
-0.6763
-0.663972
-0.648964
-0.630995
-0.610195
-0.587046
-0.562251
-0.536579
-0.510727
-0.485245
-0.460508
-0.436735
-0.414024
-0.392397
-0.371814
-0.352267
-0.333692
-0.700637
-0.689692
-0.681384
-0.671712
-0.660018
-0.645879
-0.628966
-0.609322
-0.587327
-0.5636
-0.538854
-0.513768
-0.488896
-0.464632
-0.441219
-0.418779
-0.39735
-0.376908
-0.357445
-0.338968
-0.694909
-0.684206
-0.676119
-0.666828
-0.655733
-0.642425
-0.626535
-0.608028
-0.587188
-0.564546
-0.540758
-0.516475
-0.49225
-0.468492
-0.445469
-0.423323
-0.402114
-0.381831
-0.362466
-0.688926
-0.678484
-0.670618
-0.66169
-0.651163
-0.638644
-0.623739
-0.606344
-0.586653
-0.56511
-0.542307
-0.51886
-0.495317
-0.472099
-0.449494
-0.682728
-0.672566
-0.664923
-0.656342
-0.646351
-0.634579
-0.620617
-0.604303
-0.585749
-0.565312
-0.543515
-0.676358
-0.666494
-0.659074
-0.650826
-0.641338
-0.630269
-0.617206
-0.601938
-0.669855
-0.660304
-0.653109
-0.645179
-0.636165
-0.663256
-0.654032
-0.647064
-0.172239
-0.176492
-0.180593
-0.184547
-0.188357
-0.192026
-0.154721
-0.158744
-0.162649
-0.16644
-0.170119
-0.173689
-0.139125
-0.142918
-0.14662
-0.150233
-0.15376
-0.157203
-0.12532
-0.12888
-0.132371
-0.135793
-0.139149
-0.14244
-0.112958
-0.116295
-0.119579
-0.122809
-0.125989
-0.129119
-0.101882
-0.105001
-0.108079
-0.111116
-0.114114
-0.117075
-0.0918917
-0.0948028
-0.0976821
-0.100531
-0.10335
-0.106141
-0.0828579
-0.0855706
-0.0882593
-0.0909248
-0.0935683
-0.0961907
-0.0746579
-0.0771825
-0.079689
-0.0821785
-0.0846517
-0.0871095
-0.0671892
-0.0695362
-0.07187
-0.0741913
-0.076501
-0.0787997
-0.0603614
-0.0625425
-0.0647138
-0.0668761
-0.0690301
-0.0711764
-0.0541086
-0.056133
-0.0581505
-0.0601617
-0.0621673
-0.064168
-0.0483636
-0.0502413
-0.0521142
-0.0539831
-0.0558483
-0.0577106
-0.0430676
-0.0448085
-0.0465463
-0.0482816
-0.0500148
-0.0517465
-0.0381785
-0.0397915
-0.0414027
-0.0430125
-0.0446213
-0.0462297
-0.0336529
-0.0351464
-0.0366391
-0.0381312
-0.0396233
-0.0411157
-0.0294504
-0.0308336
-0.0322165
-0.0335995
-0.0349829
-0.036367
-0.025548
-0.0268279
-0.0281079
-0.0293884
-0.0306697
-0.0319521
-0.021917
-0.0231007
-0.0242849
-0.0254699
-0.0266559
-0.0278431
-0.0290319
-0.0185282
-0.0196234
-0.020719
-0.0218154
-0.0229128
-0.0240116
-0.0251119
-0.015375
-0.0163855
-0.0173971
-0.0184098
-0.0194239
-0.0204394
-0.0214566
-0.0124184
-0.0133528
-0.014288
-0.0152243
-0.0161618
-0.0171006
-0.018041
-0.00965463
-0.0105178
-0.0113819
-0.0122469
-0.0131131
-0.0139805
-0.0148494
-0.00706647
-0.0078638
-0.00866193
-0.00946098
-0.0102611
-0.0110623
-0.0118649
-0.00464159
-0.00537796
-0.00611505
-0.00685296
-0.00759179
-0.00833165
-0.00907267
-0.00237004
-0.00304992
-0.00373041
-0.00441162
-0.00509365
-0.00577658
-0.00646052
-0.000240304
-0.000867935
-0.0014961
-0.00212489
-0.00275438
-0.00338465
-0.00401576
0.00175605
0.00117673
0.000596956
1.66613e-05
-0.000564215
-0.00114574
-0.00172797
0.00362773
0.00309303
0.00255796
0.00202248
0.00148652
0.000950047
0.000413001
0.00538185
0.00488838
0.00439462
0.00390054
0.00340609
0.00291124
0.00241594
0.00702553
0.00657022
0.00611465
0.00565881
0.0052027
0.00474629
0.00428955
0.00856636
0.00814583
0.00772524
0.00730454
0.00688369
0.00646265
0.0060414
0.0100075
0.00961942
0.00923135
0.00884323
0.00845501
0.0080667
0.00767826
0.0113556
0.0109974
0.0106393
0.0102812
0.00992304
0.00956487
0.00920667
0.0126159
0.0122853
0.0119547
0.0116243
0.0112938
0.0109634
0.0106331
0.0137928
0.0134876
0.0131824
0.0128774
0.0125725
0.0122676
0.0119629
0.0148907
0.0146088
0.014327
0.0140454
0.013764
0.0134828
0.0132017
0.0159136
0.0156532
0.015393
0.015133
0.0148732
0.0146136
0.0143542
0.0168654
0.0166247
0.0163843
0.0161442
0.0159043
0.0156646
0.0154252
0.0177496
0.0175272
0.017305
0.0170831
0.0168615
0.0166402
0.0164191
0.0185697
0.018364
0.0181587
0.0179536
0.0177488
0.0175442
0.01734
0.0193291
0.0191388
0.0189488
0.0187591
0.0185698
0.0183807
0.018192
0.0200307
0.0198545
0.0196786
0.0195031
0.0193279
0.019153
0.0189784
0.0206774
0.0205142
0.0203513
0.0201887
0.0200265
0.0198646
0.019703
0.0212721
0.0211208
0.0209697
0.020819
0.0206687
0.0205186
0.020369
0.0218175
0.0216769
0.0215368
0.0213969
0.0212574
0.0211182
0.0209794
0.0223159
0.0221853
0.022055
0.021925
0.0217954
0.0216661
0.0215372
0.0227698
0.0226482
0.0225269
0.0224059
0.0222853
0.0221651
0.0220451
0.0231813
0.0230679
0.0229548
0.022842
0.0227296
0.0226175
0.0225057
0.0235526
0.0234466
0.0233409
0.0232355
0.0231304
0.0230257
0.0229213
0.0238855
0.0237862
0.0236871
0.0235883
0.0234899
0.0233918
0.0232941
0.0241817
0.0240883
0.0239952
0.0239024
0.0238099
0.0237177
0.0236259
0.0244429
0.0243548
0.0242669
0.0241794
0.0240921
0.0240052
0.0239186
0.0246702
0.0245867
0.0245035
0.0244205
0.0243379
0.0242555
0.0241735
0.0248648
0.0247853
0.0247061
0.0246271
0.0245485
0.0244701
0.024392
0.0250273
0.0249512
0.0248753
0.0247997
0.0247244
0.0246494
0.0245747
0.0251585
0.0250851
0.025012
0.0249392
0.0248667
0.0247944
0.0247224
0.0252577
0.0251866
0.0251156
0.025045
0.0249746
0.0249044
0.0248346
0.0253257
0.025256
0.0251866
0.0251174
0.0250485
0.0249798
0.0249114
0.0253599
0.0252912
0.0252227
0.0251545
0.0250866
0.0250189
0.0249514
-0.0593677
-0.0668616
-0.0741945
-0.0813678
-0.0883776
-0.0952063
-0.101679
-0.108316
-0.114715
-0.120818
-0.126707
-0.132431
-0.13799
-0.143381
-0.148601
-0.153654
-0.158542
-0.163267
-0.167832
-0.0536788
-0.0602413
-0.0666701
-0.0729625
-0.0791135
-0.0851116
-0.0909335
-0.0964593
-0.102057
-0.107557
-0.112883
-0.118053
-0.123087
-0.127993
-0.132767
-0.137411
-0.141926
-0.146315
-0.150579
-0.0475228
-0.0533358
-0.059034
-0.0646155
-0.0700783
-0.0754198
-0.080637
-0.085724
-0.0907235
-0.095693
-0.100543
-0.105255
-0.109848
-0.114335
-0.118719
-0.123
-0.127179
-0.131258
-0.135239
-0.0424282
-0.047586
-0.0526492
-0.0576177
-0.0624908
-0.0672674
-0.0719443
-0.076517
-0.0809664
-0.0854494
-0.0898435
-0.0941188
-0.0982952
-0.102389
-0.106405
-0.110342
-0.114201
-0.117982
-0.121688
-0.0375499
-0.0421545
-0.0466831
-0.0511363
-0.055515
-0.0598202
-0.064053
-0.0682131
-0.0722964
-0.0762409
-0.0802036
-0.0841174
-0.0879503
-0.0917083
-0.0954014
-0.0990331
-0.102604
-0.106114
-0.109564
-0.0332129
-0.0373372
-0.0413988
-0.0453982
-0.0493361
-0.0532126
-0.0570278
-0.0607808
-0.0644704
-0.0680915
-0.0716981
-0.0752662
-0.0787731
-0.0822201
-0.0856148
-0.0889612
-0.0922604
-0.0955128
-0.0987194
-0.0292067
-0.0329138
-0.0365702
-0.0401767
-0.0437342
-0.0472437
-0.0507061
-0.0541223
-0.0574922
-0.0608137
-0.0640609
-0.0673107
-0.0705276
-0.0736962
-0.0768206
-0.0799064
-0.0829558
-0.0859693
-0.0889476
-0.0255549
-0.0288973
-0.0321983
-0.0354585
-0.0386786
-0.0418592
-0.0450009
-0.0481039
-0.0511681
-0.0541933
-0.0571767
-0.0601578
-0.0631093
-0.0660219
-0.0688993
-0.0717464
-0.0745651
-0.0773561
-0.0801201
-0.0221955
-0.0252178
-0.0282066
-0.0311628
-0.0340871
-0.0369804
-0.0398438
-0.042678
-0.0454841
-0.0482622
-0.0510108
-0.0537063
-0.0564032
-0.0590831
-0.0617357
-0.0643626
-0.0669672
-0.069551
-0.0721143
-0.0191007
-0.0218395
-0.0245511
-0.0272358
-0.0298945
-0.0325277
-0.0351358
-0.0377193
-0.0402785
-0.0428133
-0.0453238
-0.047809
-0.0503128
-0.0527879
-0.0552318
-0.0576542
-0.0600605
-0.0624518
-0.0648279
-0.0162408
-0.0187289
-0.021195
-0.0236399
-0.0260641
-0.0284683
-0.0308534
-0.0332199
-0.0355688
-0.0379006
-0.0402155
-0.0425116
-0.0447665
-0.0470265
-0.0492829
-0.0515255
-0.0537531
-0.0559673
-0.0581698
-0.0135873
-0.0158515
-0.0180978
-0.0203269
-0.0225392
-0.0247353
-0.0269157
-0.0290809
-0.0312313
-0.0333674
-0.0354893
-0.0375973
-0.0396876
-0.0417787
-0.0438609
-0.0459304
-0.0479884
-0.0500368
-0.0520767
-0.0111181
-0.0131822
-0.0152318
-0.0172675
-0.0192896
-0.0212988
-0.0232952
-0.0252795
-0.0272518
-0.0292125
-0.0311616
-0.0330995
-0.0350255
-0.0369638
-0.0388872
-0.0407967
-0.0426975
-0.044592
-0.0464807
-0.00881424
-0.010699
-0.0125723
-0.0144346
-0.0162862
-0.0181277
-0.0199596
-0.0217823
-0.0235964
-0.0254024
-0.0272011
-0.0289926
-0.0307765
-0.0325342
-0.0342979
-0.0360624
-0.0378218
-0.039575
-0.0413233
-0.00665655
-0.00837978
-0.0100938
-0.0117989
-0.0134956
-0.0151841
-0.0168649
-0.0185382
-0.0202045
-0.021864
-0.023517
-0.0251638
-0.0268043
-0.0284369
-0.03007
-0.0316997
-0.0333247
-0.0349455
-0.0365633
-0.00462998
-0.00620729
-0.00777721
-0.00934003
-0.0108961
-0.0124456
-0.013989
-0.0155265
-0.0170584
-0.018585
-0.0201065
-0.0216232
-0.0231355
-0.0246433
-0.0261575
-0.0276646
-0.0291651
-0.0306624
-0.0321582
-0.00272255
-0.00416803
-0.00560767
-0.00704173
-0.00847049
-0.00989422
-0.0113132
-0.0127278
-0.0141382
-0.0155447
-0.0169477
-0.0183474
-0.0197439
-0.021137
-0.02252
-0.0239062
-0.0252943
-0.0266813
-0.0280665
-0.000922011
-0.00224779
-0.00356893
-0.00488563
-0.00619813
-0.00750665
-0.00881143
-0.0101127
-0.0114106
-0.0127056
-0.0139977
-0.0152872
-0.0165744
-0.0178593
-0.0191407
-0.0204233
-0.0217059
-0.0229876
-0.0242681
0.000780579
-0.000436501
-0.00164991
-0.00285985
-0.00406648
-0.00527001
-0.00647064
-0.00766854
-0.00886395
-0.0100571
-0.0112481
-0.0124373
-0.0136249
-0.0148112
-0.0159959
-0.0171816
-0.0183663
-0.0195501
-0.0207335
0.00239348
0.00127534
0.000160088
-0.000952405
-0.00206228
-0.00316967
-0.00427469
-0.00537745
-0.00647804
-0.00757651
-0.00867288
-0.00976707
-0.0108589
-0.0119484
-0.0130353
-0.0141433
-0.0152437
-0.0163389
-0.0174334
0.00392285
0.00289455
0.00186841
0.000844281
-0.000177986
-0.00119856
-0.00221763
-0.00323538
-0.00425206
-0.00526791
-0.00628326
-0.00729847
-0.00831402
-0.00933029
-0.0103476
-0.0113435
-0.0123471
-0.0133557
-0.0143652
0.00537666
0.00443066
0.00348634
0.00254358
0.00160227
0.000662293
-0.000276461
-0.00121411
-0.00215077
-0.00308655
-0.00402156
-0.00495587
-0.00588954
-0.00682259
-0.00775498
-0.00868617
-0.00961835
-0.0105513
-0.0114847
0.00675968
0.00588897
0.00501954
0.00415132
0.0032842
0.00241811
0.00155294
0.000688614
-0.000174976
-0.00103792
-0.00190032
-0.00276226
-0.00362385
-0.00448517
-0.00534631
-0.00620715
-0.00706847
-0.00793011
-0.00879211
0.00807611
0.00727431
0.00647349
0.00567358
0.00487451
0.0040762
0.00327859
0.00248159
0.00168514
0.000889136
9.3508e-05
-0.000701833
-0.00149697
-0.002292
-0.00308702
-0.00388204
-0.00467781
-0.0054737
-0.00626983
0.0093294
0.00859071
0.00785274
0.00711546
0.00637881
0.00564273
0.00490715
0.00417204
0.00343731
0.00270291
0.00196877
0.00123483
0.000501019
-0.000232722
-0.000966467
-0.00170028
-0.00243551
-0.00317064
-0.00390587
0.0105226
0.00984172
0.00916137
0.00848151
0.00780211
0.00712311
0.00644447
0.00576614
0.00508805
0.00441015
0.00373238
0.00305467
0.00237696
0.00169917
0.00102124
0.000343134
-0.000333776
-0.00101176
-0.00169065
0.0116586
0.0110307
0.0104033
0.00977617
0.00914941
0.00852296
0.00789676
0.00727078
0.00664498
0.00601933
0.00539376
0.00476825
0.00414274
0.00351718
0.00289153
0.00226574
0.00163992
0.00101363
0.000386873
0.0127396
0.0121604
0.0115815
0.0110029
0.0104246
0.0098464
0.00926844
0.00869063
0.00811295
0.00753536
0.00695783
0.00638032
0.0058028
0.00522522
0.00464755
0.00406974
0.0034918
0.00291355
0.00233498
0.0137677
0.0132332
0.012699
0.0121649
0.0116311
0.0110973
0.0105638
0.0100303
0.00949694
0.00896365
0.00843039
0.00789715
0.0073639
0.0068306
0.00629722
0.00576373
0.00523011
0.00469623
0.00416212
0.0147447
0.0142513
0.0137581
0.013265
0.0127721
0.0122792
0.0117865
0.0112939
0.0108013
0.0103088
0.00981633
0.00932388
0.00883142
0.00833893
0.00784639
0.00735377
0.00686105
0.00636813
0.00587508
0.0156723
0.0152167
0.0147612
0.0143059
0.0138506
0.0133954
0.0129403
0.0124853
0.0120304
0.0115755
0.0111207
0.0106659
0.0102111
0.00975626
0.00930141
0.0088465
0.0083915
0.00793603
0.00748072
0.0165519
0.016131
0.0157102
0.0152895
0.0148689
0.0144484
0.0140279
0.0136076
0.0131873
0.012767
0.0123469
0.0119267
0.0115066
0.0110866
0.0106665
0.0102465
0.0098265
0.0094068
0.00898675
0.0173849
0.016996
0.0166072
0.0162184
0.0158297
0.0154412
0.0150526
0.0146642
0.0142759
0.0138876
0.0134994
0.0131112
0.0127232
0.0123351
0.0119471
0.0115592
0.0111713
0.0107834
0.0103955
0.0181726
0.0178131
0.0174537
0.0170943
0.016735
0.0163758
0.0160167
0.0156577
0.0152987
0.0149399
0.0145811
0.0142224
0.0138638
0.0135053
0.0131469
0.0127885
0.0124302
0.012072
0.0117138
0.0189162
0.0185838
0.0182515
0.0179192
0.017587
0.0172549
0.0169228
0.0165909
0.0162591
0.0159274
0.0155958
0.0152642
0.0149329
0.0146016
0.0142704
0.0139393
0.0136083
0.0132774
0.0129466
0.0196171
0.0193096
0.0190021
0.0186948
0.0183875
0.0180804
0.0177733
0.0174664
0.0171595
0.0168528
0.0165462
0.0162398
0.0159334
0.0156272
0.0153212
0.0150152
0.0147094
0.0144038
0.0140982
0.0202762
0.0199917
0.0197073
0.0194229
0.0191386
0.0188544
0.0185704
0.0182864
0.0180026
0.017719
0.0174354
0.017152
0.0168688
0.0165857
0.0163028
0.0160201
0.0157375
0.015455
0.0151728
0.020895
0.0206316
0.0203683
0.0201051
0.019842
0.019579
0.0193161
0.0190534
0.0187908
0.0185284
0.0182661
0.018004
0.017742
0.0174802
0.0172187
0.0169572
0.016696