/*--------------------------------*- C++ -*----------------------------------*\
  =========                 |
  \\      /  F ield         | OpenFOAM: The Open Source CFD Toolbox
   \\    /   O peration     | Website:  https://openfoam.org
    \\  /    A nd           | Version:  7
     \\/     M anipulation  |
\*---------------------------------------------------------------------------*/
FoamFile
{
    version     2.0;
    format      ascii;
    class       surfaceScalarField;
    location    "280";
    object      phi;
}
// * * * * * * * * * * * * * * * * * * * * * * * * * * * * * * * * * * * * * //

dimensions      [0 3 -1 0 0 0 0];

internalField   nonuniform List<scalar> 
8882
(
5.61741e-06
-4.19207e-05
2.30878e-05
-0.00016544
-0.000333131
5.92386e-06
-4.78445e-05
2.41695e-05
-0.000183685
5.55161e-05
-0.000364478
0.000100226
-0.000589605
-0.000855475
6.22654e-06
-5.40711e-05
2.52211e-05
-0.00020268
5.75919e-05
-0.000396848
0.000103366
-0.000635378
0.000161654
-0.000913764
0.000230442
-0.00122382
0.000306603
-0.00155403
-0.00189068
6.52351e-06
-6.05946e-05
2.62354e-05
-0.000222392
5.95554e-05
-0.000430169
0.000106258
-0.000682081
0.000165145
-0.000972651
0.000233872
-0.00129255
0.000309033
-0.00162919
0.000386548
-0.00196819
0.000462263
-0.00229548
0.000532598
-0.00259948
0.000595039
-0.00287272
-0.00311241
6.8128e-06
-6.74074e-05
2.7205e-05
-0.000242784
6.13917e-05
-0.000464355
0.000108881
-0.000729571
0.000168159
-0.00103193
0.000236561
-0.00136095
0.000310437
-0.00170307
0.000385604
-0.00204336
0.000457986
-0.00236786
0.000524248
-0.00266574
0.000582215
-0.00293069
0.000631008
-0.0031612
0.000670898
-0.00335988
0.00070297
-0.00353212
-0.00368464
7.09248e-06
-7.44999e-05
2.81229e-05
-0.000263814
6.30863e-05
-0.000499319
0.000111213
-0.000777697
0.00017067
-0.00109138
0.000238492
-0.00142877
0.000310816
-0.00177539
0.000383403
-0.00211594
0.000452302
-0.00243676
0.000514447
-0.00272789
0.000568008
-0.00298425
0.000612441
-0.00320563
0.000648274
-0.00339571
0.000676747
-0.00356059
0.000699423
-0.00370732
0.000717868
-0.00384265
0.000733435
-0.00397229
0.000747156
-0.00410055
-0.00423022
7.36062e-06
-8.18605e-05
2.89822e-05
-0.000285436
6.46261e-05
-0.000534963
0.000113234
-0.000826305
0.000172659
-0.00115081
0.000239653
-0.00149577
0.000310178
-0.00184592
0.000379985
-0.00218575
0.000445286
-0.00250206
0.000503305
-0.00278591
0.000552554
-0.0030335
0.000592798
-0.00324588
0.000624791
-0.0034277
0.000649888
-0.00358569
0.00066967
-0.0037271
0.000685645
-0.00385862
0.000699069
-0.00398572
0.000710872
-0.00411235
0.000721671
-0.00424102
-0.00437307
0.00073178
7.61531e-06
-8.94758e-05
2.97766e-05
-0.000307597
6.59988e-05
-0.000571185
0.00011493
-0.000875236
0.000174113
-0.00120999
0.000240041
-0.0015617
0.000308542
-0.00191442
0.000375399
-0.00225261
0.000437021
-0.00256368
0.000490935
-0.00283982
0.000535983
-0.00307855
0.000572217
-0.00328211
0.000600579
-0.00345606
0.000622509
-0.00360762
0.000639579
-0.00374417
0.000653229
-0.00387227
0.000664616
-0.00399711
0.000674569
-0.00412231
0.000683619
-0.00425007
-0.00438148
0.000692021
7.85474e-06
-9.73305e-05
3.04999e-05
-0.000330242
6.71937e-05
-0.000607879
0.000116286
-0.000924328
0.000175021
-0.00126873
0.00023966
-0.00162633
0.000305934
-0.00198069
0.000369701
-0.00231638
0.000427592
-0.00262158
0.000477446
-0.00288968
0.000518422
-0.00311953
0.000550826
-0.00331451
0.000575758
-0.003481
0.000594714
-0.00362657
0.000609236
-0.00375869
0.000620686
-0.00388372
0.000630122
-0.00400654
0.00063828
-0.00413046
0.000645613
-0.00425741
-0.00438819
0.000652323
8.07716e-06
-0.000105408
3.11466e-05
-0.000353312
6.82011e-05
-0.000644933
0.000117292
-0.000973419
0.000175378
-0.00132681
0.000238519
-0.00168948
0.000302387
-0.00204456
0.000362951
-0.00237694
0.000417089
-0.00267571
0.000462949
-0.00293554
0.00049999
-0.00315657
0.000528744
-0.00334327
0.000550437
-0.00350269
0.000566594
-0.00364273
0.000578714
-0.00377081
0.000588071
-0.00389308
0.000595629
-0.0040141
0.000602035
-0.00413687
0.000607676
-0.00426305
-0.00439322
0.000612706
8.28091e-06
-0.000113689
3.17117e-05
-0.000376743
6.90132e-05
-0.000682235
0.00011794
-0.00102235
0.000175184
-0.00138406
0.000236632
-0.00175092
0.000297939
-0.00210587
0.000355215
-0.00243422
0.000405599
-0.0027261
0.000447549
-0.00297749
0.000480799
-0.00318982
0.000506079
-0.00336855
0.000524713
-0.00352132
0.000538231
-0.00365625
0.000548075
-0.00378066
0.000555431
-0.00390044
0.00056117
-0.00401984
0.000565861
-0.00414156
0.000569828
-0.00426701
-0.00439658
0.000573187
8.46448e-06
-0.000122153
3.21907e-05
-0.000400469
6.96235e-05
-0.000719668
0.000118227
-0.00107095
0.000174443
-0.00144027
0.000234022
-0.0018105
0.000292634
-0.00216448
0.00034656
-0.00248814
0.000393213
-0.00277275
0.000431347
-0.00301562
0.000460954
-0.00321942
0.000482932
-0.00339053
0.000498673
-0.00353707
0.000509695
-0.00366727
0.000517375
-0.00378833
0.000522808
-0.00390587
0.000526777
-0.00402381
0.000529779
-0.00414456
0.000532086
-0.00426932
-0.00439827
0.000533781
8.62743e-06
-0.000130781
3.25818e-05
-0.000424423
7.003e-05
-0.000757116
0.000118154
-0.00111907
0.000173169
-0.00149529
0.000230718
-0.00186805
0.000286525
-0.00222029
0.000337063
-0.00253868
0.000380025
-0.00281571
0.00041445
-0.00305005
0.000440562
-0.00324553
0.000459399
-0.00340936
0.000472401
-0.00355007
0.000481056
-0.00367593
0.000486667
-0.00379395
0.000490243
-0.00390944
0.000492482
-0.00402605
0.000493817
-0.0041459
0.000494474
-0.00426998
-0.00439831
0.00049451
8.76671e-06
-0.000139547
3.28781e-05
-0.000448535
7.02236e-05
-0.000794461
0.000117714
-0.00116656
0.000171362
-0.00154894
0.000226738
-0.00192343
0.000279649
-0.0022732
0.000326781
-0.00258581
0.000366104
-0.00285503
0.000396933
-0.00308088
0.000419696
-0.0032683
0.000435547
-0.00342521
0.000445951
-0.00356047
0.000452353
-0.00368233
0.00045598
-0.00379757
0.000457752
-0.00391122
0.000458294
-0.00402659
0.000457979
-0.00414558
0.000456994
-0.00426899
-0.00439669
0.000455375
8.88211e-06
-0.000148429
3.30789e-05
-0.000472731
7.02053e-05
-0.000831588
0.000116915
-0.00121327
0.000169043
-0.00160106
0.000222121
-0.00197651
0.000272064
-0.00232314
0.000315788
-0.00262954
0.000351541
-0.00289079
0.00037889
-0.00310822
0.000398448
-0.00328786
0.000411457
-0.00343822
0.00041939
-0.0035684
0.000423642
-0.00368658
0.000425355
-0.00379929
0.000425369
-0.00391123
0.000424239
-0.00402546
0.000422287
-0.00414363
0.000419666
-0.00426637
-0.00439342
0.000416394
8.9727e-06
-0.000157402
3.31824e-05
-0.000496941
6.99749e-05
-0.00086838
0.000115762
-0.00125906
0.00016623
-0.00165153
0.0002169
-0.00202718
0.000263823
-0.00237006
0.000304155
-0.00266987
0.000336413
-0.00292304
0.000360401
-0.00313221
0.000376892
-0.00330435
0.000387195
-0.00344853
0.000392773
-0.00357398
0.000394962
-0.00368877
0.000394824
-0.00379915
0.000393118
-0.00390952
0.000390336
-0.00402268
0.000386755
-0.00414005
0.000382502
-0.00426212
-0.0043885
0.000377582
9.0377e-06
-0.00016644
3.31874e-05
-0.000521091
6.95334e-05
-0.000904726
0.000114264
-0.00130379
0.000162943
-0.00170021
0.000211112
-0.00207534
0.000254981
-0.00241393
0.000291947
-0.00270683
0.000320794
-0.00295189
0.000341541
-0.00315296
0.000355096
-0.0033179
0.000362818
-0.00345625
0.000366147
-0.00357731
0.000366351
-0.00368897
0.000364413
-0.00379721
0.000361018
-0.00390613
0.000356599
-0.00401826
0.000351398
-0.00413485
0.000345515
-0.00425624
-0.00438193
0.000338949
9.07651e-06
-0.000175516
3.30935e-05
-0.000545108
6.88834e-05
-0.000940516
0.000112431
-0.00134734
0.000159206
-0.00174699
0.000204796
-0.00212093
0.000245589
-0.00245472
0.00027923
-0.00274048
0.000304754
-0.00297741
0.000322379
-0.00317059
0.000333124
-0.00332865
0.00033838
-0.0034615
0.000339553
-0.00357848
0.00033784
-0.00368726
0.000334146
-0.00379352
0.000329087
-0.00390107
0.000323045
-0.00401222
0.000316227
-0.00412803
0.000308715
-0.00424872
-0.00437372
0.000300507
9.08869e-06
-0.000184605
3.29008e-05
-0.00056892
6.80285e-05
-0.000975644
0.000110274
-0.00138958
0.000155041
-0.00179175
0.000197991
-0.00216388
0.0002357
-0.00249243
0.000266065
-0.00277084
0.000288358
-0.00299971
0.000302976
-0.0031852
0.000311031
-0.0033367
0.000313927
-0.0034644
0.000313026
-0.00357758
0.000309457
-0.00368369
0.000304045
-0.0037881
0.000297343
-0.00389437
0.000289686
-0.00400456
0.000281253
-0.0041196
0.000272114
-0.00423959
-0.00436387
0.000262267
9.07397e-06
-0.000193679
3.261e-05
-0.000592456
6.69736e-05
-0.00101001
0.000107808
-0.00143042
0.000150475
-0.00183442
0.000190734
-0.00220414
0.000225366
-0.00252706
0.000252512
-0.00279799
0.000271668
-0.00301886
0.000283391
-0.00319693
0.000288867
-0.00334218
0.000289499
-0.00346503
0.000286601
-0.00357468
0.000281225
-0.00367831
0.000274127
-0.00378101
0.000265798
-0.00388604
0.000256534
-0.00399529
0.000246489
-0.00410955
0.000235721
-0.00422882
-0.00435239
0.000224238
9.03227e-06
-0.000202711
3.22224e-05
-0.000615646
6.57248e-05
-0.00104351
0.000105046
-0.00146974
0.000145534
-0.00187491
0.000183067
-0.00224168
0.000214635
-0.00255863
0.000238625
-0.00282198
0.00025474
-0.00303498
0.000263676
-0.00320586
0.000266677
-0.00334518
0.000265134
-0.00346349
0.000260304
-0.00356985
0.000253168
-0.00367118
0.00024441
-0.00377225
0.000234469
-0.0038761
0.000223601
-0.00398443
0.000211942
-0.00409789
0.000199546
-0.00421642
-0.00433927
0.00018643
8.96364e-06
-0.000211675
3.17399e-05
-0.000638422
6.42887e-05
-0.00107606
0.000102004
-0.00150745
0.000140245
-0.00191315
0.000175026
-0.00227646
0.000203557
-0.00258716
0.000224457
-0.00284288
0.000237626
-0.00304815
0.000243879
-0.00321211
0.000244501
-0.0033458
0.000240863
-0.00345985
0.000234161
-0.00356315
0.000225303
-0.00366232
0.000214909
-0.00376185
0.000203366
-0.00386455
0.000190899
-0.00397196
0.000177625
-0.00408462
0.000163597
-0.00420239
-0.00432452
0.000148844
8.8683e-06
-0.000220543
3.11648e-05
-0.000660719
6.26731e-05
-0.00110757
9.86978e-05
-0.00154348
0.000134635
-0.00194909
0.000166651
-0.00230847
0.000192176
-0.00261269
0.000210057
-0.00286076
0.000220373
-0.00305846
0.000224042
-0.00321578
0.000222376
-0.00334413
0.000216715
-0.00345419
0.000208193
-0.00355463
0.000197649
-0.00365178
0.000185638
-0.00374984
0.000172502
-0.00385142
0.000158437
-0.0039579
0.000143544
-0.00406973
0.000127883
-0.00418673
-0.00430811
0.000111475
8.74659e-06
-0.00022929
3.04998e-05
-0.000682472
6.08862e-05
-0.00113795
9.51454e-05
-0.00157774
0.000128732
-0.00198267
0.000157978
-0.00233772
0.000180536
-0.00263525
0.000195472
-0.00287569
0.000203026
-0.00306602
0.000204204
-0.00321696
0.000200333
-0.00334026
0.000192716
-0.00344657
0.000182421
-0.00354434
0.00017022
-0.00363958
0.00015661
-0.00373623
0.00014189
-0.0038367
0.000126227
-0.00394223
0.000109709
-0.00405321
9.24086e-05
-0.00416943
-0.00429002
7.43186e-05
8.59901e-06
-0.000237889
2.97481e-05
-0.000703621
5.89369e-05
-0.00116714
9.13637e-05
-0.00161017
0.000122562
-0.00201387
0.000149041
-0.0023642
0.000168678
-0.00265488
0.000180743
-0.00288776
0.000185624
-0.0030709
0.0001844
-0.00321574
0.000178401
-0.00333426
0.000168887
-0.00343706
0.000156862
-0.00353231
0.00014303
-0.00362574
0.000127838
-0.00372104
0.000111542
-0.0038204
9.42877e-05
-0.00392498
7.61477e-05
-0.00403507
5.71594e-05
-0.00415045
-0.00427023
3.7366e-05
8.42616e-06
-0.000246315
2.89131e-05
-0.000724108
5.68344e-05
-0.00119506
8.73701e-05
-0.0016407
0.000116152
-0.00204265
0.000139877
-0.00238792
0.000156641
-0.00267165
0.000165909
-0.00289703
0.000168205
-0.00307319
0.000164662
-0.00321219
0.000156606
-0.00332621
0.000145248
-0.0034257
0.00013153
-0.00351859
0.000116093
-0.00361031
9.93316e-05
-0.00370428
8.14714e-05
-0.00380254
6.2639e-05
-0.00390614
4.29144e-05
-0.00401534
2.22264e-05
-0.00412976
-0.00424754
-4.65185e-07
8.22875e-06
-0.000254544
2.79987e-05
-0.000743878
5.45882e-05
-0.00122165
8.31822e-05
-0.00166929
0.000109528
-0.002069
0.000130516
-0.00240891
0.00014446
-0.00268559
0.000151007
-0.00290358
0.000150799
-0.00307299
0.000145016
-0.00320641
0.000134969
-0.00331616
0.000121817
-0.00341255
0.00010644
-0.00350322
8.94187e-05
-0.00359329
7.11018e-05
-0.00368596
5.16843e-05
-0.00378312
3.12854e-05
-0.00388575
9.96764e-06
-0.00399403
-1.21563e-05
-0.00410763
-0.00422437
-3.53224e-05
8.00761e-06
-0.000262551
2.70088e-05
-0.000762879
5.22083e-05
-0.00124685
7.88173e-05
-0.0016959
0.000102714
-0.0020929
0.00012099
-0.00242719
0.000132169
-0.00269677
0.00013607
-0.00290748
0.000133439
-0.00307036
0.000125489
-0.00319846
0.00011351
-0.00330418
9.86094e-05
-0.00339765
8.16031e-05
-0.00348621
6.30178e-05
-0.0035747
4.3158e-05
-0.0036661
2.21869e-05
-0.00376215
1.88028e-07
-0.00386375
-2.26815e-05
-0.00397116
-4.6512e-05
-0.0040838
-0.00419983
-7.10564e-05
7.76362e-06
-0.000270315
2.59475e-05
-0.000781063
4.97044e-05
-0.00127061
7.42925e-05
-0.00172049
9.57358e-05
-0.00211434
0.000111329
-0.00244278
0.000119799
-0.00270524
0.000121128
-0.00290881
0.00011615
-0.00306538
0.000106102
-0.00318841
9.2247e-05
-0.00329033
7.56382e-05
-0.00338104
5.7031e-05
-0.0034676
3.68996e-05
-0.00355457
1.55081e-05
-0.00364471
-7.00185e-06
-0.00373964
-3.05285e-05
-0.00384022
-5.50238e-05
-0.00394666
-8.04329e-05
-0.00405839
-0.00417365
-0.000106609
7.49776e-06
-0.000277813
2.48192e-05
-0.000798384
4.70865e-05
-0.00129288
6.96248e-05
-0.00174303
8.86155e-05
-0.00213333
0.000101559
-0.00245573
0.00010738
-0.00271106
0.000106208
-0.00290763
9.89557e-05
-0.00305813
8.6875e-05
-0.00317633
7.11954e-05
-0.00327465
5.29155e-05
-0.00336276
3.27328e-05
-0.00344742
1.10716e-05
-0.00353291
-1.18391e-05
-0.0036218
-3.58816e-05
-0.0037156
-6.09748e-05
-0.00381513
-8.70533e-05
-0.00392058
-0.000114045
-0.0040314
-0.00414583
-0.000141871
7.21107e-06
-0.000285024
2.36284e-05
-0.000814802
4.43646e-05
-0.00131361
6.48303e-05
-0.0017635
8.13756e-05
-0.00214987
9.17061e-05
-0.00246606
9.49378e-05
-0.00271429
9.13351e-05
-0.00290403
8.1879e-05
-0.00304867
6.78256e-05
-0.00316228
5.03687e-05
-0.00325719
3.04519e-05
-0.00334284
8.71688e-06
-0.00342568
-1.44565e-05
-0.00350974
-3.88752e-05
-0.00359738
-6.44451e-05
-0.00369003
-9.10978e-05
-0.00378847
-0.000118759
-0.00389292
-0.000147344
-0.00400282
-0.000176808
6.90461e-06
-0.000291928
2.23794e-05
-0.000830276
4.15484e-05
-0.00133278
5.9925e-05
-0.00178187
7.40369e-05
-0.00216399
8.1795e-05
-0.00247381
8.24974e-05
-0.002715
7.65328e-05
-0.00289807
6.49388e-05
-0.00303708
4.89694e-05
-0.00314631
2.9779e-05
-0.003238
8.25664e-06
-0.00332132
-1.50072e-05
-0.00340242
-3.9678e-05
-0.00348506
-6.55942e-05
-0.00357147
-9.26828e-05
-0.00366294
-0.000120888
-0.00376027
-0.000150132
-0.00386368
6.57951e-06
-0.000298508
2.10768e-05
-0.000844774
3.86475e-05
-0.00135035
5.49241e-05
-0.00179815
6.66193e-05
-0.00217568
7.18479e-05
-0.00247904
7.00811e-05
-0.00271323
6.18214e-05
-0.00288981
4.81524e-05
-0.00302341
3.032e-05
-0.00312848
9.4368e-06
-0.00321712
-1.36607e-05
-0.00329822
-3.84335e-05
-0.00337765
-6.45869e-05
-0.00345891
-9.19883e-05
-0.00354406
-0.000120586
-0.00363435
-0.000150338
6.23693e-06
-0.000304745
1.97251e-05
-0.000858262
3.56714e-05
-0.0013663
4.98422e-05
-0.00181232
5.91417e-05
-0.00218498
6.18854e-05
-0.00248179
5.77096e-05
-0.00270905
4.72192e-05
-0.00287932
3.15353e-05
-0.00300772
1.18897e-05
-0.00310883
-1.06481e-05
-0.00319458
-3.52936e-05
-0.00327358
-6.15558e-05
-0.00335139
-8.91763e-05
-0.00343129
-0.00011805
-0.00351519
5.87803e-06
-0.000310623
1.83288e-05
-0.000870713
3.26293e-05
-0.0013806
4.46934e-05
-0.00182438
5.16216e-05
-0.00219191
5.1927e-05
-0.00248209
4.54017e-05
-0.00270253
3.27431e-05
-0.00286666
1.51011e-05
-0.00299008
-6.31085e-06
-0.00308742
-3.04674e-05
-0.00317042
-5.66356e-05
-0.00324741
-8.43679e-05
-0.00332365
-0.00011344
-0.00340222
5.50401e-06
-0.000316127
1.68922e-05
-0.000882101
2.953e-05
-0.00139324
3.94909e-05
-0.00183435
4.40755e-05
-0.00219649
4.19904e-05
-0.00248001
3.31747e-05
-0.00269371
1.8408e-05
-0.00285189
-1.13736e-06
-0.00297054
-2.42719e-05
-0.00306428
-5.00144e-05
-0.00314468
-7.76806e-05
-0.00321974
-0.000106865
-0.00329447
5.11609e-06
-0.000321243
1.54199e-05
-0.000892405
2.63822e-05
-0.0014042
3.42475e-05
-0.00184221
3.65189e-05
-0.00219877
3.20923e-05
-0.00247558
2.1044e-05
-0.00268266
4.22879e-06
-0.00283507
-1.71705e-05
-0.00294914
-4.19856e-05
-0.00303947
-6.92825e-05
-0.00311738
-9.84234e-05
-0.0031906
4.71552e-06
-0.000325958
1.3916e-05
-0.000901605
2.31941e-05
-0.00141348
2.89751e-05
-0.00184799
2.89664e-05
-0.00219876
2.22477e-05
-0.00246886
9.0243e-06
-0.00266944
-9.78623e-06
-0.00281626
-3.29878e-05
-0.00292593
-5.94444e-05
-0.00301301
-8.8266e-05
-0.00308856
4.30364e-06
-0.000330262
1.23848e-05
-0.000909686
1.99738e-05
-0.00142107
2.36852e-05
-0.0018517
2.14319e-05
-0.0021965
1.24706e-05
-0.0024599
-2.86708e-06
-0.0026541
-2.36226e-05
-0.00279551
-4.85812e-05
-0.00290098
-7.6642e-05
-0.00298495
3.88193e-06
-0.000334144
1.08306e-05
-0.000916635
1.67288e-05
-0.00142696
1.83885e-05
-0.00185336
1.3928e-05
-0.00219204
2.78518e-06
-0.00244876
-1.46352e-05
-0.00263668
-3.72734e-05
-0.00277287
-6.39432e-05
-0.00287431
3.45216e-06
-0.000337596
9.25756e-06
-0.00092244
1.34668e-05
-0.00143117
1.30967e-05
-0.00185299
6.46437e-06
-0.00218541
-6.83107e-06
-0.00243546
-2.62535e-05
-0.00261726
-5.07288e-05
-0.0027484
3.01643e-06
-0.000340613
7.6694e-06
-0.000927093
1.01945e-05
-0.0014337
7.82049e-06
-0.00185062
-9.03153e-07
-0.00217669
-1.63341e-05
-0.00242003
-3.77184e-05
-0.00259588
2.57443e-06
-0.000343187
6.06953e-06
-0.000930588
6.91872e-06
-0.00143455
2.57128e-06
-0.00184627
-8.3007e-06
-0.00216581
-2.57327e-05
-0.0024026
2.12731e-06
-0.000345314
4.46272e-06
-0.000932924
3.64272e-06
-0.00143373
-2.66226e-06
-0.00183997
-1.55801e-05
-0.0021529
1.67546e-06
-0.00034699
2.85358e-06
-0.000934102
4.16479e-07
-0.00143129
-7.87047e-06
-0.00183168
-0.00213798
1.21798e-06
-0.000348208
1.23318e-06
-0.000934117
-2.88338e-06
-0.00142717
-1.30289e-05
-0.00182153
7.51147e-07
-0.000348959
-3.87012e-07
-0.000932979
-6.12735e-06
-0.00142143
2.41283e-07
-0.0003492
-2.00963e-06
-0.000930728
-0.0014141
-2.38078e-07
-0.000348962
-3.62261e-06
-0.000927343
-6.68547e-07
-0.000348294
-0.000347168
0.000374657
0.000376282
-1.16442e-06
0.000377447
0.000996032
-7.09132e-07
0.000378156
-5.50027e-06
0.00100082
0.00151098
-2.78993e-07
0.000378435
-3.91307e-06
0.00100446
0.0015204
1.76001e-07
0.000378259
-2.31015e-06
0.00100694
-1.01704e-05
0.00152826
0.00193818
7.07833e-07
0.000377551
-6.91757e-07
0.00100834
-6.97968e-06
0.00153455
-1.97927e-05
0.001951
0.00226348
1.17714e-06
0.000376374
9.22374e-07
0.0010086
-3.76238e-06
0.00153923
-1.47453e-05
0.00196198
-3.26426e-05
0.00228138
0.00251148
1.63573e-06
0.000374738
2.53972e-06
0.00100769
-4.73447e-07
0.00154225
-9.64391e-06
0.00197115
-2.56273e-05
0.00229736
0.00253402
2.08855e-06
0.00037265
4.14515e-06
0.00100564
2.72936e-06
0.00154366
-4.50049e-06
0.00197838
-1.85225e-05
0.00231138
-3.91766e-05
0.00255467
0.00272659
2.5372e-06
0.000370112
5.74977e-06
0.00100242
5.98865e-06
0.00154342
7.43692e-07
0.00198363
-1.13346e-05
0.00232346
-3.00581e-05
0.00257339
-5.46225e-05
0.00275115
0.00287681
2.98167e-06
0.000367131
7.34976e-06
0.000998056
9.24546e-06
0.00154153
5.89466e-06
0.00198698
-4.07271e-06
0.00233343
-2.0818e-05
0.00259014
-4.35414e-05
0.00277387
-7.10659e-05
0.00290433
0.00300012
3.4208e-06
0.00036371
8.94046e-06
0.000992537
1.25065e-05
0.00153796
1.1136e-05
0.00198835
3.25439e-06
0.00234131
-1.14661e-05
0.00260486
-3.22978e-05
0.00279471
-5.81022e-05
0.00293014
-8.76437e-05
0.00302966
0.00310851
3.85323e-06
0.000359857
1.05192e-05
0.000985871
1.57644e-05
0.00153272
1.63936e-05
0.00198772
1.06184e-05
0.00234709
-1.98599e-06
0.00261747
-2.08981e-05
0.00281362
-4.49382e-05
0.00295418
-7.28767e-05
0.0030576
-0.000103635
0.00313927
0.00321036
4.27923e-06
0.000355577
1.20826e-05
0.000978067
1.90106e-05
0.00152579
2.16625e-05
0.00198507
1.80435e-05
0.00235071
7.54828e-06
0.00262796
-9.35513e-06
0.00283052
-3.15801e-05
0.0029764
-5.78769e-05
0.0030839
-8.71285e-05
0.00316852
-0.000118505
0.00324174
0.00331107
4.69712e-06
0.00035088
1.36267e-05
0.000969138
2.22383e-05
0.00151718
2.69334e-05
0.00198037
2.55086e-05
0.00235213
1.7188e-05
0.00263628
2.33782e-06
0.00284537
-1.80354e-05
0.00299678
-4.265e-05
0.00310851
-7.03625e-05
0.00319623
-0.000100299
0.00327168
-0.000131891
0.00334266
0.00341384
5.10514e-06
0.000345775
1.51474e-05
0.000959096
2.54407e-05
0.00150688
3.21962e-05
0.00197362
3.30022e-05
0.00235132
2.69041e-05
0.00264238
1.41391e-05
0.00285814
-4.3124e-06
0.00301523
-2.72019e-05
0.0031314
-5.33424e-05
0.00322237
-8.1814e-05
0.00330015
-0.000112006
0.00337285
-0.000143576
0.00344541
0.00352056
5.50186e-06
0.000340273
1.66408e-05
0.000947957
2.86105e-05
0.00149491
3.74404e-05
0.00196479
4.05116e-05
0.00234825
3.66848e-05
0.00264621
2.60694e-05
0.00286875
9.57867e-06
0.00303172
-1.15403e-05
0.00315252
-3.60734e-05
0.00324691
-6.30545e-05
0.00332713
-9.1827e-05
0.00340162
-0.000122012
0.00347559
-0.000153435
0.00355198
0.00363244
5.88602e-06
0.000334387
1.81029e-05
0.00093574
3.17402e-05
0.00148128
4.26553e-05
0.00195387
4.80239e-05
0.00234288
4.65169e-05
0.00264771
3.81053e-05
0.00287716
2.36304e-05
0.00304619
4.32776e-06
0.00317183
-1.85616e-05
0.0032698
-4.40249e-05
0.00335259
-7.13581e-05
0.00342896
-0.000100144
0.00350438
-0.000130178
0.00358202
-0.000161388
0.00366365
0.00375036
6.25639e-06
0.000328131
1.95294e-05
0.000922467
3.48218e-05
0.00146598
4.78295e-05
0.00194086
5.55255e-05
0.00233519
5.63857e-05
0.00264685
5.02339e-05
0.00288332
3.78309e-05
0.0030586
2.03928e-05
0.00318926
-8.15074e-07
0.003291
-2.47308e-05
0.00337651
-5.06039e-05
0.00345483
-7.79743e-05
0.00353175
-0.000106607
0.00361065
-0.000136406
0.00369345
-0.000167341
0.0037813
-0.000199373
0.00387483
0.00397421
6.61183e-06
0.000321519
2.09162e-05
0.000908162
3.7847e-05
0.00144905
5.2951e-05
0.00192576
6.30015e-05
0.00232514
6.62754e-05
0.00264358
6.24405e-05
0.00288715
5.21672e-05
0.00306887
3.66454e-05
0.00320479
1.71619e-05
0.00331049
-5.17863e-06
0.00339885
-2.95696e-05
0.00347922
-5.55091e-05
0.00355769
-8.27274e-05
0.00363787
-0.000111105
0.00372183
-0.000140591
0.00381078
-0.000171136
0.00390537
-0.000202652
0.00400572
0.00411122
6.95122e-06
0.000314568
2.22591e-05
0.000892855
4.08075e-05
0.0014305
5.8007e-05
0.00190856
7.04363e-05
0.00231271
7.61694e-05
0.00263785
7.47092e-05
0.00288861
6.66253e-05
0.00307695
5.30736e-05
0.00321834
3.53573e-05
0.0033282
1.46267e-05
0.00341958
-8.26123e-06
0.00350211
-3.27532e-05
0.00358218
-5.85453e-05
0.00366366
-8.54908e-05
0.00374878
-0.00011352
0.00383881
-0.000142573
0.00393443
-0.000172564
0.00403571
-0.000203396
0.00414205
0.00425163
-0.000235034
7.27341e-06
0.000307294
2.35539e-05
0.000876574
4.36944e-05
0.00141036
6.29844e-05
0.00188927
7.78134e-05
0.00229788
8.60496e-05
0.00262961
8.70221e-05
0.00288764
8.11897e-05
0.00308279
6.96649e-05
0.00322986
5.37623e-05
0.00334411
3.46758e-05
0.00343867
1.33167e-05
0.00352347
-9.713e-06
0.00360521
-3.40664e-05
0.00368801
-5.95707e-05
0.00377428
-8.61366e-05
0.00386538
-0.000113694
0.00396198
-0.000142159
0.00406418
-0.000171448
0.00417134
0.00428171
-0.000201526
7.57734e-06
0.000299717
2.47963e-05
0.000859355
4.64989e-05
0.00138866
6.78691e-05
0.0018679
8.51149e-05
0.00228063
9.58963e-05
0.00261883
9.93602e-05
0.00288417
9.58432e-05
0.0030863
8.6405e-05
0.0032393
7.23655e-05
0.00335814
5.49603e-05
0.00345607
3.51561e-05
0.00354327
1.36073e-05
0.00362676
-9.29778e-06
0.00371092
-3.33518e-05
0.00379834
-5.84485e-05
0.00389047
-8.45076e-05
0.00398804
-0.000111448
0.00409112
-0.0001392
0.00419909
0.00431022
-0.000167712
7.86194e-06
0.000291855
2.59819e-05
0.000841235
4.92118e-05
0.00136543
7.26469e-05
0.00184446
9.23222e-05
0.00226096
0.000105689
0.00260546
0.000111702
0.00287816
0.000110567
0.00308744
0.000103278
0.00324659
9.11545e-05
0.00337027
7.54706e-05
0.00347176
5.72491e-05
0.00356149
3.72e-05
0.00364681
1.57567e-05
0.00373236
-6.84256e-06
0.00382094
-3.04641e-05
0.0039141
-5.50229e-05
0.0040126
-8.04391e-05
0.00411653
-0.000106665
0.00422532
0.00433716
-0.000133603
8.12618e-06
0.000283729
2.71066e-05
0.000822255
5.18238e-05
0.00134071
7.73026e-05
0.00181899
9.94154e-05
0.00223885
0.000115404
0.00258947
0.000124026
0.00286954
0.000125339
0.00308612
0.000120266
0.00325166
0.000110115
0.00338042
9.61957e-05
0.00348567
7.95871e-05
0.0035781
6.10573e-05
0.00366534
4.10886e-05
0.00375233
1.99545e-05
0.00384207
-2.19434e-06
0.00393624
-2.52495e-05
0.00403566
-4.91399e-05
0.00414042
-7.38556e-05
0.00425003
0.00436253
-9.92195e-05
8.36907e-06
0.00027536
2.81661e-05
0.000802458
5.43253e-05
0.00131456
8.18208e-05
0.00179149
0.000106374
0.00221429
0.000125018
0.00257083
0.000136306
0.00285825
0.000140138
0.00308229
0.00013735
0.00325445
0.000129231
0.00338854
0.000117123
0.00349778
0.000102161
0.00359307
8.51715e-05
0.00368233
6.66899e-05
0.00377081
4.70283e-05
0.00386173
2.63626e-05
0.00395691
4.80016e-06
0.00405722
-1.7563e-05
0.00416279
-4.07643e-05
0.00427323
0.00438636
-6.46028e-05
8.5897e-06
0.00026677
2.91562e-05
0.000781891
5.67071e-05
0.001287
8.61856e-05
0.00176201
0.000113175
0.0021873
0.000134505
0.0025495
0.000148515
0.00284424
0.000154937
0.00307587
0.000154506
0.00325488
0.000148485
0.00339456
0.00013824
0.00350803
0.000124959
0.00360635
0.000109534
0.00369775
9.25534e-05
0.00378779
7.43714e-05
0.00387991
5.51906e-05
0.00397609
3.51325e-05
0.00407728
1.42927e-05
0.00418363
-7.17964e-06
0.00429471
0.00440907
-2.98872e-05
8.78719e-06
0.000257983
3.0073e-05
0.000760605
5.89595e-05
0.00125812
9.03806e-05
0.00173059
0.000119797
0.00215789
0.000143838
0.00252546
0.000160625
0.00282745
0.000169709
0.00306679
0.000171712
0.00325288
0.000167857
0.00339841
0.000159529
0.00351636
0.00014797
0.0036179
0.000134135
0.00371159
0.000118671
0.00380326
0.000101976
0.00389661
8.42831e-05
0.00399378
6.57252e-05
0.00409583
4.63857e-05
0.00420297
2.62158e-05
0.00431488
0.00443067
4.61748e-06
8.96077e-06
0.000249022
3.09127e-05
0.000738653
6.10733e-05
0.00122796
9.43894e-05
0.00169727
0.000126216
0.00212606
0.000152988
0.00249869
0.000172604
0.00280784
0.000184423
0.00305497
0.000188939
0.00324836
0.000187324
0.00340003
0.000180973
0.00352271
0.00017118
0.0036277
0.000158964
0.0037238
0.000145033
0.00381719
0.000129834
0.00391181
0.000113632
0.00400999
9.6576e-05
0.00411289
7.87451e-05
0.0042208
6.01837e-05
0.00433344
0.00444996
4.0898e-05
9.10975e-06
0.000239912
3.16717e-05
0.000716091
6.30393e-05
0.00119659
9.81952e-05
0.00166212
0.000132407
0.00209185
0.000161924
0.00246917
0.000184419
0.00278534
0.000199046
0.00304034
0.000206157
0.00324125
0.00020686
0.00339933
0.000202552
0.00352701
0.000194574
0.00363568
0.000184008
0.00373437
0.00017163
0.00382957
0.000157937
0.0039255
0.000143231
0.00402469
0.000127684
0.00412844
0.000111389
0.00423709
9.44159e-05
0.00435041
0.0044676
7.67747e-05
9.23353e-06
0.000230679
3.23465e-05
0.000692978
6.48485e-05
0.00116409
0.000101781
0.00162519
0.000138345
0.00205529
0.000170614
0.0024369
0.000196034
0.00275992
0.000213542
0.00302284
0.000223335
0.00323146
0.000226439
0.00339622
0.000224245
0.00352921
0.000218134
0.00364179
0.000209255
0.00374325
0.000198451
0.00384037
0.000186275
0.00393767
0.00017307
0.0040379
0.000159033
0.00414248
0.000144271
0.00425185
0.000128849
0.00436583
0.00448364
0.000112803
9.33163e-06
0.000221347
3.29341e-05
0.000669376
6.64924e-05
0.00113053
0.000105131
0.00158655
0.000144005
0.00201641
0.000179025
0.00240188
0.000207411
0.00273154
0.000227873
0.00300237
0.000240435
0.0032189
0.000246029
0.00339063
0.000246025
0.00352921
0.00024184
0.00364597
0.00023469
0.0037504
0.000225484
0.00384958
0.000214837
0.00394832
0.000203136
0.0040496
0.000190606
0.00415501
0.000177369
0.00426509
0.000163485
0.00437972
0.00449813
0.000149001
9.40369e-06
0.000211944
3.34318e-05
0.000645348
6.7963e-05
0.001096
0.000108229