/*--------------------------------*- C++ -*----------------------------------*\
  =========                 |
  \\      /  F ield         | OpenFOAM: The Open Source CFD Toolbox
   \\    /   O peration     | Website:  https://openfoam.org
    \\  /    A nd           | Version:  7
     \\/     M anipulation  |
\*---------------------------------------------------------------------------*/
FoamFile
{
    version     2.0;
    format      ascii;
    class       volVectorField;
    location    "280";
    object      U;
}
// * * * * * * * * * * * * * * * * * * * * * * * * * * * * * * * * * * * * * //

dimensions      [0 1 -1 0 0 0 0];

internalField   nonuniform List<vector> 
4575
(
(0.0222937 -0.00379565 1.61705e-20)
(0.0875134 -0.00885335 1.62243e-20)
(0.173926 -0.00586897 5.91149e-20)
(0.0256496 -0.0039523 1.90496e-20)
(0.0975377 -0.0086116 6.63741e-20)
(0.190529 -0.00438863 5.12529e-20)
(0.301644 0.00658096 1.39886e-20)
(0.427066 0.0240406 1.28903e-19)
(0.0291923 -0.0040107 -8.57844e-20)
(0.107999 -0.00806731 -2.94662e-20)
(0.207685 -0.00241166 -9.54884e-20)
(0.324963 0.0105056 -5.15871e-20)
(0.455558 0.0301938 -2.59068e-20)
(0.593771 0.0554863 -8.03228e-20)
(0.73286 0.0845705 -4.92533e-20)
(0.865776 0.115248 8.66993e-20)
(0.0329172 -0.00396026 2.84305e-20)
(0.118874 -0.00719606 -4.51535e-20)
(0.225345 9.11433e-05 7.4928e-20)
(0.348719 0.0151158 3.41921e-20)
(0.484259 0.0371298 -4.81954e-20)
(0.625784 0.0646746 5.81674e-20)
(0.766184 0.0956511 1.41835e-20)
(0.898289 0.127638 -2.50724e-20)
(1.01588 0.158205 2.98357e-20)
(1.1146 0.185285 -2.27388e-20)
(1.19242 0.207456 -6.28489e-20)
(1.24964 0.224065 -6.16754e-21)
(0.0368177 -0.00379052 -1.40806e-20)
(0.130136 -0.00597437 7.39068e-21)
(0.243453 0.00314655 -6.8539e-20)
(0.372828 0.0204328 4.30345e-20)
(0.513051 0.0448564 3.93186e-20)
(0.657484 0.0746527 -5.49455e-20)
(0.798709 0.107436 2.49033e-20)
(0.929514 0.140583 -4.75339e-20)
(1.04396 0.171582 -6.6327e-20)
(1.13821 0.198418 2.35153e-20)
(1.21092 0.219823 4.27619e-21)
(1.263 0.235347 3.50872e-20)
(1.29709 0.245242 5.37718e-20)
(1.31671 0.250248 -2.57951e-21)
(1.32559 0.251345 8.86404e-21)
(0.0408861 -0.00349123 -1.58761e-20)
(0.141755 -0.0043801 -1.90144e-20)
(0.261951 0.00677861 7.24956e-20)
(0.397195 0.0264736 -8.78073e-21)
(0.541813 0.0533762 3.26841e-22)
(0.688736 0.0854046 -3.74306e-20)
(0.830304 0.119894 -6.46017e-21)
(0.95935 0.154039 2.54969e-20)
(1.07029 0.185287 8.56977e-20)
(1.15989 0.211708 -2.69634e-20)
(1.22747 0.232214 4.53699e-21)
(1.27458 0.246567 1.40562e-20)
(1.30427 0.255218 -2.69409e-20)
(1.32032 0.259052 -1.70098e-20)
(1.32652 0.259132 4.50723e-21)
(1.32617 0.256492 2.18881e-20)
(1.32186 0.25201 -5.33729e-21)
(1.31543 0.246368 -3.2864e-22)
(1.30799 0.240034 1.85712e-20)
(0.0451128 -0.00305249 2.76705e-20)
(0.153695 -0.00239263 5.32246e-20)
(0.280773 0.0110082 3.59645e-20)
(0.421727 0.0332506 -1.92553e-20)
(0.570425 0.0626863 7.00045e-20)
(0.71941 0.0969096 4.06178e-20)
(0.860848 0.132987 -5.97613e-20)
(0.987709 0.167962 -2.04799e-20)
(1.09485 0.199275 3.57347e-22)
(1.17966 0.225117 -1.64181e-20)
(1.24216 0.244603 -4.64503e-20)
(1.28446 0.257716 7.59251e-21)
(1.31002 0.265097 8.59904e-23)
(1.32279 0.267764 -4.57766e-20)
(1.32658 0.26685 2.05664e-20)
(1.32459 0.263406 -1.08556e-20)
(1.31923 0.258291 -4.69329e-20)
(1.31216 0.252157 2.23154e-20)
(1.30435 0.245412 -4.62719e-20)
(1.29629 0.238155 1.99008e-20)
(0.0494872 -0.00246486 -9.69509e-21)
(0.165919 6.80735e-06 -2.28329e-20)
(0.299851 0.015853 -3.73906e-20)
(0.446325 0.0407713 -1.76634e-21)
(0.598767 0.0727783 -3.21671e-21)
(0.74938 0.109142 -3.84885e-20)
(0.890234 0.146676 8.61001e-21)
(1.01452 0.182307 7.96733e-21)
(1.1176 0.213504 -1.62806e-20)
(1.19755 0.238615 1.31134e-21)
(1.25505 0.256972 2.45096e-20)
(1.29274 0.268786 -3.17344e-21)
(1.31444 0.27488 1.79196e-20)
(1.32423 0.276391 7.83114e-21)
(1.32587 0.274507 -4.2345e-20)
(1.32243 0.270286 3.21454e-21)
(1.31618 0.26456 2.49328e-20)
(1.30858 0.257947 -5.80004e-21)
(1.30048 0.250799 1.10284e-21)
(1.29225 0.24328 -3.83948e-21)
(0.0539967 -0.0017195 -8.91074e-21)
(0.178387 0.0028349 -8.15523e-21)
(0.319115 0.0213267 -1.41717e-20)
(0.470891 0.0490387 -9.15177e-21)
(0.626723 0.0836387 -2.33429e-20)
(0.778529 0.122071 2.66285e-20)
(0.918365 0.16092 5.1787e-20)
(1.03973 0.197028 1.77345e-20)
(1.13855 0.227933 8.90282e-21)
(1.2136 0.252168 -2.0857e-20)
(1.26621 0.269303 -2.02815e-22)
(1.29953 0.279771 1.29838e-20)
(1.31763 0.284569 -1.63661e-20)
(1.3247 0.284939 6.09628e-21)
(1.32444 0.282111 2.0161e-20)
(1.31976 0.277136 -6.84125e-21)
(1.31274 0.270819 -1.1907e-20)
(1.30471 0.263737 -1.08086e-20)
(1.29638 0.256191 3.77452e-20)
(1.28802 0.24841 1.30414e-20)
(0.0586277 -0.00080824 -1.59768e-20)
(0.191055 0.00610602 1.8087e-20)
(0.33849 0.0274395 -4.05193e-21)
(0.495324 0.0580505 1.2431e-20)
(0.654177 0.0952491 -1.09232e-20)
(0.806747 0.135664 -6.56377e-21)
(0.945155 0.175675 -2.52268e-20)
(1.06329 0.212079 2.92581e-21)
(1.1577 0.242523 6.88384e-21)
(1.22786 0.265751 1.50978e-20)
(1.27573 0.28158 -5.77034e-21)
(1.3049 0.290665 -4.46331e-21)
(1.31969 0.294165 3.99121e-21)
(1.3243 0.293414 -6.89857e-21)
(1.32236 0.289666 1.54247e-20)
(1.3166 0.283961 1.00319e-20)
(1.30896 0.277068 -1.69167e-21)
(1.30058 0.269526 -1.08141e-21)
(1.29206 0.261585 -1.01867e-20)
(1.28361 0.253541 -1.25583e-20)
(0.0633653 0.000276272 3.4475e-21)
(0.203876 0.00983199 -5.66141e-21)
(0.357901 0.0341973 3.78049e-21)
(0.519525 0.0677996 -5.09911e-21)
(0.681022 0.107586 -1.91919e-20)
(0.833932 0.149882 8.71454e-21)
(0.970532 0.190894 4.13879e-21)
(1.08517 0.227415 -1.93891e-20)
(1.17506 0.257237 -1.1973e-20)
(1.24038 0.279337 -1.12088e-21)
(1.28368 0.293788 -1.60249e-20)
(1.30895 0.301464 1.62254e-20)
(1.32069 0.303671 -4.19285e-23)
(1.3231 0.301818 -2.08381e-21)
(1.31967 0.297175 -3.90611e-21)
(1.313 0.29076 1.87117e-21)
(1.30483 0.283305 1.28808e-21)
(1.29618 0.275309 -4.88896e-22)
(1.28753 0.266977 -3.72316e-21)
(1.27901 0.258667 4.47906e-21)
(0.0681931 0.0015405 1.1571e-21)
(0.216803 0.0140219 3.7371e-21)
(0.37727 0.041602 2.04041e-21)
(0.543395 0.0782739 -9.3144e-22)
(0.70715 0.120621 1.26822e-20)
(0.859993 0.164684 -2.77441e-21)
(0.994435 0.206532 4.31856e-21)
(1.10535 0.242993 9.3853e-21)
(1.19065 0.272038 -1.65907e-21)
(1.25121 0.292902 4.08151e-22)
(1.29014 0.305916 4.40997e-21)
(1.31177 0.312164 -2.29973e-21)
(1.32071 0.313088 2.92645e-21)
(1.32115 0.310154 5.2045e-22)
(1.31643 0.30464 -5.31103e-21)
(1.30899 0.297533 2.57245e-22)
(1.30039 0.289529 6.62049e-21)
(1.29153 0.281082 -1.34936e-21)
(1.28279 0.27236 1.96984e-21)
(1.27422 0.263781 -2.17572e-21)
(0.0730943 0.00298991 4.78454e-22)
(0.229785 0.0186822 5.53318e-21)
(0.396519 0.0496511 2.92163e-21)
(0.566838 0.0894567 -5.85406e-22)
(0.732464 0.134323 1.17615e-20)
(0.884847 0.180028 -3.26181e-21)
(1.01681 0.222541 5.97406e-21)
(1.12382 0.258768 7.85953e-21)
(1.20451 0.286893 -1.59066e-21)
(1.26042 0.306424 3.50105e-22)
(1.29518 0.317952 5.0113e-21)
(1.31342 0.322762 -1.98697e-21)
(1.31982 0.322414 1.90541e-21)
(1.31851 0.318423 -4.56554e-22)
(1.31268 0.312059 -4.32838e-21)
(1.30458 0.304279 -1.21451e-22)
(1.29564 0.295734 6.56432e-21)
(1.28662 0.28684 -1.25749e-21)
(1.27783 0.277728 2.3177e-21)
(1.26924 0.268875 -2.44381e-21)
(0.0780506 0.00462895 4.16155e-21)
(0.242772 0.023816 -7.11991e-21)
(0.41557 0.0583379 3.55681e-21)
(0.589761 0.101327 -2.80413e-21)
(0.75687 0.148655 -1.86482e-20)
(0.90842 0.195867 7.41807e-21)
(1.03763 0.238873 3.35645e-21)
(1.14059 0.274698 -2.22249e-20)
(1.21667 0.301769 -9.13765e-21)
(1.26807 0.319881 -8.40394e-24)
(1.29889 0.329885 -1.35272e-20)
(1.31398 0.333252 1.10451e-20)
(1.31808 0.331649 -2.41775e-21)
(1.31522 0.326624 1.50367e-21)
(1.30844 0.319432 -5.6913e-21)
(1.2998 0.310992 4.22826e-21)
(1.2906 0.301914 2.63468e-21)
(1.28148 0.292575 -4.6216e-22)
(1.27266 0.283074 -4.97847e-21)
(1.26407 0.273943 4.4712e-21)
(0.0830428 0.00646087 -9.01567e-21)
(0.25571 0.0294236 -3.84489e-21)
(0.434345 0.0676516 -5.46277e-21)
(0.612072 0.113857 1.84141e-20)
(0.780282 0.163577 5.37008e-23)
(0.930648 0.212152 -9.36358e-21)
(1.05685 0.255479 -3.73114e-20)
(1.15566 0.290741 3.54518e-21)
(1.22717 0.316636 4.0391e-21)
(1.27423 0.333254 1.75699e-20)
(1.30132 0.341704 2.54821e-21)
(1.31351 0.343631 -1.41164e-20)
(1.31555 0.340791 1.30058e-20)
(1.31133 0.334754 -5.12989e-21)
(1.30373 0.326755 1.88763e-20)
(1.29467 0.317668 -1.69147e-21)
(1.28527 0.308064 9.42546e-22)
(1.27608 0.29828 7.84948e-22)
(1.26728 0.288388 -1.32066e-20)
(1.25871 0.278976 -7.81192e-21)
(0.0880511 0.00848775 -3.43839e-21)
(0.268547 0.0355022 -1.85076e-20)
(0.452768 0.077577 1.42758e-20)
(0.633685 0.127019 -1.77353e-20)
(0.802621 0.179046 -3.12756e-20)
(0.951476 0.228836 2.66436e-20)
(1.07445 0.272312 4.28757e-20)
(1.16904 0.306857 1.49922e-20)
(1.23607 0.331463 1.01814e-20)
(1.27894 0.346525 -2.84442e-20)
(1.30255 0.353398 2.12869e-20)
(1.31209 0.353892 2.4059e-21)
(1.31227 0.349837 -2.56278e-20)
(1.30687 0.342812 9.79886e-21)
(1.29859 0.334022 3.3897e-20)
(1.28918 0.3243 -2.27102e-20)
(1.27965 0.314175 -6.31147e-21)
(1.27045 0.303946 -5.95511e-21)
(1.26169 0.293663 2.68926e-20)
(1.25315 0.283965 1.51123e-20)
(0.0930555 0.0107104 2.36008e-20)
(0.28123 0.0420456 -3.77023e-20)
(0.470763 0.0880947 -5.35892e-20)
(0.654518 0.140778 2.35422e-21)
(0.823816 0.195017 -9.33547e-21)
(0.970857 0.245866 -3.66355e-20)
(1.09043 0.289322 -5.965e-21)
(1.18076 0.323005 1.79819e-20)
(1.24339 0.346221 -2.819e-20)
(1.28229 0.359673 2.25257e-20)
(1.30264 0.364957 2.54998e-20)
(1.30975 0.364029 -1.56676e-20)
(1.3083 0.35878 6.26974e-21)
(1.30188 0.35079 3.08385e-20)
(1.29303 0.341227 -4.01866e-20)
(1.28336 0.330879 6.81845e-21)
(1.27375 0.320237 1.81186e-20)
(1.26457 0.309563 -5.38274e-21)
(1.25588 0.298888 -5.60536e-21)
(1.24741 0.288901 -9.39263e-22)
(0.0980351 0.0131283 3.49523e-20)
(0.293707 0.0490446 6.06831e-20)
(0.488259 0.0991817 3.14213e-20)
(0.674494 0.155095 -3.66608e-20)
(0.843802 0.211442 9.34461e-20)
(0.988755 0.263192 1.40826e-20)
(1.10478 0.306464 -3.78923e-20)
(1.19085 0.339148 -2.66694e-20)
(1.2492 0.360884 -2.08475e-20)
(1.28431 0.372682 6.82062e-21)
(1.30164 0.37637 -2.23679e-20)
(1.30657 0.374035 6.78937e-22)
(1.30366 0.367616 -1.44139e-20)
(1.29637 0.358682 -1.91936e-20)
(1.28707 0.348362 -3.19798e-21)
(1.27721 0.337398 -1.90352e-21)
(1.26757 0.326242 -3.35652e-20)
(1.25845 0.315123 2.46761e-20)
(1.24986 0.304054 -3.65916e-20)
(1.24147 0.293775 -2.09395e-20)
(0.102969 0.0157397 -4.24521e-20)
(0.305925 0.0564869 -1.63238e-20)
(0.505186 0.110811 7.10317e-20)
(0.693543 0.16993 1.75767e-20)
(0.862523 0.228268 -5.88795e-20)
(1.00514 0.28076 -3.33581e-20)
(1.1175 0.323688 -1.0841e-20)
(1.19934 0.355247 6.85633e-20)
(1.25355 0.375423 4.78032e-20)
(1.28508 0.385534 -1.59589e-20)
(1.29962 0.387625 -9.02364e-21)
(1.30257 0.383901 2.23136e-20)
(1.29839 0.376337 -2.35636e-20)
(1.29037 0.36648 1.06576e-20)
(1.28072 0.355418 4.46325e-21)
(1.27074 0.343846 -5.54409e-21)
(1.26112 0.332179 4.07905e-20)
(1.25209 0.320614 -1.67509e-20)
(1.24362 0.30915 3.29074e-20)
(1.23533 0.298577 -1.1326e-20)
(0.107837 0.0185415 -2.39511e-20)
(0.317833 0.0643571 -4.12904e-20)
(0.521478 0.122951 -6.3867e-20)
(0.711598 0.185238 3.77346e-20)
(0.87993 0.245445 2.03136e-20)
(1.01999 0.298518 -2.82118e-20)
(1.1286 0.340949 4.57379e-20)
(1.20625 0.371265 -6.88396e-20)
(1.25648 0.389812 -7.13691e-20)
(1.28465 0.398211 4.20379e-20)
(1.29662 0.398711 1.52701e-20)
(1.2978 0.39362 -1.65302e-20)
(1.29252 0.384935 2.45918e-20)
(1.2839 0.374176 1.87813e-20)
(1.27398 0.362385 -1.33385e-20)
(1.26395 0.350212 -4.40464e-21)
(1.25439 0.338037 -3.11006e-20)
(1.24549 0.326026 6.12158e-21)
(1.23716 0.314164 -2.51153e-20)
(1.229 0.303298 -3.99353e-21)
(0.112618 0.0215293 1.98971e-20)
(0.329382 0.0726371 -3.25042e-20)
(0.53707 0.13557 5.79094e-20)
(0.728599 0.200973 9.57351e-20)
(0.895981 0.262919 -1.34309e-19)
(1.03329 0.316413 1.15452e-19)
(1.13809 0.3582 3.02319e-20)
(1.21163 0.387167 -4.28578e-20)
(1.25805 0.404026 4.93716e-20)
(1.28306 0.410695 2.83807e-20)
(1.2927 0.409614 3.42371e-20)
(1.29231 0.40318 -5.78443e-20)
(1.28608 0.393398 -1.15603e-20)
(1.27698 0.381758 2.71592e-20)
(1.26687 0.369252 1.01043e-20)
(1.25684 0.356485 4.50707e-20)
(1.24739 0.343804 5.50075e-20)
(1.23863 0.331346 -1.32348e-20)
(1.23048 0.319085 2.22902e-20)
(1.22248 0.307926 2.44929e-20)
(0.117292 0.0246975 -5.83745e-21)
(0.340525 0.0813056 -7.56347e-20)
(0.551906 0.148629 -1.01279e-19)
(0.744494 0.217084 -1.29067e-19)
(0.910641 0.280634 -1.23363e-20)
(1.04504 0.334391 4.52785e-20)
(1.146 0.375395 -8.38118e-21)
(1.21552 0.402917 1.4433e-20)
(1.2583 0.418039 -2.18392e-20)
(1.28038 0.422969 3.56051e-20)
(1.28789 0.420322 -5.28056e-20)
(1.28611 0.41257 6.70387e-20)
(1.2791 0.401718 3.7411e-20)
(1.26961 0.389216 1.65199e-20)
(1.2594 0.376007 -2.41022e-20)
(1.24942 0.362652 -2.50367e-20)
(1.24011 0.349468 -2.30811e-20)
(1.23154 0.336564 1.63722e-21)
(1.22359 0.323901 2.87147e-20)
(1.21577 0.31245 -2.9779e-20)
(0.121837 0.0280392 -1.03159e-20)
(0.351215 0.0903391 5.88439e-20)
(0.565929 0.162089 7.2403e-20)
(0.759233 0.233521 -1.11009e-20)
(0.923883 0.298534 3.21837e-20)
(1.05522 0.3524 8.48613e-21)
(1.15235 0.392491 -4.48674e-20)
(1.21796 0.418481 3.46889e-20)
(1.25729 0.431827 3.16983e-20)
(1.27665 0.435014 -5.35044e-20)
(1.28224 0.430821 8.4012e-20)
(1.27926 0.421778 -6.78558e-20)
(1.27158 0.409881 3.81866e-20)
(1.26183 0.396536 -5.39198e-20)
(1.25157 0.382637 7.7191e-20)
(1.24169 0.368702 -4.72873e-20)
(1.23255 0.355017 -1.3411e-20)
(1.22419 0.341667 -1.75187e-20)
(1.21648 0.328595 -3.58628e-20)
(1.20888 0.31686 6.12857e-22)
(0.126236 0.0315461 7.41113e-20)
(0.36141 0.0997112 7.37361e-20)
(0.579089 0.175907 -1.04066e-19)
(0.772777 0.250229 -6.19545e-20)
(0.935685 0.316562 8.96076e-20)
(1.06385 0.370386 -3.48623e-20)
(1.15716 0.409442 4.98376e-20)
(1.219 0.433824 2.0922e-20)
(1.25506 0.445364 -4.7316e-20)
(1.27192 0.446813 -1.14096e-19)
(1.27579 0.441097 -1.98138e-20)
(1.27177 0.430791 -4.04342e-20)
(1.26356 0.417875 -5.82999e-20)
(1.25362 0.403708 4.59497e-21)
(1.24339 0.38913 -5.80761e-21)
(1.23366 0.37462 -5.29055e-21)
(1.22472 0.360439 4.18311e-20)
(1.2166 0.346641 2.92166e-20)
(1.20915 0.333151 3.29035e-21)
(1.20177 0.321146 1.61181e-20)
(0.130468 0.035209 -1.78816e-20)
(0.371069 0.109393 1.3099e-19)
(0.591342 0.190039 4.96622e-20)
(0.785088 0.267155 9.88026e-20)
(0.946034 0.334663 3.14738e-20)
(1.07094 0.388299 1.17875e-20)
(1.16047 0.426206 -7.24809e-20)
(1.21866 0.448915 -2.27253e-20)
(1.25166 0.458626 1.10243e-20)
(1.26623 0.458346 8.47245e-20)
(1.26857 0.451133 -2.70373e-20)
(1.26367 0.439596 3.26047e-20)
(1.25506 0.425687 6.67443e-20)
(1.24501 0.410715 1.48021e-20)
(1.23487 0.395472 -1.25942e-20)
(1.22532 0.380396 1.6332e-20)
(1.21662 0.365723 2.99623e-20)
(1.20876 0.351475 1.30463e-20)
(1.20159 0.33756 3.26751e-20)
(1.19439 0.325302 2.3978e-20)
(0.134515 0.0390174 -4.67457e-20)
(0.380153 0.119355 -6.7111e-20)
(0.602646 0.204437 4.1745e-20)
(0.796139 0.284242 1.37487e-20)
(0.954921 0.352778 2.665e-20)
(1.0765 0.406085 -1.06235e-19)
(1.16231 0.442741 3.76006e-20)
(1.21701 0.463719 -7.90372e-20)
(1.24714 0.471588 -4.27588e-20)
(1.25962 0.469596 4.83921e-20)
(1.26062 0.460915 -5.09155e-21)
(1.25499 0.448176 2.91765e-21)
(1.24607 0.433301 -8.10821e-20)
(1.23601 0.417545 -3.17745e-20)
(1.22601 0.401649 2.51406e-20)
(1.21668 0.386015 -4.28702e-20)
(1.20824 0.370857 -2.23366e-20)
(1.20067 0.356166 -2.19645e-20)
(1.19378 0.341847 -3.66859e-20)
(1.18664 0.329309 -8.12153e-20)
(0.138361 0.0429599 2.72152e-20)
(0.388628 0.129563 -3.16675e-20)
(0.612965 0.219054 -1.69114e-19)
(0.805905 0.301434 8.9295e-20)
(0.962343 0.370851 -1.08433e-19)
(1.08055 0.423695 -1.50401e-20)
(1.16271 0.459004 -1.41785e-19)
(1.21408 0.478206 1.46941e-19)
(1.24154 0.484227 8.1636e-20)
(1.25213 0.480542 -4.7735e-21)
(1.25197 0.470425 2.75017e-20)
(1.24574 0.456518 -3.3835e-20)
(1.23663 0.440704 -2.64937e-21)
(1.22662 0.424182 1.49279e-20)
(1.21681 0.407646 -1.48725e-20)
(1.20774 0.391463 2.68246e-20)
(1.1996 0.375826 -3.44775e-20)
(1.19235 0.360705 -2.98755e-20)
(1.18576 0.346061 1.65076e-20)
(1.17875 0.33316 2.15641e-20)
(0.14199 0.047024 6.22547e-20)
(0.396462 0.139983 5.85506e-20)
(0.622267 0.23384 4.42457e-20)
(0.814369 0.318672 -1.0923e-21)
(0.968303 0.388825 -2.81471e-20)
(1.08312 0.441079 1.86034e-19)
(1.16172 0.474956 1.02977e-19)
(1.20992 0.492344 6.79982e-20)
(1.2349 0.496519 9.38747e-20)
(1.2438 0.491166 1.11479e-20)
(1.24265 0.479647 -7.38909e-20)
(1.23596 0.464605 -7.59479e-21)
(1.22675 0.447878 -1.50668e-20)
(1.21686 0.430611 -4.75595e-20)
(1.20728 0.413448 -1.7129e-20)
(1.19851 0.396725 -2.35124e-20)
(1.19069 0.380616 7.1035e-20)
(1.1838 0.365069 -8.34233e-22)
(1.17753 0.350111 1.82541e-20)
(1.17084 0.336894 1.41288e-20)
(0.145385 0.0511963 -2.08618e-20)
(0.403625 0.15058 -3.40522e-20)
(0.630527 0.248743 -7.26813e-20)
(0.82152 0.335901 -1.19951e-20)
(0.972808 0.406645 -1.1542e-19)
(1.08422 0.458187 -8.08501e-20)
(1.15937 0.490557 2.62429e-20)
(1.20457 0.506103 -1.85416e-19)
(1.22728 0.508439 -9.77936e-20)
(1.23468 0.501448 2.31836e-20)
(1.23268 0.488564 -1.14214e-20)
(1.22565 0.472421 6.5001e-20)
(1.21644 0.454809 8.57216e-20)
(1.20673 0.436815 2.10013e-20)
(1.19744 0.41904 5.50422e-20)
(1.18899 0.401789 -2.77811e-20)
(1.18153 0.385211 3.64117e-20)
(1.17501 0.369247 1.97266e-20)
(1.16909 0.353971 1.62933e-20)
(1.16276 0.340454 -3.00967e-20)
(0.148532 0.0554626 3.13526e-20)
(0.410094 0.161316 -3.56992e-21)
(0.637724 0.263711 -1.12646e-19)
(0.827349 0.353061 -1.54294e-22)
(0.975872 0.424253 2.5979e-19)
(1.08389 0.474971 5.0837e-20)
(1.1557 0.505768 3.74953e-20)
(1.19808 0.519451 1.0726e-19)
(1.21871 0.519964 -8.46377e-20)
(1.22478 0.511368 -8.82671e-20)
(1.2221 0.497158 -6.91519e-22)
(1.21485 0.479949 -5.86189e-20)
(1.20571 0.461479 -3.16256e-20)
(1.19625 0.44278 8.25762e-20)
(1.18728 0.424408 -2.11186e-20)
(1.17919 0.406638 1.73741e-21)
(1.17211 0.389602 -2.65404e-20)
(1.16598 0.373228 -3.83673e-20)
(1.16045 0.357631 1.96977e-21)
(1.1545 0.343826 3.34604e-20)
(0.15142 0.0598082 -1.51319e-19)
(0.415845 0.172154 8.8633e-20)
(0.64384 0.278693 1.93633e-19)
(0.831857 0.370096 5.94874e-20)
(0.977512 0.441597 -3.06174e-19)
(1.08216 0.491385 -1.23657e-19)
(1.15075 0.520552 -9.44807e-20)
(1.19049 0.532361 -3.35926e-20)
(1.20924 0.53107 1.10722e-19)
(1.21416 0.520906 1.17706e-20)
(1.21093 0.50541 -2.16599e-20)
(1.20357 0.487171 3.93964e-20)
(1.19458 0.467872 5.51332e-21)
(1.18542 0.448489 -9.82623e-20)
(1.17681 0.429534 2.81522e-20)
(1.16912 0.411257 3.62303e-20)
(1.16244 0.393772 1.64206e-20)
(1.15673 0.376997 2.18439e-20)
(1.15161 0.361084 -3.64325e-20)
(1.14605 0.346999 -1.70156e-20)
(0.154037 0.0642173 -1.03447e-20)
(0.420861 0.183053 4.47564e-20)
(0.648864 0.293636 2.19065e-20)
(0.835046 0.386948 6.35692e-20)
(0.977748 0.458623 1.70979e-19)
(1.07908 0.507382 -1.0887e-19)
(1.14458 0.534871 -6.29468e-21)
(1.18185 0.544803 9.9765e-20)
(1.19889 0.541735 -1.1769e-19)
(1.20283 0.530043 3.74352e-20)
(1.1992 0.513302 9.33875e-20)
(1.19182 0.49407 2.07181e-20)
(1.18306 0.473971 -4.28822e-20)
(1.17425 0.453926 7.00709e-20)
(1.16605 0.434405 -7.86224e-20)
(1.15877 0.415632 1.8345e-21)
(1.15252 0.397709 -1.70951e-20)
(1.14726 0.380543 2.77359e-20)
(1.14258 0.36432 2.38669e-20)
(0.156371 0.068674 1.96363e-20)
(0.425125 0.193974 7.16145e-20)
(0.652788 0.308486 6.94748e-20)
(0.836925 0.403562 -4.31856e-20)
(0.976605 0.475277 3.67123e-21)
(1.07466 0.52292 1.01129e-19)
(1.13722 0.548691 1.74896e-19)
(1.17221 0.556749 -1.7597e-20)
(1.18773 0.551934 1.61057e-20)
(1.19084 0.538758 -4.62787e-20)
(1.18692 0.520816 -9.5258e-20)
(1.17963 0.500629 1.49125e-20)
(1.17117 0.479759 5.0481e-20)
(1.16276 0.459075 -9.98483e-21)
(1.15499 0.439005 -6.94134e-21)
(1.14816 0.41975 -2.96852e-20)
(1.14236 0.401399 -4.69976e-21)
(1.13756 0.383852 -1.11082e-20)
(0.158415 0.0731615 -6.78039e-20)
(0.428627 0.204877 -1.64078e-19)
(0.65561 0.323191 -2.39066e-19)
(0.837506 0.419882 4.01491e-21)
(0.974113 0.49151 -1.5259e-21)
(1.06897 0.537954 -9.18828e-20)
(1.12872 0.561977 4.8144e-20)
(1.1616 0.568171 -5.09291e-20)
(1.17577 0.561647 9.32444e-20)
(1.17821 0.547032 9.06099e-20)
(1.17413 0.527934 3.91228e-20)
(1.16701 0.506829 -9.96068e-21)
(1.15892 0.485219 1.35192e-20)
(1.15095 0.463919 -3.36931e-20)
(1.14365 0.443318 5.52051e-20)
(1.1373 0.423597 -2.31079e-20)
(0.160161 0.0776631 7.36302e-20)
(0.431358 0.215721 2.21644e-19)
(0.657332 0.337698 8.5759e-20)
(0.836806 0.435853 -1.65848e-20)
(0.970303 0.507271 -8.94016e-20)
(1.06203 0.552442 -1.90065e-20)
(1.11913 0.574695 -2.34459e-20)
(1.15007 0.579044 -7.2975e-21)
(1.16306 0.570849 -2.77822e-20)
(1.16497 0.554844 -8.83951e-20)
(1.16085 0.534637 -6.99119e-20)
(1.15399 0.512653 4.90858e-20)
(1.14632 0.490335 -6.50558e-20)
(1.13884 0.468443 -2.60988e-21)
(1.13205 0.447331 1.6075e-20)
(0.161602 0.0821613 7.16259e-21)
(0.433313 0.226467 1.42214e-20)
(0.657958 0.351957 1.965e-19)
(0.834847 0.451423 -1.08712e-19)
(0.96521 0.522513 2.50181e-19)
(1.0539 0.566346 1.10054e-19)
(1.10849 0.586814 -1.45626e-19)
(1.13766 0.58934 -1.29833e-20)
(1.14964 0.579521 -1.10064e-19)
(1.15117 0.562176 -2.54722e-20)
(1.14711 0.540907 2.79668e-20)
(1.14058 0.518085 3.58217e-20)
(1.13338 0.49509 6.74445e-20)
(1.12643 0.472631 7.87387e-21)
(0.162734 0.0866389 5.86544e-20)
(0.434489 0.237073 -2.65214e-19)
(0.657499 0.365916 -5.84533e-20)
(0.831653 0.466539 -4.28647e-20)
(0.958871 0.537189 -1.56688e-19)
(1.04461 0.579626 -1.49794e-19)
(1.09684 0.598303 -4.49437e-20)
(1.12442 0.599035 -5.54243e-20)
(1.13555 0.587639 1.53458e-19)
(1.13682 0.569008 5.69223e-21)
(1.13291 0.546725 -8.94626e-20)
(1.1268 0.523105 -1.18848e-19)
(1.12013 0.499466 5.17592e-20)
(0.163554 0.0910783 4.64436e-21)
(0.434889 0.247499 3.95029e-20)
(0.655969 0.379526 -1.184e-19)
(0.827251 0.481152 6.80247e-20)
(0.951327 0.551254 7.41628e-21)
(1.03421 0.592246 1.86919e-19)
(1.08425 0.609131 7.14507e-20)
(1.1104 0.608105 1.08909e-19)
(1.12081 0.595184 -6.86106e-20)
(1.12195 0.575321 1.18123e-19)
(1.1183 0.552074 7.53106e-20)
(1.11267 0.527698 1.52232e-20)
(0.164059 0.095462 -1.18335e-19)
(0.434517 0.257707 2.68372e-19)
(0.653384 0.392737 1.38318e-19)
(0.821674 0.495213 5.00337e-20)
(0.94262 0.564666 -2.59378e-20)
(1.02276 0.60417 -1.54067e-19)
(1.07074 0.619272 2.24154e-20)
(1.09562 0.616527 -2.05466e-20)
(1.10548 0.602135 -7.0431e-20)
(1.1066 0.581096 -8.12579e-20)
(1.10329 0.556937 4.18302e-20)
(0.16425 0.0997727 -2.4762e-20)
(0.433379 0.267658 -7.096e-20)
(0.649766 0.405503 -1.59178e-19)
(0.814955 0.508675 -8.00952e-20)
(0.932795 0.577382 -9.15033e-20)
(1.01031 0.615365 7.83335e-20)
(1.05638 0.628696 -3.05424e-20)
(1.08014 0.624277 1.82227e-20)
(1.08958 0.608473 -1.0648e-20)
(1.09079 0.586317 -3.61993e-20)
(0.164127 0.103994 2.38817e-19)
(0.431487 0.277314 7.96913e-21)
(0.645137 0.417778 -6.98257e-20)
(0.807132 0.521494 6.51374e-20)
(0.921901 0.589365 -1.04037e-20)
(0.996888 0.625798 -2.87969e-20)
(1.0412 0.637381 -6.46843e-20)
(1.06401 0.631336 8.86485e-21)
(1.07316 0.614179 7.19091e-20)
(0.163692 0.108109 -5.33054e-20)
(0.428851 0.286637 5.79349e-20)
(0.639525 0.429518 1.58529e-20)
(0.798249 0.533627 1.36918e-19)
(0.909988 0.600581 -1.80496e-20)
(0.982551 0.635436 -8.27782e-20)
(1.02526 0.645299 1.43672e-19)
(1.04725 0.637681 4.46007e-21)
(0.162949 0.112103 -2.19397e-19)
(0.425487 0.295594 -6.68666e-21)
(0.632961 0.440677 1.3073e-19)
(0.788349 0.545031 -1.54931e-20)
(0.897093 0.610993 1.93551e-19)
(0.967354 0.644258 7.33393e-22)
(1.00861 0.652426 -1.50586e-19)
(0.161902 0.115962 1.31069e-19)
(0.421412 0.30415 -1.02565e-19)
(0.625479 0.451216 -1.52789e-19)
(0.777469 0.555671 -2.4515e-20)
(0.883261 0.620563 -1.27023e-19)
(0.95136 0.652237 5.53844e-20)
(0.160555 0.11967 -5.09591e-20)
(0.416648 0.312273 6.57436e-20)
(0.617119 0.461101 -1.8641e-20)
(0.765644 0.565502 -2.40972e-20)
(0.86856 0.629265 4.78881e-21)
(0.158914 0.123212 -7.9808e-20)
(0.411216 0.319925 -7.6479e-20)
(0.607907 0.470293 1.63758e-19)
(0.752931 0.574501 4.59336e-20)
(0.853047 0.637067 1.13631e-20)
(0.156983 0.126572 9.79239e-20)
(0.40514 0.327082 1.46616e-19)
(0.597879 0.478748 -3.78774e-20)
(0.73939 0.582634 -3.52288e-20)
(0.154763 0.129723 -6.52568e-20)
(0.398459 0.333719 -1.13887e-19)
(0.587086 0.486441 -5.27734e-20)
(0.152273 0.132639 6.43919e-20)
(0.391208 0.339799 1.14152e-19)
(0.575569 0.493349 4.70458e-20)
(0.149542 0.135317 -3.32059e-20)
(0.383402 0.345284 -5.76741e-22)
(0.146583 0.137761 2.89407e-20)
(0.143395 0.139956 4.32943e-21)
(0.154781 -0.150844 -7.88344e-20)
(0.158392 -0.14862 1.33783e-20)
(0.161774 -0.146136 -8.75746e-20)
(0.412139 -0.370041 -1.7212e-19)
(0.16492 -0.143403 1.52257e-19)
(0.421008 -0.364491 1.05522e-19)
(0.616122 -0.525246 -2.45358e-20)
(0.167828 -0.140437 -1.01078e-19)
(0.429329 -0.358329 -2.64632e-19)
(0.629134 -0.518221 -1.02197e-19)
(0.170493 -0.137237 1.49455e-19)
(0.437076 -0.351569 2.18786e-19)
(0.641443 -0.510379 -1.87071e-20)
(0.788959 -0.616395 -4.685e-20)
(0.172883 -0.133797 -1.73401e-19)
(0.444236 -0.344247 -6.45815e-20)
(0.653008 -0.501752 1.1305e-19)
(0.804275 -0.608062 8.84377e-20)
(0.906484 -0.669291 5.46474e-20)
(0.174972 -0.130145 4.4361e-20)
(0.45078 -0.336408 -3.72267e-20)
(0.663791 -0.492365 9.64455e-20)
(0.818792 -0.598829 -1.29283e-19)
(0.923877 -0.661204 -1.02299e-20)
(0.989426 -0.687994 7.28136e-20)
(0.176759 -0.12631 3.17901e-19)
(0.456664 -0.328075 -1.76247e-19)
(0.673738 -0.48224 -2.35333e-19)
(0.83247 -0.588731 -9.64919e-20)
(0.940494 -0.652191 -1.32533e-19)
(1.00804 -0.680498 -7.27127e-21)
(0.178243 -0.122312 -1.67997e-19)
(0.461863 -0.319274 -5.80477e-21)
(0.682812 -0.471424 1.22486e-19)
(0.845247 -0.577802 1.68058e-20)
(0.956284 -0.642273 2.63415e-19)
(1.02595 -0.672103 -2.40303e-20)
(1.06511 -0.676096 2.1306e-20)
(0.17942 -0.118165 -6.63807e-20)
(0.466355 -0.310041 2.97371e-20)
(0.690987 -0.459955 5.05563e-20)
(0.857055 -0.566058 1.17057e-19)
(0.9712 -0.631488 -7.39897e-20)
(1.04309 -0.662834 2.37817e-20)
(1.08358 -0.66842 1.7947e-19)
(1.10281 -0.656611 -1.81164e-20)
(0.180282 -0.113885 3.38638e-19)
(0.470119 -0.300409 -8.27302e-20)
(0.698229 -0.447865 -1.07102e-19)
(0.86786 -0.553552 5.68698e-20)
(0.985176 -0.619872 2.998e-20)
(1.05943 -0.652711 -5.97115e-20)
(1.10137 -0.659927 -1.29599e-20)
(1.12125 -0.649587 -3.11444e-20)
(1.12752 -0.628618 3.11377e-20)
(0.180826 -0.109486 -1.51088e-19)
(0.473137 -0.290413 1.75647e-20)
(0.704502 -0.435198 -1.61971e-19)
(0.877638 -0.540327 -2.06254e-19)
(0.998149 -0.607444 -7.95665e-20)
(1.0749 -0.641767 -5.80722e-21)
(1.11845 -0.650639 9.31979e-20)
(1.1391 -0.641821 -6.602e-20)
(1.14548 -0.62211 1.79066e-20)
(1.14395 -0.596654 1.24608e-19)
(0.181049 -0.104984 -1.56857e-19)
(0.475392 -0.280089 3.23592e-19)
(0.709772 -0.421998 1.8876e-19)
(0.886341 -0.526416 7.99635e-20)
(1.01009 -0.594248 -2.85009e-20)
(1.08945 -0.63003 -1.64483e-19)
(1.13477 -0.64058 -9.41263e-20)
(1.15633 -0.633335 -4.20616e-20)
(1.16294 -0.614939 -5.20955e-20)
(1.16114 -0.590524 -1.77016e-19)
(1.15529 -0.563553 9.33606e-20)
(0.180949 -0.100394 2.84303e-20)
(0.476873 -0.269472 -4.49757e-20)
(0.714012 -0.408309 3.34759e-20)
(0.893926 -0.511864 -7.89394e-20)
(1.02094 -0.580321 1.57229e-19)
(1.10303 -0.617532 2.55388e-19)
(1.15027 -0.62978 7.36399e-20)
(1.1729 -0.624148 1.79447e-19)
(1.17986 -0.607125 -8.88945e-20)
(1.1779 -0.583807 1.9529e-19)
(1.17156 -0.557695 3.95353e-20)
(1.16354 -0.530908 1.62455e-19)
(0.180524 -0.0957339 -1.00202e-19)
(0.477568 -0.258601 -2.15208e-19)
(0.717197 -0.394179 -1.60314e-19)
(0.900353 -0.496717 4.67206e-20)
(1.03068 -0.565703 -2.33945e-19)
(1.1156 -0.604309 -2.63184e-19)
(1.1649 -0.618261 -2.90435e-20)
(1.18876 -0.614284 -6.51846e-20)
(1.19621 -0.598687 2.09161e-19)
(1.19419 -0.576519 -4.63823e-20)
(1.18743 -0.551315 -1.25477e-19)
(1.17882 -0.525252 -1.92368e-19)
(1.16988 -0.499512 -1.13786e-19)
(0.179775 -0.0910192 -7.9583e-20)
(0.47747 -0.247514 -5.93611e-20)
(0.719305 -0.379654 2.45671e-19)
(0.905587 -0.481021 -1.44234e-19)
(1.03924 -0.550435 3.46953e-19)
(1.1271 -0.590391 1.33802e-19)
(1.17862 -0.606053 -7.96436e-20)
(1.20388 -0.603767 -1.23147e-19)
(1.21196 -0.589646 -1.7197e-19)
(1.20999 -0.568681 6.85658e-20)
(1.20291 -0.544431 1.14116e-20)
(1.19375 -0.519131 6.20816e-20)
(1.18417 -0.49402 1.22209e-19)
(1.175 -0.469696 2.50985e-20)
(0.178703 -0.0862677 1.57625e-19)
(0.476574 -0.23625 2.38574e-19)
(0.720319 -0.364783 1.09133e-20)
(0.909597 -0.464827 1.32742e-19)
(1.04659 -0.534562 -3.02569e-19)
(1.1375 -0.575818 6.91875e-20)
(1.19139 -0.593186 -4.33333e-20)
(1.2182 -0.592622 -8.84189e-21)
(1.22706 -0.580023 -6.46238e-20)
(1.22527 -0.560312 -1.2219e-19)
(1.21795 -0.537063 -2.84834e-20)
(1.20831 -0.512565 6.14162e-20)
(1.19814 -0.488114 -1.7378e-19)
(1.18835 -0.464353 4.19068e-20)
(1.17935 -0.441562 -7.86493e-20)
(0.17731 -0.0814969 -2.81869e-20)
(0.474878 -0.224849 -3.65535e-19)
(0.720224 -0.349616 -2.7094e-19)
(0.912353 -0.448184 -1.62117e-20)
(1.05268 -0.518128 5.5045e-20)
(1.14675 -0.560625 -9.7336e-20)
(1.20317 -0.579692 -2.22142e-21)
(1.23169 -0.580875 2.51745e-20)
(1.24149 -0.569842 3.39942e-20)
(1.24 -0.551431 1.83194e-19)
(1.23253 -0.529228 6.84155e-20)
(1.22249 -0.50557 -1.46579e-20)
(1.21179 -0.48181 1.62179e-20)
(1.20141 -0.458639 -1.98685e-20)
(1.19182 -0.436365 8.47052e-20)
(1.18324 -0.415122 3.51353e-20)
(0.175601 -0.0767242 5.21457e-20)
(0.472381 -0.213351 1.95419e-19)
(0.719009 -0.334205 1.155e-19)
(0.91383 -0.431145 -2.09289e-19)
(1.05748 -0.501182 4.14206e-20)
(1.15479 -0.544854 2.32098e-19)
(1.2139 -0.565602 1.16364e-19)
(1.24431 -0.568551 1.3201e-20)
(1.25521 -0.559123 1.16655e-19)
(1.25415 -0.54206 -2.15867e-19)
(1.24664 -0.520945 -5.50142e-20)
(1.23627 -0.498164 -2.12105e-20)
(1.22508 -0.475126 1.16662e-19)
(1.21416 -0.452568 -3.39841e-20)
(1.20403 -0.430832 -3.19264e-21)
(1.1949 -0.410068 -5.12053e-20)
(1.18684 -0.390331 -1.70556e-20)
(1.17982 -0.371486 -8.62257e-20)
(0.173582 -0.0719668 -4.85429e-20)
(0.469088 -0.201797 -2.81964e-20)
(0.716665 -0.3186 -7.05491e-20)
(0.914006 -0.413764 2.17568e-19)
(1.06095 -0.483772 1.40109e-19)
(1.1616 -0.528545 -3.96928e-20)
(1.22353 -0.550951 -6.39018e-21)
(1.25602 -0.555679 1.32569e-19)