/*--------------------------------*- C++ -*----------------------------------*\
  =========                 |
  \\      /  F ield         | OpenFOAM: The Open Source CFD Toolbox
   \\    /   O peration     | Website:  https://openfoam.org
    \\  /    A nd           | Version:  7
     \\/     M anipulation  |
\*---------------------------------------------------------------------------*/
FoamFile
{
    version     2.0;
    format      ascii;
    class       volScalarField;
    location    "100";
    object      p;
}
// * * * * * * * * * * * * * * * * * * * * * * * * * * * * * * * * * * * * * //

dimensions      [0 2 -2 0 0 0 0];

internalField   nonuniform List<scalar> 
7156
(
0.222501
0.230663
0.238672
0.251487
0.246525
0.259533
0.254215
0.267409
0.261738
0.275106
0.269087
0.289655
0.282621
0.276258
0.29731
0.289946
0.283245
0.30476
0.297075
0.290042
0.312
0.304003
0.296645
0.327
0.319023
0.310724
0.303048
0.334134
0.325824
0.317232
0.309247
0.341029
0.332396
0.323523
0.315236
0.347677
0.338734
0.32959
0.321011
0.354075
0.344834
0.335428
0.326567
0.369769
0.360215
0.350689
0.341034
0.3319
0.375935
0.366093
0.356294
0.346401
0.337006
0.38182
0.371704
0.361646
0.351526
0.341881
0.387418
0.377042
0.366738
0.356404
0.346521
0.392726
0.382105
0.371569
0.361032
0.350922
0.397738
0.386886
0.376132
0.365404
0.355081
0.40245
0.391382
0.380424
0.369519
0.358994
0.418234
0.406859
0.39559
0.384442
0.373371
0.362659
0.422528
0.41096
0.399506
0.388183
0.376959
0.366074
0.426496
0.41475
0.403126
0.391642
0.380279
0.369234
0.430133
0.418226
0.406448
0.394819
0.383329
0.372139
0.433437
0.421386
0.409469
0.39771
0.386106
0.374785
0.436404
0.424226
0.412187
0.400312
0.388609
0.377172
0.439034
0.426744
0.4146
0.402625
0.390835
0.379297
0.441322
0.42894
0.416705
0.404646
0.392782
0.381159
0.443269
0.43081
0.418503
0.406374
0.39445
0.382757
0.444873
0.432355
0.41999
0.407809
0.395838
0.38409
0.446132
0.433572
0.421168
0.408948
0.396944
0.385158
0.447047
0.434463
0.422034
0.409792
0.397769
0.385959
0.447617
0.435025
0.42259
0.41034
0.398312
0.386495
0.447842
0.43526
0.422834
0.410593
0.398573
0.386764
0.447723
0.435169
0.422768
0.410551
0.398552
0.386767
0.44726
0.43475
0.422393
0.410215
0.398251
0.386505
0.446455
0.434007
0.421708
0.409586
0.39767
0.385979
0.445309
0.43294
0.420716
0.408664
0.39681
0.38519
0.443824
0.431551
0.419418
0.407451
0.395673
0.384138
0.442003
0.429842
0.417817
0.405951
0.39426
0.382826
0.439847
0.427816
0.415913
0.404163
0.392574
0.381255
0.437361
0.425475
0.413711
0.402091
0.390617
0.379428
0.434546
0.422822
0.411213
0.399738
0.388391
0.377346
0.431407
0.419861
0.408421
0.397106
0.385899
0.375012
0.416595
0.40534
0.394199
0.383144
0.372429
0.413029
0.401973
0.391019
0.38013
0.369599
0.409165
0.398324
0.387572
0.37686
0.366526
0.40501
0.394397
0.383861
0.373337
0.363214
0.400568
0.390197
0.379889
0.369566
0.359665
0.395843
0.385728
0.375662
0.365551
0.355883
0.390841
0.380995
0.371184
0.361296
0.351873
0.376005
0.366461
0.356807
0.347639
0.370761
0.361496
0.352087
0.343184
0.36527
0.356296
0.347143
0.338514
0.359538
0.350866
0.341978
0.333633
0.353571
0.345212
0.336599
0.328546
0.33934
0.331012
0.323258
0.333255
0.325221
0.317774
0.326965
0.319233
0.312099
0.320474
0.313053
0.306239
0.306689
0.300199
0.300145
0.293985
0.293429
0.287602
0.286546
0.281055
0.274351
0.267495
0.260493
0.108593
0.109203
0.110408
0.112117
0.114287
0.116871
0.11983
0.123125
0.126715
0.130557
0.134599
0.138784
0.143037
0.147279
0.151402
0.155293
0.158798
0.161762
0.163974
0.165236
0.165262
0.163833
0.160555
0.155257
0.147346
0.136917
0.122755
0.107669
0.108252
0.109402
0.111032
0.113094
0.115542
0.118332
0.121424
0.12477
0.128325
0.132029
0.135819
0.139616
0.143333
0.146857
0.150068
0.152811
0.154929
0.156213
0.156474
0.155439
0.152908
0.148525
0.142153
0.133275
0.122009
0.107413
0.106698
0.107254
0.108345
0.109891
0.11184
0.114144
0.116758
0.119637
0.122731
0.125989
0.129347
0.132738
0.136077
0.139272
0.142206
0.144759
0.146775
0.148101
0.148534
0.1479
0.145945
0.142502
0.137249
0.130105
0.120629
0.109007
0.094569
0.105677
0.106203
0.107234
0.108691
0.110522
0.112677
0.115109
0.117769
0.120604
0.123558
0.126564
0.12955
0.132426
0.135098
0.137446
0.13935
0.140655
0.141214
0.140835
0.139358
0.136553
0.13228
0.126266
0.118461
0.108529
0.096662
0.0824214
0.104606
0.105102
0.106069
0.107435
0.109144
0.111146
0.113391
0.115828
0.118399
0.121046
0.123698
0.126278
0.128695
0.130851
0.132628
0.133904
0.13453
0.134365
0.133233
0.130986
0.127424
0.122429
0.115781
0.107453
0.0972054
0.0852067
0.0711761
0.103485
0.103949
0.104852
0.106124
0.107709
0.109554
0.111608
0.113818
0.116123
0.118461
0.120759
0.122937
0.124902
0.126556
0.127781
0.128458
0.128445
0.12761
0.125792
0.122862
0.118646
0.113051
0.105907
0.0972027
0.0867807
0.0747852
0.0610542
0.102315
0.102746
0.103583
0.104758
0.106216
0.107902
0.109762
0.111743
0.11378
0.11581
0.117756
0.119537
0.121061
0.122228
0.122923
0.123034
0.122426
0.120978
0.118545
0.115015
0.110247
0.104166
0.0966495
0.0876999
0.0772246
0.0653536
0.0520146
0.101095
0.101493
0.102262
0.103339
0.104666
0.10619
0.107856
0.109605
0.111375
0.113097
0.114696
0.116089
0.117183
0.117882
0.118075
0.117655
0.116497
0.114492
0.111514
0.107468
0.102241
0.0957785
0.0879971
0.078913
0.0684847
0.0568324
0.0439471
0.0998255
0.100189
0.100889
0.101866
0.103062
0.104423
0.105892
0.107411
0.108914
0.110332
0.11159
0.112604
0.113284
0.113536
0.113256
0.112341
0.110681
0.108177
0.104722
0.100239
0.0946406
0.0878906
0.0799402
0.0708164
0.0605174
0.0491545
0.0367625
0.0985069
0.0988357
0.0994662
0.100342
0.101406
0.102602
0.103874
0.105163
0.106402
0.107522
0.108446
0.109094
0.109378
0.109207
0.108483
0.107114
0.104999
0.102053
0.0981889
0.093343
0.0874546
0.0805025
0.0724668
0.0633835
0.0532805
0.0422607
0.0303892
0.0971399
0.0974334
0.0979938
0.0987678
0.0996981
0.10073
0.101806
0.102867
0.103846
0.104674
0.105275
0.105571
0.105478
0.104909
0.103775
0.101991
0.0994704
0.0961397
0.0919291
0.0867912
0.0806868
0.0736087
0.06556
0.0565842
0.0467305
0.036094
0.0247605
0.0957253
0.0959832
0.0964731
0.0971448
0.0979419
0.0988101
0.0996922
0.100528
0.101252
0.101796
0.102086
0.102047
0.101597
0.100658
0.0991475
0.0969895
0.0941105
0.0904497
0.0859538
0.0805893
0.0743358
0.0671987
0.0591991
0.0503858
0.0408232
0.0305986
0.0198113
0.0942642
0.0944863
0.0949057
0.0954751
0.0961396
0.0968454
0.0975359
0.0981512
0.0986272
0.0988969
0.0988892
0.0985315
0.0977487
0.0964673
0.0946143
0.0921233
0.0889331
0.0849948
0.0802703
0.0747392
0.0683968
0.0612589
0.0533605
0.0447542
0.0355145
0.0257206
0.0154801
0.0927576
0.092944
0.0932932
0.0937609
0.094294
0.0948396
0.095342
0.0957425
0.0959783
0.0959846
0.0956935
0.0950364
0.0939439
0.0923494
0.0901887
0.087405
0.0839489
0.079783
0.0748828
0.0692394
0.0628613
0.0557728
0.0480192
0.039655
0.0307611
0.0214088
0.0117093
0.0912072
0.0913579
0.0916375
0.0920045
0.092408
0.0927964
0.0931153
0.0933074
0.0933121
0.0930671
0.0925083
0.0915717
0.0901942
0.0883161
0.0858822
0.082845
0.0791664
0.0748197
0.0697924
0.0640855
0.0577184
0.0507218
0.0431485
0.0350537
0.0265212
0.0176146
0.00844579
0.0896144
0.0897299
0.0899408
0.0902085
0.0904848
0.0907197
0.0908604
0.0908516
0.0906353
0.0901522
0.0893425
0.0881473
0.0865098
0.0843776
0.0817044
0.0784518
0.0745919
0.0701079
0.0649976
0.0592707
0.0529549
0.046086
0.0387215
0.0309162
0.0227544
0.0142924
0.00564028
0.0879812
0.0880619
0.0882052
0.0883757
0.0885279
0.0886136
0.0885823
0.088381
0.0879547
0.0872477
0.0862046
0.0847721
0.0829
0.0805431
0.0776636
0.0742318
0.0702293
0.065648
0.0604946
0.054786
0.048556
0.0418443
0.0347109
0.0272091
0.0194223
0.0113996
0.00324749
0.0863096
0.0863562
0.0864334
0.0865091
0.0865407
0.0864824
0.086286
0.0859015
0.0852769
0.0843608
0.0831026
0.0814545
0.079373
0.0768203
0.0737664
0.0701899
0.0660807
0.0614387
0.0562778
0.0506206
0.0445057
0.037975
0.0310894
0.0239003
0.0164884
0.00889628
0.00122577
0.0846018
0.0846151
0.084628
0.0846118
0.0845269
0.0843303
0.0839766
0.0834187
0.0826085
0.0814988
0.080044
0.0782022
0.0759364
0.0732157
0.0700179
0.066329
0.0621464
0.0574767
0.0523397
0.0467625
0.0407871
0.0344561
0.0278305
0.0209589
0.0139185
0.00674569
-0.000463028
0.0828602
0.0828413
0.082792
0.082687
0.0824904
0.0821619
0.0816591
0.0809384
0.0799557
0.0786682
0.0770357
0.0750219
0.0725963
0.0697348
0.066422
0.0626508
0.0584252
0.0537572
0.0486717
0.0431989
0.0373826
0.0312659
0.0249083
0.0183554
0.0116802
0.00491364
-0.00185381
0.0810876
0.0810375
0.0809284
0.0807384
0.0804351
0.0799814
0.0793385
0.0784661
0.0773245
0.0758754
0.0740841
0.0719197
0.0693582
0.0663816
0.062981
0.0591554
0.0549142
0.0502743
0.045264
0.0399158
0.0342746
0.0283827
0.0222976
0.0160617
0.00974348
0.00336857
-0.00297849
0.0792867
0.0792067
0.0790403
0.0787693
0.078365
0.0777936
0.0770198
0.0760072
0.0747206
0.0731263
0.0711947
0.0689009
0.0662264
0.0631592
0.0596962
0.0558416
0.0516095
0.0470206
0.0421058
0.0368991
0.0314452
0.0257854
0.0199744
0.0140514
0.00808011
0.00208141
-0.00386616
0.0774604
0.0773519
0.0771312
0.0767836
0.0762841
0.0756028
0.0747078
0.073567
0.0721493
0.0704261
0.0683728
0.0659699
0.0632043
0.0600695
0.0565675
0.0527071
0.0485062
0.0439883
0.0391861
0.0341343
0.0288769
0.0234534
0.0179158
0.0122997
0.00666396
0.00102543
-0.0045434
0.0756119
0.0754765
0.0752045
0.0747849
0.0741966
0.0734134
0.0724073
0.0711503
0.0696157
0.0677797
0.0656228
0.0631303
0.0602944
0.0571136
0.0535941
0.0497487
0.0455983
0.0411686
0.0364932
0.0316068
0.0265522
0.021367
0.0160998
0.0107831
0.00547078
0.000176047
-0.00503439
0.0737445
0.0735837
0.0732638
0.0727771
0.0721066
0.0712298
0.0701229
0.0687618
0.0671245
0.0651915
0.0629483
0.060385
0.0574985
0.0542915
0.0507741
0.0469623
0.0428793
0.0385522
0.034015
0.029302
0.0244542
0.0195071
0.0145059
0.00947975
0.00447809
-0.000489288
-0.00536116
0.0718614
0.0716771
0.0713126
0.070764
0.0700181
0.0690564
0.067859
0.066406
0.0646797
0.0626653
0.0603526
0.0577363
0.0548174
0.0516025
0.0481049
0.044343
0.0403419
0.0361296
0.0317397
0.0272057
0.0225666
0.0178557
0.0131146
0.00836937
0.00366515
-0.000991233
-0.00554377
0.0699663
0.0697602
0.0693547
0.0687495
0.0679351
0.0668972
0.0656197
0.0640869
0.0622853
0.0602044
0.0578382
0.0551856
0.0522513
0.049045
0.045583
0.0418855
0.0379787
0.0338908
0.0296551
0.0253038
0.0208736
0.0163953
0.0119074
0.00743296
0.0030128
-0.0013487
-0.00560042
0.0680625
0.0678365
0.0673938
0.0667374
0.0658617
0.0647563
0.0634091
0.0618083
0.0599446
0.0578115
0.0554071
0.0527338
0.0497996
0.0466171
0.0432045
0.0395838
0.0357815
0.031826
0.0277495
0.0235826
0.0193599
0.0151098
0.0108674
0.00665292
0.00250342
-0.00157896
-0.00554767
0.0661538
0.0659099
0.0654337
0.0647315
0.0638017
0.0626375
0.0612308
0.0595737
0.0576606
0.0554891
0.0530607
0.0503811
0.0474612
0.0443159
0.0409651
0.0374316
0.0337424
0.0299252
0.026011
0.022029
0.0180112
0.0139837
0.00997833
0.00601296
0.0021208
-0.00169779
-0.00540053
0.0642439
0.0639839
0.0634781
0.0627357
0.0617588
0.0605445
0.0590883
0.0573861
0.055436
0.0532389
0.0507998
0.0481272
0.0452345
0.0421383
0.0388598
0.0354225
0.0318529
0.0281784
0.0244284
0.0206303
0.0168137
0.0130025
0.00922541
0.005498
0.00185008
-0.00171956
-0.0051726
0.0623363
0.0620623
0.0615306
0.0607536
0.0597367
0.0584807
0.0569848
0.0552483
0.0532728
0.0510624
0.0486249
0.0459714
0.0431173
0.0400807
0.0368836
0.0335496
0.030105
0.026576
0.0229906
0.0193743
0.0157545
0.0121526
0.00859471
0.00509417
0.00167764
-0.00165736
-0.00487615
0.0604347
0.0601487
0.059595
0.0587888
0.0577388
0.0564495
0.0549232
0.0531628
0.0511728
0.0489604
0.0465358
0.0439125
0.0411071
0.0381392
0.035031
0.0318062
0.0284903
0.0251084
0.0216869
0.0182494
0.0148212
0.0114214
0.00807336
0.00478867
0.00159105
-0.00152305
-0.00452231
0.0585428
0.0582468
0.0576748
0.0568447
0.0557686
0.0544538
0.0529063
0.0511317
0.0491375
0.0469335
0.0445322
0.0419487
0.0392011
0.0363096
0.0332966
0.0301853
0.0270007
0.0237664
0.0205071
0.0172448
0.0140023
0.0107969
0.00764946
0.00456978
0.00157896
-0.00132741
-0.00412106
0.0566642
0.05636
0.0557735
0.0549248
0.053829
0.0524966
0.0509362
0.0491567
0.0471679
0.0449819
0.0426132
0.0400782
0.0373961
0.0345874
0.0316745
0.0286802
0.0256282
0.022541
0.0194416
0.01635
0.0132871
0.0102682
0.00731203
0.00442673
0.00163103
-0.00108016
-0.00368139
0.0548025
0.054492
0.0538945
0.0530322
0.051923
0.0505802
0.0490153
0.0472393
0.0452648
0.0431055
0.0407776
0.0382988
0.0356888
0.0329682
0.0301593
0.0272841
0.0243651
0.0214237
0.0184809
0.0155552
0.0126654
0.00982515
0.00705098
0.00434972
0.00173789
-0.000790094
-0.00321134
0.0529609
0.052646
0.052041
0.0511701
0.0500534
0.0487072
0.0471451
0.0453808
0.0434284
0.0413038
0.0390241
0.036608
0.0340755
0.0314474
0.0287452
0.0259903
0.023204
0.0204062
0.0176164
0.0148513
0.0121279
0.00945828
0.00685703
0.00432977
0.00189105
-0.000465097
-0.00271812
0.051143
0.0508253
0.0502161
0.0493411
0.0482228
0.0468795
0.0453274
0.0435819
0.0416591
0.039576
0.0373509
0.035003
0.0325526
0.0300201
0.0274266
0.0247924
0.0221376
0.0194807
0.0168397
0.0142297
0.0116659
0.00915894
0.00672172
0.00435876
0.00208284
-0.000112256
-0.00220811
0.0493518
0.0490331
0.0484227
0.0475481
0.0464334
0.0450991
0.0435634
0.0418434
0.0399566
0.0379212
0.0357562
0.0334812
0.0311164
0.0286819
0.026198
0.0236841
0.021159
0.0186398
0.016143
0.0136823
0.0112712
0.00891914
0.0066373
0.00442931
0.00230637
0.000262099
-0.001687
0.0475904
0.0472722
0.0466637
0.0457934
0.0446873
0.0433676
0.0418541
0.0401655
0.0383205
0.0363381
0.0342378
0.0320395
0.029763
0.0274281
0.0250541
0.0226594
0.0202616
0.0178765
0.0155192
0.0132018
0.0109366
0.00873161
0.00659674
0.00453476
0.00255543
0.000652335
-0.0011598
0.0458617
0.0455455
0.0449416
0.0440794
0.0429864
0.0416863
0.0402004
0.0385485
0.0367503
0.0348254
0.0327937
0.0306749
0.0284887
0.0262541
0.0239896
0.0217125
0.0194392
0.0171842
0.0149613
0.0127813
0.0106551
0.00858967
0.00659365
0.00466909
0.0028245
0.00105346
-0.000630898
0.0441684
0.0438556
0.0432588
0.0424083
0.0413325
0.0400565
0.0386028
0.0369923
0.0352451
0.0333816
0.0314215
0.0293844
0.0272896
0.0251554
0.0229994
0.0208378
0.0186858
0.0165568
0.014463
0.0124144
0.0104204
0.00848725
0.00662226
0.00482694
0.00310865
0.00146106
-0.000104134
0.0425131
0.0422049
0.0416175
0.0407817
0.0397269
0.0384791
0.0370618
0.0354965
0.0338041
0.0320049
0.0301188
0.028165
0.0261621
0.0241279
0.0220788
0.0200301
0.0179959
0.0159883
0.0140185
0.0120952
0.0102269
0.00841886
0.00667738
0.00500347
0.0034035
0.00187127
0.000417166
0.0408981
0.0405955
0.0400196
0.0392014
0.0381709
0.0369549
0.0355775
0.0340609
0.0324261
0.0306936
0.0288831
0.0270134
0.0251025
0.0231672
0.0212231
0.0192845
0.0173643
0.0154735
0.0136223
0.0118185
0.0100694
0.00837951
0.00675434
0.00519442
0.00370522
0.00228073
0.000930143
0.0393255
0.0390296
0.038467
0.0376689
0.0366655
0.0354843
0.0341499
0.0326847
0.03111
0.029446
0.0277122
0.0259268
0.0241072
0.0222693
0.0204279
0.0185962
0.016786
0.0150074
0.0132695
0.0115793
0.00994307
0.00836473
0.00684898
0.00539599
0.00401043
0.00268651
0.00143236
0.0377972
0.0375089
0.0369612
0.0361853
0.0352116
0.0340677
0.0327788
0.0313672
0.0298543
0.02826
0.0266034
0.0249021
0.0231728
0.0214305
0.0196891
0.0179608
0.0162565
0.0145854
0.0129555
0.0113731
0.00984367
0.0083705
0.00695759
0.00560483
0.00431619
0.00308611
0.00192178
0.036315
0.036035
0.0355037
0.0347518
0.0338097
0.0327054
0.0314639
0.0301076
0.0286577
0.0271338
0.0255543
0.0239365
0.0222959
0.0206471
0.0190028
0.0173743
0.0157717
0.0142032
0.0126762
0.0111959
0.00976737
0.00839324
0.0070769
0.00581802
0.00461996
0.00347741
0.0023967
0.0348802
0.0346092
0.0340954
0.0333691
0.0324605
0.0313974
0.0302047
0.0289049
0.0275187
0.0260653
0.0245626
0.023027
0.0214734
0.0199155
0.0183651
0.0168327
0.0153275
0.013857
0.0124276
0.0110441
0.00971071
0.00842974
0.00720402
0.00603301
0.00491956
0.00385861
0.00285573
0.0334943
0.0332328
0.0327374
0.0320379
0.031164
0.0301434
0.0290007
0.0277581
0.0264359
0.0250527
0.0236258
0.0221709
0.0207023
0.0192325
0.0177727
0.0163326
0.0149205
0.0135432
0.0122063
0.0109143
0.0096706
0.00847719
0.00733642
0.00624761
0.00521314
0.00422824
0.00329777
0.0321583
0.0319067
0.0314305
0.0307587
0.0299205
0.0289433
0.0278512
0.026666
0.0254076
0.0240939
0.0227416
0.0213657
0.0199795
0.0185949
0.0172223
0.0158706
0.0145473
0.0132585
0.0120093
0.0108036
0.00964432
0.0085331
0.0074719
0.00645993
0.00549915
0.00458509
0.00372198
0.030873
0.0306317
0.0301751
0.0295317
0.02873
0.0277965
0.0267553
0.0256275
0.0244322
0.0231871
0.0219079
0.0206088
0.0193024
0.018
0.016711
0.0154436
0.0142048
0.013
0.0118337
0.0107093
0.00962944
0.00859532
0.00760858
0.00666838
0.00577632
0.00492821
0.00412773
0.0296391
0.0294082
0.0289718
0.0283571
0.0275921
0.0267027
0.0257122
0.0246412
0.0235083
0.0223303
0.0211223
0.0198977
0.0186684
0.0174449
0.0162359
0.015049
0.0138904
0.012765
0.011677
0.0106292
0.00962382
0.00866194
0.00774484
0.00687163
0.00604361
0.00525688
0.0045146
0.0284572
0.0282368
0.0278206
0.0272349
0.0265066
0.0256611
0.0247209
0.0237059
0.0226342
0.0215217
0.0203828
0.0192302
0.0180751
0.0169271
0.0157944
0.014684
0.0136014
0.0125512
0.0115369
0.0105611
0.00962562
0.00873134
0.00787931
0.00706858
0.0063002
0.00557055
0.00488236
0.0273273
0.0271176
0.0267216
0.0261648
0.0254731
0.024671
0.0237803
0.0228204
0.0218083
0.0207594
0.0196874
0.0186041
0.0175201
0.0164443
0.0153843
0.0143464
0.0133358
0.0123564
0.0114115
0.0105032
0.00963322
0.00880215
0.00801084
0.00725834
0.00654547
0.00586888
0.0052309
0.0262499
0.0260506
0.0256747
0.0251466
0.0244911
0.0237317
0.0228896
0.0219833
0.0210292
0.0200418
0.0190341
0.0180173
0.0170013
0.0159942
0.0150032
0.014034
0.0130913
0.0121787
0.0112989
0.0104539
0.00964522
0.00887318
0.00813849
0.00744021
0.00677896
0.00615166
0.00556028
0.0252246
0.0250358
0.0246798
0.0241798
0.0235598
0.0228423
0.0220475
0.0211933
0.0202952
0.0193671
0.0184212
0.017468
0.0165167
0.015575
0.0146493
0.013745
0.0128662
0.0120163
0.0111976
0.0104119
0.00966043
0.00894345
0.0082615
0.00761365
0.00700037
0.00641881
0.00587064
0.0242515
0.0240729
0.0237364
0.023264
0.0226786
0.0220018
0.0212529
0.020449
0.0196049
0.0187337
0.0178468
0.0169543
0.0160645
0.0151846
0.0143207
0.0134775
0.0126589
0.0118677
0.0111063
0.010376
0.00967785
0.00901216
0.00837927
0.00777828
0.00720952
0.00667038
0.00616226
0.0233303
0.0231616
0.022844
0.0223985
0.0218467
0.0212093
0.0205048
0.0197492
0.0189569
0.01814
0.0173094
0.0164744
0.0156429
0.0148215
0.0140158
0.01323
0.0124677
0.0117316
0.0110236
0.010345
0.00969663
0.00907866
0.00849134
0.00793384
0.00740635
0.00690651
0.00643545
0.0224604
0.0223015
0.0220022
0.0215826
0.0210633
0.0204639
0.0198019
0.0190927
0.0183497
0.0175846
0.0168075
0.0160269
0.0152504
0.0144841
0.013733
0.0130011
0.0122916
0.0116069
0.0109488
0.0103182
0.00971608
0.00914241
0.00859738
0.00808018
0.0075909
0.00712741
0.00669063
0.0216415
0.0214919
0.0212103
0.0208157
0.0203276
0.0197645
0.0191432
0.0184782
0.0177822
0.0170661
0.0163394
0.0156103
0.0148856
0.0141709
0.013471
0.0127895
0.0121293
0.0114925
0.0108807
0.0102949
0.00973564
0.00920303
0.00869715
0.00821723
0.00776329
0.00733338
0.00692824
0.0208729
0.0207323
0.0204676
0.020097
0.0196386
0.0191102
0.0185275
0.0179044
0.0172529
0.0165831
0.015904
0.0152232
0.014547
0.0138808
0.0132286
0.0125941
0.0119797
0.0113875
0.0108187
0.0102743
0.00975484
0.00926022
0.00879052
0.00834503
0.00792369
0.00752475
0.00714877
0.0201542
0.020022
0.0197735
0.0194256
0.0189955
0.0184999
0.0179539
0.0173703
0.0167606
0.0161344
0.0155
0.0148644
0.0142336
0.0136124
0.0130048
0.0124139
0.0118421
0.0112911
0.0107622
0.0102561
0.00977333
0.00931376
0.00887743
0.00846365
0.00807233
0.00770189
0.00735274
0.0194845
0.0193604
0.0191272
0.0188007
0.0183974
0.0179328
0.0174212
0.0168749
0.0163044
0.0157189
0.0151262
0.0145328
0.0139442
0.0133649
0.0127986
0.0122481
0.0117156
0.0112028
0.0107106
0.0102399
0.00979085
0.00936354
0.00895788
0.00857325
0.0082095
0.00786522
0.00754068
0.0188633
0.0187469
0.018528
0.0182217
0.0178434
0.0174079
0.0169286
0.016417
0.0158831
0.0153356
0.0147816
0.0142273
0.0136778
0.0131372
0.0126091
0.0120959
0.0115997
0.0111219
0.0106636
0.0102252
0.00980721
0.00940948
0.00903193
0.00867399
0.00833548
0.00801513
0.00771312
0.01829
0.0181806
0.0179752
0.0176878
0.0173329
0.0169245
0.0164751
0.0159958
0.0154959
0.0149834
0.0144652
0.013947
0.0134335
0.0129287
0.0124356
0.0119566
0.0114937
0.011048
0.0106206
0.010212
0.00982229
0.00945156
0.00909967
0.00876608
0.00845059
0.00815206
0.00787056
0.017764
0.0176612
0.0174682
0.0171983
0.016865
0.0164816
0.01606
0.0156104
0.0151418
0.0146617
0.0141764
0.0136912
0.0132108
0.0127386
0.0122775
0.0118298
0.0113972
0.0109808
0.0105816
0.0101999
0.00983599
0.00948981
0.00916123
0.00884975
0.00855515
0.00827641
0.00801353
0.0172847
0.017188
0.0170064
0.0167526
0.0164392
0.0160788
0.0156825
0.0152602
0.0148202
0.0143695
0.0139142
0.0134593
0.0130088
0.0125663
0.0121343
0.0117149
0.0113098
0.01092
0.0105462
0.0101889
0.00984829
0.00952428
0.00921675
0.00892523
0.00864947
0.00838859
0.00814249
0.0168517
0.0167605
0.0165894
0.0163501
0.0160549
0.0157154
0.0153422
0.0149445
0.0145304
0.0141064
0.0136782
0.0132505
0.0128271
0.0124113
0.0120055
0.0116117
0.0112312
0.0108652
0.0105143
0.0101789
0.00985919
0.00955506
0.00926637
0.00899273
0.00873384
0.00848894
0.00825788
0.0164647
0.0163785
0.0162168
0.0159907
0.0157118
0.015391
0.0150385
0.014663
0.014272
0.0138719
0.0134679
0.0130645
0.0126654
0.0122733
0.0118909
0.0115197
0.0111613
0.0108164
0.0104859
0.0101699
0.00986872
0.00958222
0.00931026
0.00905246
0.00880855
0.00857782
0.00836007
0.0161237
0.0160419
0.0158885
0.0156741
0.0154095
0.0151054
0.0147711
0.0144152
0.0140448
0.0136657
0.0132831
0.0129011
0.0125232
0.0121521
0.0117901
0.0114389
0.0110998
0.0107735
0.0104608
0.0101618
0.00987691
0.00960586
0.00934855
0.00910463
0.00887381
0.00865548
0.00844939
0.0158286
0.0157507
0.0156045
0.0154002
0.0151482
0.0148585
0.0145401
0.0142012
0.0138485
0.0134876
0.0131235
0.01276
0.0124005
0.0120475
0.0117032
0.0113692
0.0110466
0.0107364
0.010439
0.0101548
0.00988381
0.00962606
0.00938135
0.00914936
0.00892981
0.00872214
0.00852608
0.0155799
0.0155052
0.0153651
0.0151694
0.014928
0.0146505
0.0143455
0.0140209
0.0136832
0.0133377
0.0129892
0.0126413
0.0122972
0.0119595
0.0116301
0.0113105
0.0110019
0.0107051
0.0104206
0.0101487
0.00988949
0.00964289
0.00940876
0.00918679
0.00897669
0.00877796
0.0085903
0.0153781
0.015306
0.015171
0.0149822
0.0147494
0.0144818
0.0141878
0.0138748
0.0135492
0.0132163
0.0128803
0.0125451
0.0122136
0.0118882
0.0115708
0.0112629
0.0109657
0.0106797
0.0104057
0.0101437
0.00989399
0.00965641
0.00943082
0.00921694
0.00901448
0.00882297
0.0086421
0.0152241
0.0151541
0.0150228
0.0148395
0.0146133
0.0143532
0.0140676
0.0137635
0.0134472
0.0131237
0.0127974
0.0124718
0.0121498
0.0118338
0.0115256
0.0112267
0.010938
0.0106604
0.0103943
0.0101399
0.00989736
0.00966663
0.00944754
0.00923982
0.00904316
0.00885715
0.00868144
0.0151194
0.0150508
0.0149221
0.0147424
0.0145207
0.0142659
0.0139859
0.0136878
0.0133778
0.0130608
0.0127411
0.012422
0.0121065
0.0117969
0.011495
0.011202
0.0109192
0.0106472
0.0103865
0.0101372
0.00989961
0.00967353
0.00945885
0.0092553
0.00906257
0.00888029
0.00870809
0.0150659
0.0149979
0.0148706
0.0146928
0.0144734
0.0142212
0.0139441
0.0136492
0.0133423
0.0130287
0.0127123
0.0123966
0.0120844
0.011778
0.0114793
0.0111895
0.0109096
0.0106405
0.0103825
0.0101359
0.00990075
0.00967705
0.00946462
0.00926319
0.00907248
0.00889209
0.00872166
0.118196
0.118914
0.12038
0.122454
0.125138
0.128375
0.13216
0.13648
0.14133
0.146722
0.152649
0.159132
0.166173
0.173806
0.182027
0.190877
0.200364
0.210528
0.221354
0.232912
0.245168
0.258202
0.27195
0.286521
0.301786
0.317926
0.334653
0.352355
0.370333
0.118112
0.118829
0.120293
0.122363
0.125042
0.128274
0.132053
0.136365
0.141208
0.146589
0.152506
0.158977
0.166005
0.173623
0.181828
0.190662
0.200128
0.21027
0.221073
0.232604
0.24483
0.257831
0.271542
0.286073
0.301292
0.317382
0.334051
0.351691
0.369595
0.118024
0.118739
0.1202
0.122266
0.124942
0.128168
0.13194
0.136245
0.141078
0.146449
0.152354
0.158812
0.165825
0.173427
0.181613
0.190427
0.199869
0.209984
0.220757
0.232255
0.244442
0.257399
0.271061
0.285536
0.30069
0.316707
0.333291
0.350838
0.368627
0.117932
0.118645
0.120103
0.122165
0.124836
0.128056
0.131821
0.136118
0.140941
0.146301
0.152193
0.158637
0.165634
0.173217
0.181382
0.190172
0.199586
0.209671
0.220408
0.231864
0.244004
0.256907
0.270506
0.28491
0.29998
0.315903
0.332373
0.349795
0.36743
0.117835
0.118546
0.120001
0.122059
0.124725
0.127939
0.131696
0.135984
0.140798
0.146146
0.152024
0.158452
0.165431
0.172993
0.181135
0.189899
0.199281
0.209329
0.220024
0.231433
0.243516
0.256355
0.269878
0.284195
0.299162
0.314968
0.331298
0.348564
0.366005
0.117733
0.118443
0.119895
0.121948
0.124609
0.127817
0.131566
0.135845
0.140647
0.145982
0.151846
0.158257
0.165217
0.172756
0.180872
0.189606
0.198952
0.208959
0.219607
0.23096
0.242979
0.255743
0.269177
0.283391
0.298236
0.313903
0.330065
0.347143
0.364351
0.117628
0.118335
0.119784
0.121832
0.124488
0.127689
0.13143
0.135699
0.14049
0.145811
0.151659
0.158052
0.164991
0.172505
0.180593
0.189293
0.1986
0.208562
0.219156
0.230447
0.242392
0.255071
0.268402
0.282499
0.297203
0.312709
0.328676
0.345535
0.362471
0.117517
0.118223
0.119668
0.121712
0.124362
0.127556
0.131288
0.135547
0.140326
0.145633
0.151464
0.157837
0.164753
0.172241
0.180297
0.188962
0.198226
0.208137
0.218672
0.229894
0.241756
0.254338
0.267555
0.281519
0.296063
0.311385
0.32713
0.34374
0.360364
0.117403
0.118106
0.119548
0.121586
0.124231
0.127417
0.131141
0.135388
0.140155
0.145446
0.151259
0.157612
0.164504
0.171963
0.179986
0.188611
0.197828
0.207684
0.218154
0.229299
0.24107
0.253546
0.266635
0.280451
0.294816
0.309933
0.325428
0.341758
0.358032
0.117283
0.117984
0.119423
0.121454
0.124095
0.127273
0.130987
0.135224
0.139977
0.145253
0.151047
0.157378
0.164243
0.171672
0.179659
0.188241
0.197407
0.207204
0.217602
0.228664
0.240335
0.252694
0.265642
0.279294
0.293462
0.308352
0.323571
0.339591
0.355477
0.11716
0.117858
0.119294
0.121331
0.123954
0.127124
0.130829
0.135053
0.139792
0.145051
0.150826
0.157133
0.163971
0.171367
0.179315
0.187852
0.196964
0.206696
0.217017
0.227989
0.23955
0.251782
0.264576
0.27805
0.292002
0.306644
0.32156
0.337239
0.352699
0.117032
0.117728
0.11916
0.12119
0.123809
0.12697
0.130664
0.134877
0.139601
0.144842
0.150596
0.156879
0.163688
0.171049
0.178956
0.187444
0.196497
0.206161
0.216399
0.227273
0.238717
0.250811
0.263439
0.276719
0.290437
0.304809
0.319396
0.334704
0.349701
0.1169
0.117593
0.119021
0.121045
0.123658
0.126811
0.130494
0.134694
0.139403
0.144626
0.150358
0.156615
0.163393
0.170718
0.178581
0.187018
0.196008
0.205598
0.215748
0.226517
0.237835
0.249781
0.26223
0.275301
0.288766
0.302847
0.317079
0.331988
0.346485
0.116763
0.117454
0.118878
0.120896
0.123502
0.126646
0.130319
0.134505
0.139199
0.144402
0.150112
0.156341
0.163087
0.170374
0.178191
0.186572
0.195497
0.205008
0.215063
0.225721
0.236904
0.248691
0.260949
0.273797
0.28699
0.300759
0.314611
0.329091
0.343053
0.116622
0.117311
0.118731
0.120743
0.123342
0.126477
0.130138
0.134311
0.138987
0.144171
0.149857
0.156058
0.16277
0.170016
0.177784
0.186108
0.194963
0.204391
0.214346
0.224885
0.235925
0.247543
0.259596
0.272206
0.285111
0.298546
0.311992
0.326015
0.339406
0.116477
0.117163
0.118579
0.120585
0.123176
0.126302
0.129952
0.13411
0.13877
0.143933
0.149594
0.155766
0.162442
0.169645
0.177362
0.185625
0.194406
0.203747
0.213596
0.224009
0.234897
0.246337
0.258173
0.27053
0.283128
0.29621
0.309224
0.322763
0.335548
0.116327
0.117011
0.118422
0.120422
0.123006
0.126122
0.12976
0.133904
0.138546
0.143687
0.149322
0.155463
0.162103
0.169261
0.176925
0.185123
0.193827
0.203075
0.212813
0.223094
0.233821
0.245072
0.256679
0.268768
0.281042
0.29375
0.306309
0.319335
0.33148
0.116173
0.116854
0.118261
0.120255
0.122831
0.125938
0.129563
0.133692
0.138315
0.143435
0.149043
0.155152
0.161752
0.168864
0.176472
0.184603
0.193226
0.202377
0.211998
0.222139
0.232697
0.243749
0.255114
0.266922
0.278853
0.291168
0.303247
0.315733
0.327206
0.116015
0.116694
0.118096
0.120084
0.122652
0.125748
0.129361
0.133474
0.138078
0.143175
0.148755
0.154831
0.161391
0.168455
0.176004
0.184065
0.192603
0.201652
0.21115
0.221145
0.231526
0.242369
0.25348
0.264991
0.276564
0.288465
0.300039
0.311961
0.322729
0.115853
0.116529
0.117927
0.119908
0.122468
0.125553
0.129153
0.13325
0.137835
0.142908
0.14846
0.1545
0.161019
0.168032
0.175521
0.183508
0.191958
0.200901
0.21027
0.220112
0.230307
0.240931
0.251776
0.262978
0.274173
0.285641
0.296689
0.308019
0.318052
0.115686
0.11636
0.117753
0.119728
0.122279
0.125354
0.12894
0.133021
0.137586
0.142634
0.148156
0.154161
0.160637
0.167597
0.175023
0.182934
0.191291
0.200123
0.209358
0.21904
0.229041
0.239436
0.250003
0.260881
0.271683
0.282699
0.293196
0.30391
0.313177
0.115516
0.116187
0.117575
0.119543
0.122085
0.12515
0.128722
0.132786
0.13733
0.142353
0.147845
0.153813
0.160243
0.16715
0.17451
0.182341
0.190602
0.199319
0.208414
0.217929
0.227727
0.237884
0.248161
0.258701
0.269093
0.279639
0.289564
0.299637
0.308108
0.115341
0.116009
0.117393
0.119354
0.121888
0.124941
0.128499
0.132546
0.137069
0.142066
0.147526
0.153455
0.159839
0.16669
0.173981
0.181731
0.189892
0.198489
0.207438
0.21678
0.226368
0.236276
0.246251
0.25644
0.266405
0.276462
0.285792
0.295201
0.302849
0.115162
0.115828
0.117207
0.119161
0.121686
0.124727
0.128271
0.1323
0.136801
0.141771
0.147199
0.153089
0.159425
0.166217
0.173438
0.181102
0.18916
0.197632
0.206431
0.215592
0.224962
0.234611
0.244274
0.254097
0.26362
0.273171
0.281884
0.290606
0.297403
0.114979
0.115642
0.117016
0.118963
0.121479
0.124509
0.128038
0.132049
0.136527
0.14147
0.146864
0.152713
0.159
0.165732
0.172881
0.180456
0.188407
0.19675
0.205392
0.214367
0.223509
0.232891
0.242229
0.251674
0.260739
0.269765
0.277841
0.285853