/*--------------------------------*- C++ -*----------------------------------*\
  =========                 |
  \\      /  F ield         | OpenFOAM: The Open Source CFD Toolbox
   \\    /   O peration     | Website:  https://openfoam.org
    \\  /    A nd           | Version:  7
     \\/     M anipulation  |
\*---------------------------------------------------------------------------*/
FoamFile
{
    version     2.0;
    format      ascii;
    class       volVectorField;
    location    "100";
    object      U;
}
// * * * * * * * * * * * * * * * * * * * * * * * * * * * * * * * * * * * * * //

dimensions      [0 1 -1 0 0 0 0];

internalField   nonuniform List<vector> 
7156
(
(0.824317 0.286768 1.21211e-19)
(0.816745 0.281249 -1.32737e-19)
(0.809321 0.275516 6.82601e-20)
(0.790707 0.282875 -2.03532e-19)
(0.802049 0.269574 -5.89854e-21)
(0.783254 0.276415 -1.92435e-19)
(0.794934 0.263425 2.0805e-19)
(0.775967 0.269745 3.16061e-19)
(0.787981 0.257074 1.56782e-19)
(0.768853 0.26287 1.75043e-19)
(0.781197 0.250525 -3.98474e-19)
(0.748506 0.268414 -2.73362e-19)
(0.761917 0.255793 -1.71756e-19)
(0.774585 0.243783 2.82917e-19)
(0.741413 0.260785 5.88815e-19)
(0.755165 0.248519 -4.99553e-20)
(0.768151 0.236851 -8.17044e-20)
(0.73452 0.252955 -1.4636e-19)
(0.748603 0.241054 -1.30757e-19)
(0.761899 0.229736 1.74891e-19)
(0.727831 0.244928 -2.05901e-19)
(0.742236 0.233402 -2.98885e-20)
(0.755836 0.222441 -4.03025e-19)
(0.706208 0.248347 3.68147e-19)
(0.721352 0.236712 7.24058e-20)
(0.736068 0.225569 1.6633e-19)
(0.749965 0.214973 4.71143e-20)
(0.699609 0.239545 -1.46715e-20)
(0.715089 0.22831 8.22912e-20)
(0.730107 0.21756 -2.01186e-19)
(0.744292 0.207337 7.55638e-20)
(0.693244 0.230555 -1.61105e-19)
(0.709048 0.219731 -9.6714e-20)
(0.724356 0.209381 -5.26259e-20)
(0.73882 0.199538 2.06607e-19)
(0.687118 0.221383 -4.43303e-20)
(0.703234 0.210979 -6.56193e-21)
(0.71882 0.201038 2.51402e-20)
(0.733555 0.191582 -6.66496e-20)
(0.681235 0.212036 1.63594e-19)
(0.697651 0.202061 2.0248e-19)
(0.713505 0.192537 1.28116e-19)
(0.728501 0.183476 1.69975e-19)
(0.658106 0.212569 -1.49322e-19)
(0.675602 0.202521 -1.45959e-19)
(0.692304 0.192985 6.0694e-20)
(0.708414 0.183885 -1.84933e-19)
(0.723661 0.175225 -1.40387e-19)
(0.652439 0.202424 2.40727e-19)
(0.670223 0.192846 8.73124e-20)
(0.687199 0.183756 -3.8573e-20)
(0.703553 0.175087 3.85466e-20)
(0.719041 0.166837 1.32647e-19)
(0.647044 0.192117 -2.87621e-19)
(0.665103 0.183018 -6.15671e-20)
(0.682339 0.174383 -5.71529e-20)
(0.698926 0.166152 -7.89485e-20)
(0.714643 0.158316 -2.26084e-19)
(0.641928 0.181657 -6.54873e-20)
(0.660246 0.173044 -5.49585e-21)
(0.677729 0.164871 1.96488e-19)
(0.694535 0.157085 -2.09243e-20)
(0.710471 0.14967 -7.61739e-22)
(0.637093 0.171051 4.18139e-19)
(0.655657 0.162933 1.54601e-19)
(0.673373 0.155229 -2.44467e-19)
(0.690387 0.147894 2.55276e-19)
(0.706529 0.140906 3.61218e-20)
(0.632546 0.160309 -2.3223e-19)
(0.65134 0.152692 -1.1236e-19)
(0.669275 0.145465 1.63514e-19)
(0.686483 0.138586 -5.75053e-20)
(0.702821 0.132031 6.1434e-20)
(0.628289 0.149439 6.66918e-20)
(0.647298 0.14233 1.52289e-19)
(0.665438 0.135585 -1.64541e-19)
(0.682828 0.129168 -7.25704e-20)
(0.699348 0.123051 3.02559e-20)
(0.604184 0.145395 -4.30804e-20)
(0.624326 0.138449 -9.65913e-20)
(0.643536 0.131854 -9.11357e-20)
(0.661866 0.125598 6.90829e-20)
(0.679424 0.119647 -1.27039e-19)
(0.696115 0.113973 -4.1879e-20)
(0.600326 0.133746 -1.23973e-19)
(0.620661 0.127348 7.7132e-20)
(0.640056 0.121274 8.69828e-21)
(0.658561 0.115511 5.45071e-20)
(0.676274 0.110032 4.44583e-20)
(0.693123 0.104805 1.69542e-20)
(0.596785 0.121989 1.36748e-20)
(0.617298 0.116145 1.46191e-19)
(0.636861 0.110597 6.14119e-20)
(0.655527 0.105332 -1.55652e-19)
(0.673382 0.100329 4.60375e-21)
(0.690376 0.0955545 8.47453e-21)
(0.593565 0.110135 8.57786e-20)
(0.614238 0.10485 -1.36095e-20)
(0.633955 0.0998322 1.74668e-20)
(0.652766 0.0950704 -1.51382e-20)
(0.67075 0.090546 -4.26634e-20)
(0.687875 0.0862279 -1.65625e-20)
(0.590669 0.098193 -5.95296e-21)
(0.611486 0.0934717 -7.24569e-20)
(0.631339 0.0889882 -5.30905e-20)
(0.65028 0.0847335 4.37379e-20)
(0.668379 0.0806916 5.48412e-20)
(0.685622 0.0768329 3.96526e-20)
(0.588099 0.0861728 -1.12574e-19)
(0.609043 0.082019 1.47214e-20)
(0.629017 0.0780738 -2.34743e-20)
(0.648072 0.0743296 1.1718e-19)
(0.666273 0.0707733 -3.39879e-20)
(0.683619 0.0673772 -2.10581e-20)
(0.585858 0.0740842 9.54682e-21)
(0.606911 0.0705015 -1.23617e-19)
(0.626989 0.0670979 1.22744e-20)
(0.646144 0.0638672 -8.56129e-20)
(0.664432 0.0607989 4.91684e-20)
(0.681869 0.0578681 4.48144e-20)
(0.583946 0.0619374 6.81118e-20)
(0.605091 0.0589285 7.47227e-20)
(0.625258 0.0560693 -3.14975e-20)
(0.644496 0.0533547 -4.84182e-20)
(0.662858 0.0507766 -3.41933e-20)
(0.680371 0.0483133 8.0526e-20)
(0.582367 0.0497422 -2.98824e-21)
(0.603587 0.0473096 -2.67787e-20)
(0.623825 0.0449969 4.02484e-20)
(0.643131 0.0428005 2.34912e-21)
(0.661553 0.0407144 -2.08238e-20)
(0.679128 0.0387205 1.51929e-20)
(0.581121 0.0375089 -6.70439e-20)
(0.602398 0.0356543 -5.61307e-21)
(0.622691 0.0338899 1.3762e-21)
(0.642049 0.0322133 2.78286e-20)
(0.660517 0.0306204 1.94808e-20)
(0.67814 0.0290973 -1.11409e-20)
(0.580209 0.0252474 2.63789e-20)
(0.601525 0.0239722 -6.94348e-21)
(0.621856 0.0227572 3.69385e-20)
(0.641252 0.0216014 -2.82676e-20)
(0.659751 0.0205027 -9.38683e-21)
(0.677407 0.0194513 -2.65512e-21)
(0.579631 0.012968 -1.53375e-21)
(0.60097 0.0122728 -6.6798e-21)
(0.621322 0.0116079 -1.2759e-20)
(0.640738 0.0109736 -3.14465e-21)
(0.659256 0.0103694 2.14141e-21)
(0.676931 0.00979031 -7.49677e-21)
(0.579388 0.000680852 -2.37593e-21)
(0.600732 0.000565713 -5.48103e-21)
(0.621089 0.000451007 -1.14936e-20)
(0.64051 0.000338281 -3.41786e-21)
(0.659032 0.000228818 8.32433e-22)
(0.676711 0.000122164 -3.65225e-21)
(0.57948 -0.011604 2.54911e-20)
(0.600811 -0.0111394 3.37187e-21)
(0.621156 -0.0107043 2.81607e-20)
(0.640566 -0.0102959 -2.50238e-20)
(0.659079 -0.00991101 -8.07788e-21)
(0.676748 -0.00954556 -1.10043e-20)
(0.579906 -0.0238763 -4.00149e-20)
(0.601206 -0.0228331 1.32006e-20)
(0.621523 -0.0218491 -5.28826e-20)
(0.640907 -0.0209203 6.22006e-20)
(0.659396 -0.0200419 1.28708e-20)
(0.677041 -0.0192053 -7.60973e-21)
(0.580666 -0.0361259 2.95659e-20)
(0.601918 -0.0345056 -2.69125e-20)
(0.62219 -0.0329743 1.89588e-20)
(0.641532 -0.0315265 1.76152e-20)
(0.659983 -0.0301558 -1.02631e-20)
(0.67759 -0.0288491 -2.0745e-20)
(0.581759 -0.0483429 4.18562e-20)
(0.602945 -0.0461475 8.24826e-20)
(0.623156 -0.0440708 -5.88858e-20)
(0.642439 -0.0421059 6.97036e-21)
(0.660839 -0.0402444 -1.46247e-20)
(0.678393 -0.0384695 -1.52366e-20)
(0.583182 -0.060517 -3.13322e-20)
(0.604286 -0.0577493 -6.96651e-20)
(0.624419 -0.0551297 -1.69569e-21)
(0.643629 -0.05265 -8.85488e-20)
(0.661963 -0.0502999 5.66837e-20)
(0.679451 -0.0480587 8.14352e-20)
(0.584936 -0.0726384 -1.38981e-19)
(0.60594 -0.0693016 4.91305e-20)
(0.625977 -0.0661421 1.74091e-20)
(0.645099 -0.0631504 1.04316e-19)
(0.663354 -0.060314 -6.95184e-20)
(0.680761 -0.0576092 -3.43821e-20)
(0.587016 -0.0846971 1.771e-20)
(0.607903 -0.0807949 -8.80898e-20)
(0.62783 -0.077099 -1.9017e-20)
(0.646847 -0.0735987 7.35285e-21)
(0.66501 -0.0702789 9.27889e-20)
(0.682322 -0.0671134 3.42353e-20)
(0.589422 -0.0966833 1.5117e-19)
(0.610175 -0.09222 -6.72897e-20)
(0.629975 -0.0879919 7.8136e-20)
(0.648873 -0.0839866 -7.84433e-20)
(0.66693 -0.0801866 4.89987e-21)
(0.684133 -0.0765639 -4.59421e-20)
(0.59215 -0.108587 6.00696e-20)
(0.612753 -0.103568 7.01328e-20)
(0.63241 -0.0988118 1.09867e-20)
(0.651173 -0.0943059 2.56027e-21)
(0.66911 -0.0900293 -6.91445e-20)
(0.686192 -0.0859531 -1.74144e-20)
(0.595198 -0.120399 -1.34466e-19)
(0.615633 -0.114829 -4.7525e-20)
(0.635132 -0.10955 4.04948e-20)
(0.653746 -0.104548 6.08009e-20)
(0.67155 -0.0997993 1.05236e-19)
(0.688497 -0.0952738 3.03618e-20)
(0.598561 -0.13211 1.82426e-19)
(0.618813 -0.125995 -1.09548e-19)
(0.638138 -0.120199 -1.34434e-19)
(0.656588 -0.114706 -1.02494e-20)
(0.674246 -0.109489 -1.04107e-19)
(0.691045 -0.104519 -4.58166e-20)
(0.62229 -0.137056 9.66532e-20)
(0.641426 -0.130749 1.02725e-19)
(0.659696 -0.124771 -2.37037e-19)
(0.677195 -0.119091 -9.77325e-21)
(0.693834 -0.11368 4.37334e-21)
(0.626059 -0.148004 -2.43799e-19)
(0.644991 -0.141192 -8.45938e-20)
(0.663068 -0.134735 1.57457e-19)
(0.680395 -0.128597 -1.86774e-20)
(0.696861 -0.122752 -7.63736e-20)
(0.630118 -0.15883 3.18671e-19)
(0.64883 -0.151521 1.3573e-19)
(0.6667 -0.144591 -1.73014e-19)
(0.683842 -0.138001 1.7454e-19)
(0.700123 -0.131727 8.4647e-20)
(0.634461 -0.169527 -5.42853e-20)
(0.652939 -0.161727 -5.72446e-21)
(0.670588 -0.154332 1.8223e-19)
(0.687534 -0.147294 -5.72725e-20)
(0.703617 -0.140597 -1.34955e-19)
(0.639085 -0.180084 -2.52833e-19)
(0.657315 -0.171802 -9.25777e-20)
(0.674729 -0.163949 -3.12514e-20)
(0.691465 -0.156471 -1.24759e-19)
(0.70734 -0.149357 6.34951e-21)
(0.643984 -0.190495 3.05643e-19)
(0.661952 -0.181739 1.37463e-19)
(0.679118 -0.173435 -4.58647e-20)
(0.695632 -0.165524 1.05822e-19)
(0.711288 -0.158 1.21043e-19)
(0.649153 -0.200752 -8.73118e-20)
(0.666846 -0.19153 -1.46917e-19)
(0.683751 -0.182784 4.9525e-20)
(0.700032 -0.174446 -2.31459e-19)
(0.715458 -0.166519 -1.86512e-19)
(0.671992 -0.201168 2.15523e-19)
(0.688623 -0.191988 1.2605e-19)
(0.70466 -0.183231 2.13475e-19)
(0.719845 -0.174907 2.07921e-19)
(0.677386 -0.210646 -1.39769e-19)
(0.69373 -0.201041 1.47394e-19)
(0.709511 -0.191873 -6.10277e-20)
(0.724446 -0.183159 -1.29353e-19)
(0.683021 -0.219956 -3.54664e-19)
(0.699067 -0.209936 -1.43887e-19)
(0.71458 -0.200365 4.24036e-20)
(0.729256 -0.191269 1.35434e-19)
(0.688892 -0.229093 2.70957e-20)
(0.704629 -0.218666 -2.07999e-19)
(0.719864 -0.2087 -4.79377e-20)
(0.734271 -0.199231 3.18579e-20)
(0.694995 -0.238049 1.20644e-20)
(0.71041 -0.227227 3.21507e-20)
(0.725357 -0.216874 4.15586e-19)
(0.739487 -0.207038 -6.70872e-20)
(0.716405 -0.235611 -2.04114e-20)
(0.731053 -0.224881 -1.98115e-20)
(0.744898 -0.214686 -2.98509e-19)
(0.722608 -0.243813 -3.10969e-19)
(0.736948 -0.232715 -8.16957e-20)
(0.750501 -0.222169 2.04967e-19)
(0.729014 -0.251827 5.76651e-19)
(0.743036 -0.240371 -8.42713e-20)
(0.756289 -0.229482 -5.58658e-20)
(0.735616 -0.259649 -2.30745e-19)
(0.749312 -0.247843 -2.01534e-19)
(0.762259 -0.23662 2.23581e-19)
(0.755769 -0.255128 1.06047e-19)
(0.768404 -0.243578 -3.54447e-19)
(0.762403 -0.262221 2.26932e-19)
(0.774721 -0.250352 1.22689e-19)
(0.769208 -0.269117 -3.91817e-20)
(0.781203 -0.256938 1.09366e-19)
(0.776177 -0.275814 1.80858e-20)
(0.787846 -0.263331 -8.55578e-20)
(0.794643 -0.269527 -6.30569e-20)
(0.801591 -0.275524 -1.46655e-19)
(0.808684 -0.281318 4.41548e-21)
(0.999987 0.00209656 0)
(0.999345 0.00608875 0)
(0.998104 0.009918 0)
(0.996347 0.0136334 0)
(0.994101 0.0173422 0)
(0.991408 0.0211289 0)
(0.988289 0.0250892 0)
(0.984778 0.0293185 0)
(0.980895 0.033911 0)
(0.976681 0.0389678 0)
(0.972159 0.0445842 0)
(0.967387 0.0508652 0)
(0.9624 0.0579075 0)
(0.957283 0.0658189 0)
(0.952084 0.0746953 0)
(0.946936 0.084643 0)
(0.941894 0.0957509 0)
(0.937163 0.108114 0)
(0.932792 0.121804 0)
(0.9291 0.136884 0)
(0.926075 0.153396 0)
(0.924252 0.171335 0)
(0.923394 0.190721 0)
(0.92452 0.21137 0)
(0.926706 0.233448 0)
(0.932232 0.256086 0)
(0.9382 0.2809 0)
(0.999989 0.00216317 0)
(0.999375 0.00629251 0)
(0.998186 0.0102529 0)
(0.996501 0.0141048 0)
(0.99435 0.017952 0)
(0.991775 0.0218817 0)
(0.9888 0.0259885 0)
(0.985463 0.030367 0)
(0.981787 0.0351096 0)
(0.97782 0.0403138 0)
(0.973591 0.0460717 0)
(0.969165 0.0524811 0)
(0.964583 0.0596334 0)
(0.959943 0.067624 0)
(0.955297 0.076541 0)
(0.950792 0.0864711 0)
(0.946487 0.0974931 0)
(0.942603 0.109671 0)
(0.939184 0.123068 0)
(0.936572 0.137697 0)
(0.934722 0.153608 0)
(0.934212 0.170695 0)
(0.934712 0.189062 0)
(0.93734 0.208262 0)
(0.940936 0.228854 0)
(0.948058 0.249041 0)
(0.955099 0.272072 -1.08834e-28)
(0.999989 0.00222994 0)
(0.999406 0.00649629 0)
(0.998275 0.0105894 0)
(0.996671 0.0145792 0)
(0.994626 0.0185665 0)
(0.992184 0.0226407 0)
(0.989369 0.0268953 0)
(0.986224 0.0314236 0)
(0.982775 0.0363167 0)
(0.979075 0.0416677 0)
(0.975159 0.0475654 0)
(0.971098 0.0540999 0)
(0.966939 0.061357 0)
(0.962787 0.0694191 0)
(0.9587 0.0783655 0)
(0.954832 0.0882623 0)
(0.951244 0.0991777 0)
(0.948166 0.111143 0)
(0.945632 0.124214 0)
(0.943996 0.138348 0)
(0.943183 0.153609 0)
(0.943789 0.169786 0)
(0.945414 0.187075 0)
(0.949209 0.204772 0)
(0.953877 0.223801 0)
(0.962003 0.241643 0)
(0.969742 0.26256 0)
(0.99999 0.00229584 0)
(0.999438 0.00669717 0)
(0.998369 0.0109213 0)
(0.996852 0.0150454 0)
(0.994921 0.0191682 0)
(0.992621 0.0233807 0)
(0.989978 0.0277756 0)
(0.987038 0.0324447 0)
(0.983832 0.0374774 0)
(0.980415 0.0429624 0)
(0.976828 0.0489854 0)
(0.973148 0.0556289 0)
(0.969425 0.0629724 0)
(0.965772 0.0710866 0)
(0.962248 0.0800417 0)
(0.959013 0.089885 0)
(0.956127 0.100674 0)
(0.953823 0.112411 0)
(0.952124 0.125145 0)
(0.951386 0.138786 0)
(0.951506 0.153411 0)
(0.953075 0.168722 0)
(0.955654 0.184994 0)
(0.960349 0.201334 0)
(0.965861 0.21891 0)
(0.974564 0.234842 0)
(0.982887 0.253822 0)
(0.99999 0.00235941 0)
(0.999471 0.00689055 0)
(0.998466 0.0112406 0)
(0.99704 0.0154926 0)
(0.995229 0.0197438 0)
(0.993078 0.024086 0)
(0.990616 0.0286107 0)
(0.987891 0.0334079 0)
(0.984937 0.0385646 0)
(0.981815 0.0441653 0)
(0.978568 0.0502913 0)
(0.975278 0.0570174 0)
(0.972 0.0644166 0)
(0.968849 0.0725473 0)
(0.965886 0.0814707 0)
(0.963276 0.091216 0)
(0.961073 0.10183 0)
(0.959509 0.113289 0)
(0.958598 0.125635 0)
(0.958681 0.138738 0)
(0.959647 0.152686 0)
(0.962043 0.167112 0)
(0.96544 0.182354 0)
(0.970826 0.197393 0)
(0.977006 0.213555 0)
(0.986034 0.227806 0)
(0.994803 0.244985 0)
(0.999991 0.00242019 0)
(0.999505 0.00707502 0)
(0.998566 0.011545 0)
(0.997234 0.0159181 0)
(0.995547 0.0202901 0)
(0.99355 0.0247527 0)
(0.991275 0.0293965 0)
(0.988772 0.0343086 0)
(0.986077 0.0395735 0)
(0.983256 0.0452706 0)
(0.980355 0.0514766 0)
(0.977459 0.0582581 0)
(0.974627 0.065681 0)
(0.971975 0.0737915 0)
(0.969566 0.0826414 0)
(0.967562 0.0922424 0)
(0.966017 0.102632 0)
(0.965151 0.11376 0)
(0.964975 0.125665 0)
(0.965804 0.138181 0)
(0.967527 0.151408 0)
(0.970628 0.164924 0)
(0.974713 0.179117 0)
(0.980627 0.192891 0)
(0.987314 0.207662 0)
(0.996501 0.220368 0)
(1.00554 0.235823 0)
(0.999991 0.00247796 0)
(0.99954 0.00725009 0)
(0.998668 0.0118339 0)
(0.997433 0.0163207 0)
(0.995874 0.0208055 0)
(0.994035 0.0253792 0)
(0.991951 0.0301307 0)
(0.989673 0.0351442 0)
(0.987242 0.0405012 0)
(0.984726 0.0462756 0)
(0.982172 0.0525389 0)
(0.97967 0.0593494 0)
(0.977279 0.0667656 0)
(0.975117 0.0748216 0)
(0.973248 0.0835598 0)
(0.971826 0.0929756 0)
(0.970905 0.103097 0)
(0.97069 0.113853 0)
(0.971191 0.125276 0)
(0.972687 0.137173 0)
(0.975077 0.149652 0)
(0.978773 0.162255 0)
(0.983424 0.175403 0)
(0.98973 0.187967 0)
(0.996783 0.201398 0)
(1.006 0.212685 0)
(1.01514 0.226514 0)
(0.999992 0.00253249 0)
(0.999576 0.00741514 0)
(0.998773 0.0121061 0)
(0.997637 0.0166991 0)
(0.996207 0.0212882 0)
(0.994529 0.0259629 0)
(0.992639 0.0308103 0)
(0.990589 0.0359114 0)
(0.988424 0.0413439 0)
(0.986212 0.0471762 0)
(0.984005 0.0534743 0)
(0.981892 0.0602879 0)
(0.979935 0.0676681 0)
(0.978249 0.0756373 0)
(0.976897 0.0842291 0)
(0.976028 0.0934234 0)
(0.975693 0.10324 0)
(0.976079 0.11359 0)
(0.977194 0.124501 0)
(0.979281 0.135758 0)
(0.982248 0.147479 0)
(0.986437 0.159182 0)
(0.991541 0.171308 0)
(0.998126 0.182729 0)
(1.00542 0.19489 0)
(1.01456 0.20489 0)
(1.0237 0.217218 0)
(0.999993 0.00258356 0)
(0.999612 0.00756951 0)
(0.998879 0.0123604 0)
(0.997844 0.0170515 0)
(0.996546 0.0217358 0)
(0.995031 0.0265011 0)
(0.993336 0.0314322 0)
(0.991516 0.0366064 0)
(0.989617 0.0420977 0)
(0.987708 0.0479685 0)
(0.985843 0.0542789 0)
(0.984111 0.0610705 0)
(0.982575 0.0683869 0)
(0.981347 0.076239 0)
(0.980489 0.0846525 0)
(0.980139 0.0935932 0)
(0.980348 0.103074 0)
(0.98128 0.11299 0)
(0.982945 0.123368 0)
(0.985546 0.133976 0)
(0.989004 0.144937 0)
(0.993591 0.155763 0)
(0.999045 0.166901 0)
(1.00581 0.17725 0)
(1.01324 0.18822 1.21484e-28)
(1.02224 0.197055 -1.2738e-28)
(1.03128 0.208015 0)
(0.999994 0.00263091 0)
(0.999649 0.00771251 0)
(0.998987 0.0125957 0)
(0.998054 0.0173764 0)
(0.996889 0.0221465 0)
(0.995538 0.0269914 0)
(0.994039 0.0319936 0)
(0.992449 0.0372264 0)
(0.990814 0.0427596 0)
(0.989203 0.0486495 0)
(0.987674 0.0549506 0)
(0.986313 0.0616959 0)
(0.985184 0.0689219 0)
(0.984392 0.0766291 0)
(0.984001 0.0848356 0)
(0.984134 0.093495 0)
(0.984841 0.102614 0)
(0.986264 0.112076 0)
(0.988414 0.121905 0)
(0.991456 0.131862 0)
(0.995321 0.142071 0)
(1.00022 0.15205 0)
(1.00593 0.162241 0)
(1.01279 0.17159 0)
(1.02027 0.181451 0)
(1.02906 0.189236 0)
(1.03793 0.198953 0)
(0.999994 0.00267432 0)
(0.999687 0.00784348 0)
(0.999097 0.0128108 0)
(0.998266 0.0176723 0)
(0.997235 0.0225182 0)
(0.996048 0.0274316 0)
(0.994746 0.0324921 0)
(0.993383 0.0377688 0)
(0.992009 0.0433272 0)
(0.990692 0.0492173 0)
(0.98949 0.055488 0)
(0.988487 0.062164 0)
(0.987747 0.0692752 0)
(0.987368 0.0768122 0)
(0.987413 0.0847862 0)
(0.98799 0.0931409 0)
(0.989149 0.101878 0)
(0.991009 0.110872 0)
(0.99358 0.120144 0)
(0.996993 0.129455 0)
(1.00119 0.138927 0)
(1.00632 0.148093 0)
(1.01221 0.157385 0)
(1.01909 0.165804 0)
(1.02654 0.174641 0)
(1.03507 0.181481 0)
(1.04373 0.190072 0)
(0.999995 0.00271357 0)
(0.999725 0.00796181 0)
(0.999206 0.0130048 0)
(0.998479 0.0179378 0)
(0.997582 0.0228493 0)
(0.996559 0.0278198 0)
(0.995452 0.0329257 0)
(0.994314 0.0382316 0)
(0.993196 0.0437986 0)
(0.992166 0.0496706 0)
(0.991281 0.0558907 0)
(0.990622 0.062476 0)
(0.990251 0.0694497 0)
(0.99026 0.0767941 0)
(0.990708 0.0845141 0)
(0.991691 0.0925452 0)
(0.993255 0.100885 0)
(0.995497 0.109402 0)
(0.998427 0.118117 0)
(1.00214 0.126792 0)
(1.0066 0.13555 0)
(1.01189 0.143942 0)
(1.01788 0.152385 0)
(1.02473 0.159945 0)
(1.03209 0.16784 0)
(1.04033 0.17383 0)
(1.04872 0.181408 0)
(0.999996 0.00274845 0)
(0.999763 0.00806692 0)
(0.999317 0.0131766 0)
(0.998693 0.0181715 0)
(0.997929 0.0231383 0)
(0.997069 0.0281542 0)
(0.996154 0.0332924 0)
(0.995238 0.038613 0)
(0.994371 0.0441725 0)
(0.993619 0.0500088 0)
(0.993039 0.0561592 0)
(0.992707 0.0626339 0)
(0.992685 0.0694499 0)
(0.993054 0.0765821 0)
(0.993872 0.08403 0)
(0.995222 0.0917229 0)
(0.997144 0.0996547 0)
(0.999716 0.107692 0)
(1.00295 0.115855 0)
(1.00691 0.123911 0)
(1.01155 0.13198 0)
(1.01695 0.13964 0)
(1.02297 0.147288 0)
(1.02973 0.154057 4.71903e-29)
(1.03696 0.16109 -4.94904e-29)
(1.04488 0.16632 2.65474e-29)
(1.05298 0.172987 -2.78297e-29)
(0.999997 0.00277878 0)
(0.999801 0.00815828 0)
(0.999427 0.0133254 0)
(0.998906 0.0183725 0)
(0.998274 0.0233839 0)
(0.997576 0.0284334 0)
(0.99685 0.033591 0)
(0.996151 0.038912 0)
(0.995527 0.0444483 0)
(0.995043 0.050232 0)
(0.994754 0.0562951 0)
(0.994732 0.062641 0)
(0.995035 0.0692813 0)
(0.995738 0.0761847 0)
(0.996893 0.0833459 0)
(0.998569 0.0906902 0)
(1.0008 0.0982085 0)
(1.00366 0.105769 0)
(1.00713 0.113388 0)
(1.01128 0.120846 0)
(1.01606 0.128257 0)
(1.0215 0.135227 0)
(1.02751 0.142135 0)
(1.03414 0.148178 0)
(1.04119 0.154427 0)
(1.04877 0.158977 0)
(1.05655 0.164829 0)
(0.999998 0.00280438 0)
(0.999839 0.00823541 0)
(0.999536 0.0134505 0)
(0.999117 0.0185396 0)
(0.998616 0.0235848 0)
(0.998076 0.0286563 0)
(0.997536 0.0338204 0)
(0.997048 0.0391278 0)
(0.996659 0.0446259 0)
(0.996432 0.0503411 0)
(0.99642 0.0563004 0)
(0.996689 0.0625013 0)
(0.997294 0.0689503 0)
(0.998302 0.0756112 0)
(0.999759 0.0824746 0)
(1.00172 0.0894638 0)
(1.00423 0.0965672 0)
(1.00731 0.103656 0)
(1.01099 0.110746 0)
(1.01527 0.117629 0)
(1.02013 0.124415 0)
(1.02557 0.13074 0)
(1.03152 0.136962 0)
(1.03798 0.142342 0)
(1.04482 0.147879 0)
(1.05206 0.151825 0)
(1.05951 0.156948 -6.58389e-30)
(0.999998 0.0028251 0)
(0.999877 0.00829789 0)
(0.999644 0.0135511 0)
(0.999325 0.018672 0)
(0.998954 0.0237401 0)
(0.998568 0.0288218 0)
(0.998209 0.0339798 0)
(0.997924 0.0392602 0)
(0.997762 0.0447057 0)
(0.997779 0.0503377 0)
(0.998028 0.0561782 0)
(0.998568 0.0622197 0)
(0.999452 0.0684642 0)
(1.00074 0.0748717 0)
(1.00246 0.0814297 0)
(1.00468 0.0880607 0)
(1.00741 0.0947516 0)
(1.01069 0.101378 0)
(1.01451 0.107956 0)
(1.01888 0.114291 0)
(1.02377 0.120488 0)
(1.02918 0.126212 0)
(1.03503 0.131801 0)
(1.0413 0.136578 0)
(1.0479 0.141471 0)
(1.05479 0.14488 0)
(1.0619 0.149355 0)
(0.999999 0.00284081 0)
(0.999914 0.00834537 0)
(0.99975 0.0136267 0)
(0.99953 0.0187691 0)
(0.999284 0.0238491 0)
(0.99905 0.0289295 0)
(0.998866 0.0340691 0)
(0.998777 0.0393093 0)
(0.998831 0.0446888 -8.97473e-28)
(0.999079 0.0502239 9.42624e-28)
(0.999572 0.0559322 0)
(1.00036 0.0618019 0)
(1.0015 0.067831 0)
(1.00303 0.073977 0)
(1.005 0.0802248 0)
(1.00743 0.0864978 0)
(1.01035 0.0927821 0)
(1.01377 0.0989595 0)
(1.0177 0.105046 0)
(1.02212 0.11086 0)
(1.02701 0.116504 0)
(1.03234 0.121671 0)
(1.03806 0.126678 0)
(1.04412 0.130908 0)
(1.05047 0.135221 0)
(1.05701 0.138155 0)
(1.06378 0.142054 0)
(1 0.0028514 0)
(0.99995 0.00837755 0)
(0.999854 0.0136769 0)
(0.99973 0.0188304 0)
(0.999607 0.0239114 0)
(0.999519 0.0289791 0)
(0.999503 0.0340882 0)
(0.999602 0.039276 0)
(0.99986 0.0445768 0)
(1.00033 0.0500026 0)
(1.00105 0.0555668 0)
(1.00207 0.0612541 0)
(1.00343 0.0670593 0)
(1.00519 0.0729382 0)
(1.00736 0.0788742 0)
(1.00997 0.0847923 0)
(1.01304 0.0906785 0)
(1.01658 0.096422 0)
(1.02057 0.102038 0)
(1.02501 0.107361 0)
(1.02986 0.112488 0)
(1.03509 0.117141 0)
(1.04066 0.121616 0)
(1.04649 0.125353 0)
(1.05258 0.129144 0)
(1.05877 0.131659 0)
(1.06519 0.135047 0)
(1 0.00285681 0)
(0.999986 0.00839422 0)
(0.999955 0.0137013 0)
(0.999925 0.0188555 0)
(0.999921 0.0239268 0)
(0.999973 0.0289707 0)
(1.00012 0.0340378 0)
(1.0004 0.0391615 0)
(1.00085 0.0443718 0)
(1.00151 0.0496772 0)
(1.00244 0.055087 0)
(1.00368 0.0605833 0)
(1.00525 0.0661582 0)
(1.00719 0.071767 0)
(1.00954 0.0773918 0)
(1.0123 0.0829607 0)
(1.01549 0.0884601 0)
(1.0191 0.0937867 0)
(1.02313 0.0989565 0)
(1.02755 0.103818 0)
(1.03234 0.108465 0)
(1.03744 0.112645 0)
(1.04284 0.116635 0)
(1.04843 0.119927 0)
(1.05425 0.123251 0)
(1.06011 0.125397 0)
(1.06619 0.128334 0)
(1 0.00285696 0)
(1.00002 0.00839526 0)
(1.00005 0.0136998 0)
(1.00011 0.0188443 0)
(1.00022 0.0238954 0)
(1.00041 0.0289045 0)
(1.00071 0.0339186 0)
(1.00115 0.0389672 0)
(1.00178 0.0440765 0)
(1.00264 0.0492515 0)
(1.00376 0.0544983 0)
(1.00518 0.0597969 0)
(1.00693 0.0651372 0)
(1.00905 0.070475 0)
(1.01154 0.0757918 0)
(1.01442 0.0810194 0)
(1.0177 0.0861449 0)
(1.02136 0.0910735 0)
(1.02539 0.0958214 0)
(1.02977 0.100252 0)
(1.03446 0.104454 0)
(1.03942 0.108201 0)
(1.04463 0.11175 0)
(1.04998 0.114643 0)
(1.05553 0.11755 0)
(1.06106 0.119372 0)
(1.0668 0.121911 0)
(1 0.00285184 0)
(1.00005 0.00838061 0)
(1.00015 0.0136723 0)
(1.00029 0.0187969 0)
(1.00051 0.0238173 0)
(1.00083 0.0287813 0)
(1.00127 0.0337321 0)
(1.00187 0.0386955 0)
(1.00267 0.0436941 0)
(1.0037 0.04873 4.55328e-28)
(1.00499 0.0538067 -4.78213e-28)
(1.00658 0.0589025 0)
(1.00849 0.0640061 0)
(1.01075 0.069074 0)
(1.01336 0.0740879 0)
(1.01633 0.0789839 0)
(1.01967 0.0837503 0)
(1.02334 0.0883007 0)
(1.02736 0.0926519 0)
(1.03167 0.096681 0)
(1.03626 0.100473 0)
(1.04105 0.103825 0)
(1.04607 0.106975 0)
(1.05118 0.10951 0)
(1.05645 0.112046 -1.00187e-29)
(1.06166 0.113584 1.05048e-29)
(1.06708 0.115773 0)
(1 0.00284145 0)
(1.00009 0.0083503 0)
(1.00024 0.013619 0)
(1.00047 0.0187137 0)
(1.00079 0.0236933 0)
(1.00123 0.0286022 0)
(1.0018 0.0334798 0)
(1.00255 0.0383486 0)
(1.00351 0.0432281 0)
(1.00469 0.0481177 0)
(1.00614 0.0530185 0)
(1.00787 0.0579083 0)
(1.00992 0.0627747 0)
(1.01229 0.0675756 0)
(1.015 0.0722936 0)
(1.01804 0.0768692 0)
(1.0214 0.0812925 0)
(1.02508 0.0854852 0)
(1.02905 0.0894649 0)
(1.03327 0.0931218 0)
(1.03774 0.0965376 0)
(1.04237 0.0995289 0)
(1.04718 0.10232 0)
(1.05204 0.104535 0)
(1.05705 0.106742 0)
(1.06194 0.108032 0)
(1.06706 0.109913 0)
(1 0.00282583 0)
(1.00012 0.00830445 0)
(1.00032 0.0135402 0)
(1.00063 0.018595 0)
(1.00105 0.0235242 0)
(1.0016 0.0283685 0)
(1.00231 0.0331638 0)
(1.00319 0.0379296 0)
(1.00428 0.0426824 0)
(1.00561 0.0474196 0)
(1.00719 0.0521405 0)
(1.00906 0.0568226 0)
(1.01122 0.0614528 0)
(1.01368 0.0659915 0)
(1.01646 0.070422 0)
(1.01954 0.0746897 0)
(1.02292 0.0787867 0)
(1.02657 0.0826425 0)
(1.03048 0.0862759 0)
(1.0346 0.089589 0)
(1.03892 0.0926599 0)
(1.04338 0.095325 0)
(1.04798 0.0977918 0)
(1.0526 0.0997225 0)
(1.05735 0.101638 0)
(1.06195 0.102713 -2.80916e-30)
(1.06676 0.104325 2.94478e-30)
(1 0.00280502 0)
(1.00014 0.00824326 0)
(1.00041 0.0134361 0)
(1.00079 0.0184415 0)
(1.0013 0.0233109 0)
(1.00195 0.0280817 0)
(1.00278 0.0327864 0)
(1.00378 0.0374417 0)
(1.005 0.0420614 0)
(1.00645 0.0466415 0)
(1.00816 0.0511797 0)
(1.01013 0.0556536 0)
(1.01238 0.0600505 -5.35073e-28)
(1.01492 0.0643328 5.61871e-28)
(1.01775 0.0684854 0)
(1.02085 0.0724588 0)
(1.02421 0.0762468 0)
(1.02782 0.0797867 0)
(1.03165 0.0830983 0)
(1.03566 0.0860951 0)
(1.03984 0.0888513 0)
(1.04411 0.0912213 0)
(1.04851 0.0933976 0)
(1.05289 0.0950761 -5.71534e-30)
(1.05738 0.0967336 5.99381e-30)
(1.0617 0.0976225 0)
(1.06622 0.0989985 0)
(1 0.00277914 0)
(1.00017 0.00816703 0)
(1.00048 0.0133075 0)
(1.00093 0.0182542 0)
(1.00153 0.023055 0)
(1.00228 0.0277439 0)
(1.00321 0.0323503 0)
(1.00433 0.0368884 0)
(1.00566 0.0413696 0)
(1.00722 0.045789 0)
(1.00903 0.050143 0)
(1.01109 0.0544099 0)
(1.01342 0.0585773 0)
(1.01601 0.0626105 0)
(1.01886 0.0664959 0)
(1.02197 0.070189 0)
(1.02531 0.0736856 0)
(1.02885 0.0769307 0)
(1.03259 0.0799444 0)
(1.03648 0.0826509 0)
(1.0405 0.0851209 0)
(1.04459 0.087225 0)
(1.04878 0.0891414 0)
(1.05293 0.0905966 0)
(1.05717 0.0920271 0)
(1.06122 0.0927551 0)
(1.06547 0.093926 1.73667e-29)
(1 0.00274829 0)
(1.0002 0.00807614 0)
(1.00055 0.0131548 0)
(1.00107 0.018034 0)
(1.00174 0.0227578 0)
(1.00258 0.0273572 0)
(1.00361 0.0318584 0)
(1.00483 0.0362735 0)
(1.00626 0.0406121 0)
(1.00791 0.0448681 0)
(1.00981 0.0490376 0)
(1.01194 0.0530998 0)
(1.01432 0.0570429 0)
(1.01695 0.0608351 0)
(1.01982 0.0644647 0)
(1.0229 0.067892 0)
(1.0262 0.0711151 0)
(1.02967 0.0740856 0)
(1.03331 0.0768247 0)
(1.03707 0.0792657 0)
(1.04093 0.0814762 0)
(1.04484 0.0833412 0)
(1.04882 0.0850259 0)
(1.05275 0.086284 0)
(1.05675 0.0875152 0)
(1.06055 0.0881048 0)
(1.06453 0.0890976 0)
(1.00001 0.00271263 0)
(1.00022 0.00797103 0)
(1.00062 0.0129791 0)
(1.00119 0.0177823 0)
(1.00194 0.0224213 0)
(1.00286 0.026924 0)
(1.00397 0.0313139 0)
(1.00528 0.0356012 0)
(1.00679 0.0397937 0)
(1.00853 0.0438851 0)
(1.01049 0.0478709 0)
(1.01268 0.0517316 0)
(1.01511 0.0554564 0)
(1.01775 0.0590166 0)
(1.02061 0.0624023 0)
(1.02367 0.0655788 0)
(1.02691 0.0685459 0)
(1.0303 0.0712618 0)
(1.03382 0.0737482 0)
(1.03744 0.0759473 0)
(1.04115 0.0779232 0)
(1.04488 0.0795739 0)
(1.04866 0.0810524 0)
(1.05236 0.0821371 0)
(1.05613 0.0831938 0)
(1.05969 0.0836651 0)
(1.06343 0.0845035 0)
(1.00001 0.00267234 0)
(1.00024 0.00785226 0)
(1.00068 0.0127811 0)
(1.0013 0.0175005 0)
(1.00211 0.0220473 0)
(1.00311 0.0264469 0)
(1.00429 0.0307202 0)
(1.00568 0.0348756 0)
(1.00727 0.0389198 0)
(1.00907 0.0428461 0)
(1.01109 0.04665 0)
(1.01332 0.0503134 0)
(1.01577 0.0538268 0)
(1.01841 0.0571645 0)
(1.02125 0.0603187 -4.6628e-28)
(1.02427 0.0632591 4.89561e-28)
(1.02744 0.0659875 0)
(1.03074 0.0684681 0)
(1.03415 0.070723 0)
(1.03762 0.0727021 0)
(1.04117 0.0744664 0)
(1.04472 0.0759257 0)
(1.0483 0.0772212 0)
(1.0518 0.078154 0)
(1.05535 0.0790583 0)
(1.05868 0.0794289 0)
(1.06218 0.080134 0)
(1.00001 0.00262761 0)
(1.00026 0.00772044 0)
(1.00073 0.012562 0)
(1.00141 0.01719 0)
(1.00227 0.0216381 0)
(1.00333 0.0259288 0)
(1.00458 0.0300808 0)
(1.00603 0.0341014 0)
(1.00768 0.0379957 0)
(1.00953 0.0417573 0)
(1.01159 0.0453819 0)
(1.01385 0.0488532 0)
(1.01631 0.0521626 0)
(1.01894 0.0552879 0)
(1.02175 0.058223 0)
(1.02471 0.060942 0)
(1.02781 0.0634486 0)
(1.031 0.0657123 0)
(1.03429 0.0677556 0)
(1.03763 0.0695354 0)
(1.04101 0.0711094 0)
(1.04438 0.072398 0)
(1.04778 0.0735318 0)
(1.05107 0.0743317 0)
(1.05441 0.0751034 0)
(1.05753 0.0753888 0)
(1.06081 0.0759792 0)
(1.00001 0.00257868 0)
(1.00028 0.00757624 0)
(1.00078 0.0123229 0)
(1.0015 0.0168527 0)
(1.00241 0.0211959 0)
(1.00352 0.0253727 0)
(1.00483 0.0293997 0)
(1.00633 0.0332829 0)
(1.00803 0.0370267 0)
(1.00993 0.040625 0)
(1.01201 0.0440738 0)
(1.01429 0.0473584 0)
(1.01674 0.050472 0)
(1.01935 0.0533951 0)
(1.02212 0.0561236 0)
(1.02501 0.0586358 0)
(1.02802 0.0609369 0)
(1.03111 0.0630012 0)
(1.03428 0.0648517 0)
(1.03747 0.0664512 0)
(1.0407 0.0678545 0)
(1.04389 0.0689915 0)
(1.0471 0.0699825 0)
(1.05021 0.0706667 0)
(1.05335 0.0713234 2.74689e-32)
(1.05626 0.0715372 -2.88012e-32)
(1.05934 0.0720293 0)
(1.00001 0.00252579 0)
(1.00029 0.00742042 0)
(1.00082 0.0120652 0)
(1.00157 0.0164904 0)
(1.00253 0.0207232 0)
(1.00369 0.0247817 0)
(1.00505 0.0286805 0)
(1.00659 0.0324248 0)
(1.00833 0.0360183 0)
(1.01025 0.0394552 0)
(1.01235 0.0427323 0)
(1.01462 0.0458366 0)
(1.01706 0.0487626 0)
(1.01964 0.0514939 0)
(1.02235 0.0540284 0)
(1.02518 0.0563478 0)
(1.02809 0.0584589 0)
(1.03108 0.0603406 0)
(1.03411 0.0620157 0)
(1.03716 0.0634527 0)
(1.04023 0.0647034 0)
(1.04326 0.0657059 0)
(1.0463 0.0665714 0)
(1.04922 0.0671552 0)
(1.05217 0.0677124 0)
(1.05489 0.0678664 0)
(1.05777 0.0682745 0)
(1.00001 0.00246921 0)
(1.0003 0.00725379 0)
(1.00086 0.0117901 0)
(1.00164 0.0161049 0)
(1.00264 0.0202226 0)
(1.00383 0.0241591 0)
(1.00522 0.0279274 0)
(1.0068 0.0315318 0)
(1.00856 0.0349757 0)
(1.0105 0.038254 0)
(1.01261 0.041364 0)
(1.01487 0.0442945 0)
(1.01728 0.0470417 0)
(1.01982 0.0495917 0)
(1.02247 0.0519443 0)
(1.02521 0.0540845 0)
(1.02804 0.0560206 0)
(1.0309 0.0577353 0)
(1.03381 0.0592515 0)
(1.03672 0.0605423 0)
(1.03964 0.0616568 0)
(1.04251 0.0625404 0)
(1.04537 0.0632958 0)
(1.04812 0.0637927 0)
(1.05089 0.0642643 0)
(1.05344 0.0643688 -6.23778e-30)
(1.05613 0.0647055 6.53882e-30)
(1.00001 0.00240922 0)
(1.00032 0.00707719 0)
(1.00089 0.011499 0)
(1.0017 0.0156984 0)