/*--------------------------------*- C++ -*----------------------------------*\
  =========                 |
  \\      /  F ield         | OpenFOAM: The Open Source CFD Toolbox
   \\    /   O peration     | Website:  https://openfoam.org
    \\  /    A nd           | Version:  7
     \\/     M anipulation  |
\*---------------------------------------------------------------------------*/
FoamFile
{
    version     2.0;
    format      ascii;
    class       volScalarField;
    location    "60";
    object      p;
}
// * * * * * * * * * * * * * * * * * * * * * * * * * * * * * * * * * * * * * //

dimensions      [0 2 -2 0 0 0 0];

internalField   nonuniform List<scalar> 
36600
(
-0.263829
-0.264781
-0.265357
-0.265853
-0.266285
-0.266655
-0.266979
-0.267266
-0.267525
-0.267763
-0.267983
-0.268191
-0.268387
-0.268575
-0.268759
-0.26894
-0.269124
-0.269323
-0.269505
-0.269666
-0.263587
-0.264552
-0.265136
-0.265637
-0.266073
-0.266444
-0.266767
-0.267052
-0.267306
-0.267537
-0.267748
-0.267943
-0.268123
-0.268291
-0.26845
-0.268603
-0.268753
-0.268911
-0.269047
-0.269151
-0.263385
-0.264362
-0.264952
-0.265457
-0.265894
-0.266266
-0.266587
-0.266868
-0.267116
-0.267339
-0.267538
-0.267718
-0.267881
-0.268027
-0.268161
-0.268283
-0.268397
-0.268514
-0.268601
-0.268647
-0.263224
-0.264211
-0.264806
-0.265313
-0.265751
-0.266122
-0.266439
-0.266715
-0.266956
-0.267168
-0.267355
-0.267519
-0.267662
-0.267785
-0.267891
-0.267981
-0.268058
-0.268133
-0.268171
-0.268156
-0.263107
-0.264101
-0.264698
-0.265206
-0.265644
-0.266011
-0.266325
-0.266594
-0.266826
-0.267026
-0.267199
-0.267345
-0.267467
-0.267565
-0.267642
-0.267698
-0.267737
-0.26777
-0.267758
-0.26768
-0.263032
-0.264032
-0.26463
-0.265138
-0.265573
-0.265937
-0.266244
-0.266505
-0.266726
-0.266914
-0.26707
-0.267198
-0.267297
-0.267369
-0.267415
-0.267436
-0.267435
-0.267425
-0.267363
-0.267221
-0.263002
-0.264004
-0.264602
-0.265108
-0.26554
-0.265898
-0.266198
-0.266449
-0.266659
-0.266832
-0.266971
-0.267078
-0.267152
-0.267196
-0.26721
-0.267194
-0.267153
-0.267099
-0.266986
-0.26678
-0.263016
-0.264018
-0.264615
-0.265117
-0.265544
-0.265896
-0.266187
-0.266427
-0.266623
-0.26678
-0.266901
-0.266985
-0.267034
-0.267048
-0.267028
-0.266974
-0.26689
-0.266792
-0.266628
-0.266356
-0.263076
-0.264076
-0.264669
-0.265167
-0.265587
-0.26593
-0.266211
-0.266439
-0.26662
-0.26676
-0.266859
-0.26692
-0.266941
-0.266924
-0.266868
-0.266775
-0.266647
-0.266504
-0.266289
-0.26595
-0.26318
-0.264176
-0.264765
-0.265256
-0.265669
-0.266002
-0.266271
-0.266485
-0.26665
-0.266771
-0.266848
-0.266883
-0.266875
-0.266824
-0.266731
-0.266596
-0.266423
-0.266234
-0.265968
-0.26556
-0.26333
-0.26432
-0.264902
-0.265386
-0.265789
-0.266111
-0.266367
-0.266566
-0.266713
-0.266813
-0.266866
-0.266874
-0.266834
-0.266748
-0.266615
-0.266437
-0.266218
-0.265981
-0.265664
-0.265186
-0.263526
-0.264507
-0.265082
-0.265557
-0.265949
-0.266259
-0.2665
-0.266681
-0.266809
-0.266886
-0.266914
-0.266892
-0.26682
-0.266696
-0.266521
-0.266297
-0.266029
-0.265744
-0.265375
-0.264825
-0.263768
-0.264739
-0.265305
-0.265769
-0.266148
-0.266444
-0.266668
-0.266831
-0.266937
-0.266991
-0.266991
-0.266938
-0.266831
-0.266667
-0.266448
-0.266176
-0.265856
-0.265522
-0.2651
-0.264476
-0.264055
-0.265014
-0.265569
-0.266021
-0.266387
-0.266666
-0.266873
-0.267016
-0.267099
-0.267126
-0.267098
-0.267012
-0.266867
-0.266661
-0.266395
-0.266072
-0.265698
-0.265311
-0.264836
-0.264134
-0.264389
-0.265333
-0.265876
-0.266315
-0.266665
-0.266927
-0.267114
-0.267235
-0.267294
-0.267293
-0.267234
-0.267113
-0.266928
-0.266677
-0.266362
-0.265984
-0.265552
-0.26511
-0.264581
-0.263794
-0.264768
-0.265696
-0.266226
-0.26665
-0.266983
-0.267226
-0.267391
-0.267488
-0.267521
-0.267491
-0.267399
-0.26724
-0.267014
-0.266716
-0.266347
-0.26591
-0.265416
-0.264915
-0.26433
-0.263451
-0.265193
-0.266103
-0.266619
-0.267025
-0.26734
-0.267562
-0.267704
-0.267776
-0.267781
-0.26772
-0.267593
-0.267395
-0.267124
-0.266776
-0.26635
-0.265851
-0.26529
-0.264725
-0.264081
-0.263097
-0.265664
-0.266554
-0.267053
-0.267442
-0.267736
-0.267935
-0.268053
-0.268098
-0.268073
-0.267979
-0.267815
-0.267577
-0.267259
-0.266857
-0.266372
-0.265805
-0.265171
-0.264535
-0.263831
-0.262726
-0.266181
-0.267049
-0.26753
-0.267899
-0.268171
-0.268346
-0.268437
-0.268453
-0.268397
-0.268269
-0.268066
-0.267785
-0.267418
-0.26696
-0.266411
-0.265772
-0.265058
-0.264344
-0.263577
-0.262326
-0.266743
-0.267588
-0.26805
-0.268397
-0.268644
-0.268793
-0.268857
-0.268842
-0.268752
-0.268588
-0.268346
-0.26802
-0.267602
-0.267085
-0.266468
-0.265752
-0.264951
-0.264149
-0.263316
-0.261871
-0.267352
-0.268171
-0.268612
-0.268935
-0.269157
-0.269278
-0.269311
-0.269264
-0.26914
-0.268938
-0.268654
-0.268281
-0.26781
-0.267232
-0.266544
-0.265745
-0.264849
-0.26395
-0.263054
-0.261325
-0.268007
-0.268798
-0.269216
-0.269514
-0.269707
-0.269798
-0.2698
-0.269718
-0.269558
-0.269317
-0.26899
-0.26857
-0.268044
-0.267403
-0.266639
-0.265753
-0.264754
-0.263748
-0.262805
-0.260766
-0.268708
-0.269469
-0.269862
-0.270132
-0.270296
-0.270355
-0.270322
-0.270205
-0.270007
-0.269725
-0.269355
-0.268885
-0.268303
-0.267596
-0.266754
-0.265775
-0.264666
-0.263536
-0.262456
-0.260332
-0.269456
-0.270185
-0.27055
-0.270791
-0.270923
-0.270948
-0.270879
-0.270724
-0.270485
-0.270162
-0.269746
-0.269227
-0.268588
-0.267814
-0.266892
-0.265815
-0.264589
-0.263331
-0.262078
-0.259818
-0.27025
-0.270944
-0.271281
-0.27149
-0.271587
-0.271575
-0.271468
-0.271273
-0.270993
-0.270627
-0.270165
-0.269595
-0.268899
-0.268057
-0.267053
-0.265874
-0.264522
-0.263123
-0.261699
-0.259205
-0.271092
-0.271749
-0.272055
-0.272229
-0.272289
-0.272238
-0.27209
-0.271853
-0.27153
-0.271119
-0.27061
-0.269988
-0.269235
-0.268325
-0.267238
-0.265955
-0.26447
-0.262914
-0.261311
-0.258506
-0.271981
-0.272598
-0.272871
-0.273009
-0.273028
-0.272935
-0.272744
-0.272462
-0.272094
-0.271637
-0.271079
-0.270407
-0.269595
-0.268619
-0.267448
-0.266059
-0.264435
-0.262708
-0.260913
-0.257723
-0.272919
-0.273493
-0.27373
-0.273828
-0.273805
-0.273667
-0.273429
-0.273101
-0.272685
-0.272179
-0.271573
-0.270848
-0.26998
-0.268936
-0.267683
-0.266188
-0.264421
-0.26251
-0.260509
-0.25685
-0.273905
-0.274434
-0.274632
-0.274688
-0.274619
-0.274433
-0.274145
-0.273767
-0.273301
-0.272745
-0.272088
-0.271311
-0.270386
-0.269277
-0.267943
-0.266342
-0.264429
-0.262323
-0.260105
-0.255886
-0.274942
-0.275423
-0.275579
-0.275589
-0.27547
-0.275232
-0.274892
-0.27446
-0.273942
-0.273333
-0.272624
-0.271794
-0.270812
-0.269638
-0.268225
-0.266521
-0.264463
-0.262151
-0.259707
-0.254832
-0.276029
-0.276459
-0.276571
-0.276531
-0.276359
-0.276066
-0.275668
-0.27518
-0.274605
-0.273942
-0.273178
-0.272293
-0.271254
-0.270017
-0.268527
-0.266722
-0.264521
-0.261997
-0.259322
-0.25369
-0.277168
-0.277544
-0.277609
-0.277516
-0.277286
-0.276933
-0.276475
-0.275925
-0.27529
-0.274568
-0.273748
-0.272806
-0.271709
-0.270409
-0.268845
-0.266944
-0.264602
-0.261863
-0.258956
-0.252468
-0.278362
-0.27868
-0.278694
-0.278544
-0.278253
-0.277835
-0.277311
-0.276696
-0.275997
-0.275212
-0.274331
-0.273331
-0.272175
-0.270813
-0.269176
-0.267182
-0.264705
-0.261751
-0.25861
-0.251179
-0.279611
-0.279868
-0.279828
-0.279617
-0.279259
-0.278772
-0.278177
-0.277492
-0.276724
-0.275873
-0.274928
-0.273865
-0.272649
-0.271223
-0.269515
-0.267434
-0.264828
-0.261664
-0.258285
-0.249847
-0.280918
-0.281111
-0.281012
-0.280736
-0.280307
-0.279745
-0.279075
-0.278314
-0.277471
-0.276549
-0.275535
-0.274407
-0.273127
-0.271638
-0.269861
-0.267698
-0.264972
-0.261614
-0.257988
-0.248528
-0.282286
-0.282411
-0.28225
-0.281903
-0.281397
-0.280756
-0.280004
-0.279162
-0.27824
-0.277241
-0.276154
-0.274956
-0.27361
-0.272055
-0.270213
-0.267975
-0.265141
-0.26162
-0.257733
-0.247331
-0.283718
-0.283771
-0.283543
-0.283121
-0.282533
-0.281806
-0.280967
-0.280037
-0.279031
-0.277949
-0.276784
-0.275513
-0.274097
-0.272477
-0.270572
-0.268271
-0.265345
-0.261711
-0.257507
-0.246304
-0.285218
-0.285194
-0.284896
-0.284393
-0.283717
-0.282898
-0.281965
-0.280943
-0.279845
-0.278676
-0.277428
-0.276078
-0.27459
-0.272906
-0.270944
-0.268598
-0.265613
-0.261954
-0.257225
-0.245131
-0.28679
-0.286685
-0.28631
-0.285721
-0.284951
-0.284034
-0.283003
-0.281881
-0.280687
-0.279424
-0.278087
-0.276655
-0.275092
-0.273344
-0.271336
-0.268973
-0.266003
-0.262522
-0.257047
-0.243947
-0.288438
-0.288246
-0.287791
-0.28711
-0.28624
-0.285219
-0.284082
-0.282856
-0.281558
-0.280197
-0.278767
-0.277248
-0.275608
-0.273797
-0.271752
-0.269406
-0.266556
-0.263589
-0.258042
-0.248186
-0.290168
-0.289884
-0.289342
-0.288563
-0.287587
-0.286456
-0.285207
-0.28387
-0.282465
-0.281
-0.279472
-0.277862
-0.276141
-0.274268
-0.272192
-0.269884
-0.26721
-0.264913
-0.260823
-0.269133
-0.291985
-0.291602
-0.290968
-0.290085
-0.288997
-0.28775
-0.286384
-0.28493
-0.283411
-0.281838
-0.280207
-0.278502
-0.276698
-0.274759
-0.27265
-0.27038
-0.267866
-0.266151
-0.262765
-0.27419
-0.293895
-0.293407
-0.292675
-0.291681
-0.290475
-0.289106
-0.287616
-0.28604
-0.284403
-0.282716
-0.280978
-0.279175
-0.277283
-0.275274
-0.273125
-0.270873
-0.268463
-0.267077
-0.263876
-0.274957
-0.295905
-0.295303
-0.294467
-0.293357
-0.292026
-0.290528
-0.288909
-0.287207
-0.285447
-0.283643
-0.281793
-0.279887
-0.277902
-0.275814
-0.273612
-0.271351
-0.268979
-0.267707
-0.264526
-0.274593
-0.298022
-0.297298
-0.29635
-0.295117
-0.293655
-0.292023
-0.290271
-0.288437
-0.28655
-0.284624
-0.282659
-0.280644
-0.278559
-0.276384
-0.274109
-0.271803
-0.269405
-0.268076
-0.264791
-0.273349
-0.300252
-0.299396
-0.298331
-0.296968
-0.295369
-0.293598
-0.291707
-0.289737
-0.287719
-0.285667
-0.283582
-0.281453
-0.27926
-0.276983
-0.274615
-0.272223
-0.269735
-0.268208
-0.26472
-0.271497
-0.302602
-0.301605
-0.300415
-0.298916
-0.297173
-0.295258
-0.293223
-0.291114
-0.288962
-0.28678
-0.28457
-0.282319
-0.280007
-0.277614
-0.275127
-0.272606
-0.269966
-0.268133
-0.264375
-0.269304
-0.30508
-0.303931
-0.302609
-0.300966
-0.299075
-0.297009
-0.294828
-0.292576
-0.290284
-0.287968
-0.285627
-0.283247
-0.280805
-0.278275
-0.275641
-0.272949
-0.270101
-0.26788
-0.263811
-0.266947
-0.307693
-0.30638
-0.304918
-0.303126
-0.301079
-0.29886
-0.296527
-0.294128
-0.291694
-0.289239
-0.286761
-0.284241
-0.281653
-0.278966
-0.276155
-0.27325
-0.270142
-0.26748
-0.263073
-0.26454
-0.310447
-0.308959
-0.307349
-0.305401
-0.303194
-0.300816
-0.298328
-0.295778
-0.293198
-0.290598
-0.287974
-0.285303
-0.282551
-0.279683
-0.276664
-0.273506
-0.270096
-0.266957
-0.262195
-0.262151
-0.31335
-0.311673
-0.309908
-0.307797
-0.305425
-0.302884
-0.300237
-0.297533
-0.294801
-0.292051
-0.289271
-0.286434
-0.2835
-0.280424
-0.277163
-0.273715
-0.269965
-0.266331
-0.261207
-0.259821
-0.316406
-0.314528
-0.3126
-0.31032
-0.307777
-0.30507
-0.30226
-0.299398
-0.29651
-0.293601
-0.290654
-0.287635
-0.284495
-0.281183
-0.277649
-0.273876
-0.269755
-0.265618
-0.260127
-0.25757
-0.319622
-0.317529
-0.31543
-0.312976
-0.310258
-0.30738
-0.304404
-0.301379
-0.298328
-0.295251
-0.292123
-0.288902
-0.285532
-0.281955
-0.278114
-0.273985
-0.269468
-0.264829
-0.258972
-0.255401
-0.323002
-0.320681
-0.318405
-0.31577
-0.312872
-0.309819
-0.306674
-0.303481
-0.30026
-0.297002
-0.293677
-0.290233
-0.286606
-0.282732
-0.278552
-0.274038
-0.269107
-0.263973
-0.257751
-0.253311
-0.326551
-0.323988
-0.321527
-0.318706
-0.315624
-0.312393
-0.309074
-0.305708
-0.302306
-0.298855
-0.295314
-0.291621
-0.287708
-0.283506
-0.278956
-0.274033
-0.268671
-0.263053
-0.256473
-0.251287
-0.330272
-0.327454
-0.3248
-0.321789
-0.318519
-0.315106
-0.311608
-0.308061
-0.304469
-0.300808
-0.297028
-0.29306
-0.28883
-0.284267
-0.279318
-0.273964
-0.26816
-0.262071
-0.25514
-0.249316
-0.334167
-0.33108
-0.328229
-0.325021
-0.321559
-0.317961
-0.314279
-0.310542
-0.306746
-0.302857
-0.298814
-0.294541
-0.28996
-0.285005
-0.279629
-0.273827
-0.267574
-0.261027
-0.253752
-0.24738
-0.338237
-0.334869
-0.331813
-0.328406
-0.324749
-0.32096
-0.317088
-0.313151
-0.309136
-0.304996
-0.300662
-0.296052
-0.291088
-0.285708
-0.279881
-0.273614
-0.26691
-0.25992
-0.25231
-0.245462
-0.342482
-0.338821
-0.335555
-0.331944
-0.328088
-0.324105
-0.320034
-0.315885
-0.311633
-0.307218
-0.302563
-0.297582
-0.2922
-0.286366
-0.280064
-0.273321
-0.266164
-0.258745
-0.25081
-0.243545
-0.346901
-0.342935
-0.339455
-0.335637
-0.331578
-0.327395
-0.323117
-0.318741
-0.31423
-0.309513
-0.304504
-0.299116
-0.293281
-0.286965
-0.28017
-0.272942
-0.265333
-0.257499
-0.249247
-0.241613
-0.35149
-0.347209
-0.343511
-0.339483
-0.335218
-0.330828
-0.326332
-0.321713
-0.316919
-0.311868
-0.306469
-0.300638
-0.294319
-0.287493
-0.280187
-0.27247
-0.264413
-0.256177
-0.247618
-0.239651
-0.356245
-0.35164
-0.34772
-0.34348
-0.339005
-0.334402
-0.329675
-0.324792
-0.319687
-0.314269
-0.308444
-0.302133
-0.295296
-0.287938
-0.280109
-0.271898
-0.263399
-0.254774
-0.245917
-0.237644
-0.36116
-0.356222
-0.352078
-0.347624
-0.342934
-0.33811
-0.333136
-0.327967
-0.322522
-0.3167
-0.310409
-0.303582
-0.296198
-0.288286
-0.279924
-0.27122
-0.262286
-0.253284
-0.244138
-0.235581
-0.366226
-0.360949
-0.35658
-0.35191
-0.347001
-0.341944
-0.336707
-0.331226
-0.325406
-0.319142
-0.312346
-0.304968
-0.297009
-0.288527
-0.279624
-0.270429
-0.261069
-0.251701
-0.242274
-0.23345
-0.371434
-0.365812
-0.361217
-0.356329
-0.351195
-0.345894
-0.340374
-0.334552
-0.328321
-0.321575
-0.314235
-0.306271
-0.297712
-0.288646
-0.2792
-0.269519
-0.259741
-0.250019
-0.240319
-0.23124
-0.376771
-0.370801
-0.36598
-0.360873
-0.355508
-0.349949
-0.344122
-0.337927
-0.331247
-0.323978
-0.316054
-0.307473
-0.298293
-0.288633
-0.278643
-0.268483
-0.258296
-0.248232
-0.238268
-0.228944
-0.382223
-0.375904
-0.370858
-0.365529
-0.359926
-0.354093
-0.347934
-0.341331
-0.334161
-0.326326
-0.317782
-0.308554
-0.298737
-0.288476
-0.277944
-0.267313
-0.256729
-0.246332
-0.236112
-0.226551
-0.387773
-0.381104
-0.375835
-0.370283
-0.364432
-0.358308
-0.351788
-0.344739
-0.337037
-0.328596
-0.319395
-0.309496
-0.299027
-0.288163
-0.277095
-0.266002
-0.255032
-0.244315
-0.233846
-0.224055
-0.393403
-0.386386
-0.380896
-0.375119
-0.369011
-0.362573
-0.355661
-0.348128
-0.339851
-0.330761
-0.320872
-0.31028
-0.29915
-0.287683
-0.276086
-0.264542
-0.253199
-0.242171
-0.231462
-0.221447
-0.399092
-0.391731
-0.386022
-0.380017
-0.373639
-0.366866
-0.359528
-0.351469
-0.342573
-0.332797
-0.32219
-0.310888
-0.299091
-0.287025
-0.274909
-0.262927
-0.251222
-0.239895
-0.228955
-0.218721
-0.404815
-0.397116
-0.391193
-0.384957
-0.378295
-0.37116
-0.363361
-0.354733
-0.345177
-0.334677
-0.323326
-0.311301
-0.298836
-0.286178
-0.273555
-0.261149
-0.249094
-0.23748
-0.226316
-0.21587
-0.410548
-0.402518
-0.396384
-0.389913
-0.382953
-0.375429
-0.367129
-0.35789
-0.347631
-0.336375
-0.324259
-0.311502
-0.298371
-0.285132
-0.272015
-0.259199
-0.246808
-0.234917
-0.223539
-0.212887
-0.416261
-0.40791
-0.40157
-0.394859
-0.387583
-0.379639
-0.3708
-0.360907
-0.349907
-0.337865
-0.324966
-0.311474
-0.297684
-0.283875
-0.27028
-0.257069
-0.244357
-0.232201
-0.220618
-0.209766
-0.421925
-0.413265
-0.406722
-0.399765
-0.392154
-0.38376
-0.374341
-0.363752
-0.351973
-0.339121
-0.325428
-0.311202
-0.296762
-0.282398
-0.268341
-0.254751
-0.241731
-0.229324
-0.217546
-0.206502
-0.427506
-0.41855
-0.41181
-0.4046
-0.396633
-0.387755
-0.377716
-0.366391
-0.353801
-0.340117
-0.325624
-0.310668
-0.295591
-0.28069
-0.266189
-0.252238
-0.238924
-0.226278
-0.214315
-0.203087
-0.43297
-0.423734
-0.4168
-0.409329
-0.400984
-0.391588
-0.38089
-0.36879
-0.355361
-0.340829
-0.325534
-0.309858
-0.294161
-0.278741
-0.263815
-0.24952
-0.235929
-0.223056
-0.21092
-0.199516
-0.43828
-0.428781
-0.421658
-0.413917
-0.405171
-0.395222
-0.383825
-0.370916
-0.356622
-0.341234
-0.32514
-0.308757
-0.292458
-0.276541
-0.261211
-0.24659
-0.232736
-0.219652
-0.207354
-0.195784
-0.443399
-0.433655
-0.426347
-0.418325
-0.409153
-0.398617
-0.386484
-0.372734
-0.357558
-0.341308
-0.324424
-0.30735
-0.290472
-0.27408
-0.258367
-0.243439
-0.229339
-0.216058
-0.20361
-0.191885
-0.448285
-0.438317
-0.430827
-0.422514
-0.412891
-0.401733
-0.388829
-0.374212
-0.35814
-0.341029
-0.323368
-0.305625
-0.288191
-0.271349
-0.255275
-0.240059
-0.225731
-0.212269
-0.199683
-0.187815
-0.452899
-0.442728
-0.435059
-0.426443
-0.416343
-0.404531
-0.390824
-0.375318
-0.358342
-0.340377
-0.321956
-0.303568
-0.285605
-0.268337
-0.251925
-0.236443
-0.221904
-0.208276
-0.195566
-0.183567
-0.457198
-0.446846
-0.439002
-0.43007
-0.419468
-0.40697
-0.392433
-0.376021
-0.358139
-0.339332
-0.320173
-0.301167
-0.282703
-0.265036
-0.24831
-0.232582
-0.217851
-0.204075
-0.191255
-0.179138
-0.461138
-0.450629
-0.442613
-0.433352
-0.422223
-0.40901
-0.39362
-0.37629
-0.357506
-0.337875
-0.318004
-0.29841
-0.279474
-0.261437
-0.244422
-0.22847
-0.213565
-0.199658
-0.186743
-0.174522
-0.464677
-0.454035
-0.445849
-0.436246
-0.424566
-0.410612
-0.39435
-0.376098
-0.356423
-0.335989
-0.315436
-0.295287
-0.27591
-0.257531
-0.240252
-0.224099
-0.209041
-0.195021
-0.182026
-0.169717
-0.467771
-0.457021
-0.448667
-0.438708
-0.426456
-0.411739
-0.394591
-0.375418
-0.354867
-0.333658
-0.312456
-0.291785
-0.272002
-0.25331
-0.235794
-0.219463
-0.204272
-0.190159
-0.1771
-0.164718
-0.470377
-0.459544
-0.451024
-0.440697
-0.427852
-0.412353
-0.394311
-0.374225
-0.352819
-0.330866
-0.309052
-0.287897
-0.267741
-0.248767
-0.231041
-0.214555
-0.199252
-0.185066
-0.17196
-0.159522
-0.472452
-0.461561
-0.452877
-0.442171
-0.428714
-0.412419
-0.393481
-0.372495
-0.350262
-0.327601
-0.305213
-0.283612
-0.263118
-0.243894
-0.225986
-0.209369
-0.193977
-0.179738
-0.166602
-0.154126
-0.473954
-0.463031
-0.454184
-0.443087
-0.429004
-0.411904
-0.392075
-0.370207
-0.347179
-0.323849
-0.30093
-0.278923
-0.258128
-0.238685
-0.220623
-0.203901
-0.188443
-0.17417
-0.161024
-0.148528
-0.474842
-0.463913
-0.454905
-0.443407
-0.428687
-0.410777
-0.390066
-0.367343
-0.343556
-0.319601
-0.296193
-0.273822
-0.252763
-0.233135
-0.214947
-0.198146
-0.182644
-0.168361
-0.155222
-0.142724
-0.475076
-0.464167
-0.454999
-0.443093
-0.427726
-0.409008
-0.387432
-0.363884
-0.33938
-0.314846
-0.290996
-0.268302
-0.247018
-0.227238
-0.208954
-0.1921
-0.176578
-0.162305
-0.149193
-0.136714
-0.474619
-0.463755
-0.45443
-0.442108
-0.426092
-0.406572
-0.384152
-0.359816
-0.33464
-0.309575
-0.285332
-0.262359
-0.240888
-0.22099
-0.20264
-0.18576
-0.170241
-0.156002
-0.142936
-0.130495
-0.473435
-0.462641
-0.45316
-0.44042
-0.423753
-0.403444
-0.380209
-0.355125
-0.329327
-0.303784
-0.279195
-0.255988
-0.234368
-0.214387
-0.196001
-0.179122
-0.163632
-0.149448
-0.136449
-0.124069
-0.47149
-0.46079
-0.451158
-0.437997
-0.420685
-0.399604
-0.375586
-0.349801
-0.323434
-0.297465
-0.272581
-0.249185
-0.227457
-0.207426
-0.189036
-0.172184
-0.156748
-0.142641
-0.129732
-0.117437
-0.468752
-0.458172
-0.448392
-0.434811
-0.416862
-0.395033
-0.370271
-0.343835
-0.316954
-0.290614
-0.265486
-0.241948
-0.220151
-0.200107
-0.181743
-0.164947
-0.149587
-0.135579
-0.122782
-0.110587
-0.465195
-0.454757
-0.444833
-0.430837
-0.412264
-0.389715
-0.364254
-0.337221
-0.309884
-0.28323
-0.257911
-0.234274
-0.21245
-0.192428
-0.174121
-0.157409
-0.142151
-0.128264
-0.115593
-0.103475
-0.460792
-0.450518
-0.440457
-0.426053
-0.406874
-0.383639
-0.357526
-0.329954
-0.302221
-0.275311
-0.249852
-0.226165
-0.204354
-0.184389
-0.166172
-0.149572
-0.134441
-0.120702
-0.108173
-0.0960628
-0.455521
-0.445434
-0.435242
-0.420439
-0.400677
-0.376794
-0.350082
-0.322031
-0.293965
-0.266858
-0.241313
-0.217621
-0.195864
-0.175993
-0.157897
-0.141437
-0.126461
-0.1129
-0.100544
-0.0884413
-0.449362
-0.439484
-0.429169
-0.41398
-0.393663
-0.369175
-0.341921
-0.313454
-0.285117
-0.257872
-0.232293
-0.208644
-0.186981
-0.16724
-0.149298
-0.133007
-0.118213
-0.104851
-0.0926437
-0.0807685
-0.4423
-0.432651
-0.422223
-0.406664
-0.385822
-0.360777
-0.33304
-0.304223
-0.275681
-0.248357
-0.222798
-0.199238
-0.17771
-0.158134
-0.140377
-0.124286
-0.109702
-0.0965601
-0.0845308
-0.0729136
-0.434324
-0.424923
-0.414392
-0.398483
-0.377151
-0.351601
-0.323444
-0.294343
-0.26566
-0.238318
-0.212831
-0.189406
-0.168054
-0.148679
-0.131139
-0.115279
-0.10093
-0.0880315
-0.0762138
-0.0648557
-0.425423
-0.41629
-0.405668
-0.389431
-0.367648
-0.341647
-0.313136
-0.28382
-0.255062
-0.227761
-0.202399
-0.179155
-0.158019
-0.138881
-0.121593
-0.105987
-0.0919016
-0.0792712
-0.0676921
-0.0565964
-0.415593
-0.406747
-0.396047
-0.379507
-0.357316
-0.330923
-0.302124
-0.272662
-0.243895
-0.216693
-0.191508
-0.168491
-0.147611
-0.128747
-0.11174
-0.0964197
-0.0826228
-0.0702849
-0.0589666
-0.0481427
-0.404832
-0.39629
-0.385527
-0.368713
-0.34616
-0.319434
-0.290417
-0.260879
-0.232168
-0.205124
-0.180168
-0.157422
-0.136839
-0.118283
-0.101589
-0.0865826
-0.0731002
-0.0610784
-0.0500411
-0.039502
-0.393143
-0.384921
-0.374111
-0.357054
-0.334187
-0.307193
-0.278027
-0.248483
-0.219892
-0.193065
-0.168388
-0.145959
-0.12571
-0.107497
-0.0911485
-0.0764836
-0.0633411
-0.0516584
-0.0409213
-0.0306818
-0.380531
-0.372646
-0.361807
-0.344538
-0.32141
-0.294211
-0.264968
-0.235487
-0.207082
-0.180528
-0.15618
-0.13411
-0.114234
-0.0963989
-0.0804262
-0.0661313
-0.0533539
-0.0420328
-0.0316142
-0.0216902
-0.367006
-0.359472
-0.348622
-0.331178
-0.307842
-0.280506
-0.251255
-0.221908
-0.193751
-0.167526
-0.143555
-0.121888
-0.102423
-0.0849993
-0.0694327
-0.0555351
-0.0431476
-0.0322102
-0.0221281
-0.0125355
-0.35258
-0.345412
-0.334571
-0.31699
-0.293501
-0.266093
-0.236908
-0.207763
-0.179916
-0.154074
-0.130528
-0.109305
-0.0902889
-0.0733091
-0.0581785
-0.0447053
-0.0327325
-0.0222003
-0.0124727
-0.00322749
-0.33727
-0.330481
-0.319671
-0.301991
-0.278406
-0.250996
-0.221949
-0.193066
-0.165592
-0.140187
-0.117114
-0.0963745
-0.0778433
-0.0613406
-0.0466754
-0.0336534
-0.0221195
-0.0120138
-0.00265855
0.00622312
-0.321095
-0.314699
-0.30394
-0.286202
-0.26258
-0.235239
-0.206403
-0.177837
-0.1508
-0.125884
-0.103327
-0.083112
-0.0651005
-0.0491066
-0.0349357
-0.0223912
-0.0113205
-0.00166243
0.00730245
0.0158038
-0.304078
-0.298087
-0.287403
-0.269647
-0.246048
-0.218844
-0.190273
-0.162116
-0.135559
-0.111182
-0.0891851
-0.0695327
-0.0520751
-0.0366209
-0.0229726
-0.0109316
-0.000348125
0.00884122
0.0173971
0.0254997
-0.286245
-0.28067
-0.270084
-0.252357
-0.228848
-0.201825
-0.173601
-0.14591
-0.119893
-0.0961022
-0.0747066
-0.0556533
-0.0387825
-0.023898
-0.0107997
0.000712165
0.0107842
0.0194836
0.0276107
0.0352937
-0.267626
-0.262476
-0.252013
-0.234365
-0.211023
-0.184197
-0.15641
-0.129245
-0.103823
-0.0806641
-0.0599101
-0.0414913
-0.0252389
-0.0109529
0.00156877
0.0125263
0.0220626
0.0302507
0.0379275
0.0451657
-0.24825
-0.243537
-0.233222
-0.215694
-0.192517
-0.166073
-0.138734
-0.11215
-0.0873736
-0.0648901
-0.0448158
-0.0270648
-0.011461
0.00219895
0.0141183
0.0244968
0.033473
0.0411279
0.0483303
0.0550906
-0.228151
-0.223887
-0.213747
-0.196376
-0.173443
-0.147417
-0.1206
-0.0946515
-0.0705694
-0.0488031
-0.0294443
-0.0123931
0.00253369
0.0155415
0.0268341
0.0366096
0.0450013
0.0521009
0.0587998
0.0650348
-0.207365
-0.203565
-0.193625
-0.176438
-0.153832
-0.128269
-0.102041
-0.076779
-0.0534368
-0.0324269
-0.0138176
0.0025042
0.0167272
0.0290584
0.0397014
0.048851
0.0566343
0.0631561
0.0693161
0.0749588
-0.185927
-0.182607
-0.172874
-0.155949
-0.133712
-0.108668
-0.0830866
-0.0585622
-0.0360029
-0.0157861
0.00204199
0.0176065
0.0311008
0.042733
0.0527055
0.061208
0.0683595
0.0742824
0.0798641
0.0848306
-0.16387
-0.161064
-0.151556
-0.134933
-0.11312
-0.088652
-0.0637716
-0.0400318
-0.0182957
0.00109349
0.0181109
0.0328924
0.0456355
0.0565483
0.0658317
0.0736675
0.0801653
0.085473
0.0904405
0.0946215
-0.141231
-0.138991
-0.129717
-0.113432
-0.0920969
-0.0682583
-0.0441304
-0.0212197
-0.00034438
0.0181855
0.0343651
0.0483401
0.0603114
0.070487
0.0790654
0.0862168
0.0920424
0.0967295
0.10104
0.104229
-0.118111
-0.116392
-0.107398
-0.0914899
-0.0706837
-0.0475264
-0.0241987
-0.00215851
0.0178213
0.0354627
0.0507796
0.0639268
0.075108
0.0845312
0.0923917
0.0988452
0.103991
0.108071
0.111628
0.113394
-0.094565
-0.093302
-0.0846426
-0.0691517
-0.0489229
-0.0264959
-0.00401321
0.0171183
0.0361707
0.0528969
0.0673287
0.079629
0.0900041
0.0986622
0.105795
0.111544
0.116027
0.119538
0.122168
0.121898
-0.0705952
-0.0698021
-0.0614988
-0.0464635
-0.0268581
-0.00520747
0.0163888
0.0365767
0.0546726
0.0704594
0.0839858
0.0954222
0.104977
0.112859
0.119256
0.124303
0.128159
0.131146
0.13271
0.130394
-0.0462524
-0.0459451
-0.0380153
-0.0234723
-0.00453384
0.0162974
0.0369693
0.0561816
0.0732949
0.0881209
0.100724
0.111281
0.120004
0.127101
0.132755
0.137106
0.140362
0.142792
0.143197
0.141484
-0.0215906
-0.0217784
-0.0142407
-0.00022553
0.0180048
0.037977
0.0576896
0.0758977
0.0920052
0.105851
0.117515
0.127181
0.13506
0.141362
0.146269
0.149925
0.152566
0.154389
0.154137
0.153152
0.00333506
0.0026466
0.00977367
0.0232277
0.0407118
0.0597886
0.0785108
0.0956893
0.110771
0.123621
0.134332
0.143094
0.150121
0.155621
0.159774
0.162733
0.164741
0.165934
0.165155
0.164274
0.0284702
0.0272773
0.033976
0.0468378
0.0635408
0.0816893
0.0993933
0.11552
0.129558
0.141398
0.151146
0.158995
0.165162
0.169853
0.173248
0.175505
0.176864
0.17743
0.176161
0.175095
0.0537602
0.0520608
0.0583142
0.0705551
0.0864451
0.103636
0.120297
0.135354
0.148333
0.159152
0.167927
0.174857
0.180157
0.184033
0.186666
0.188215
0.188916
0.188854
0.187085
0.185697
0.0791497
0.0769431
0.0827354
0.0943293
0.109378
0.125585
0.141183
0.155153
0.167063
0.176852
0.184648
0.190652
0.195081
0.198139
0.200006
0.200841
0.200877
0.200184
0.197895
0.196106
0.104583
0.10187
0.107187
0.11811
0.132291
0.147493
0.162011
0.174883
0.185714
0.194467
0.201279
0.206354
0.209909
0.212147
0.213245
0.213363
0.212728
0.211399
0.208574
0.206337
0.130006
0.126787
0.131616
0.141847
0.155139
0.169317
0.182741
0.194505
0.204253
0.211966
0.217791
0.221937
0.224617
0.226034
0.226362
0.225761
0.224451
0.222483
0.219108
0.216393
0.155361
0.151639
0.155968
0.16549
0.177875
0.191013
0.203333
0.213984
0.222645
0.229317
0.234157
0.237373
0.239179
0.239776
0.239335
0.238014
0.236029
0.233419
0.229488
0.226276
0.180593
0.176373
0.180192
0.188988
0.200451
0.212539
0.223748
0.233282
0.240857
0.246491
0.250347
0.252636
0.253572
0.253351
0.252143
0.250105
0.247444
0.244193
0.239703
0.235981
0.205648
0.200933
0.204235
0.212293
0.222821
0.233851
0.243947
0.252366
0.258857
0.263456
0.266334
0.267701
0.267771
0.266737
0.264766
0.262013
0.258679
0.254789
0.249741
0.245501
0.23047
0.225265
0.228044
0.235353
0.24494
0.254907
0.26389
0.271197
0.27661
0.280182
0.282089
0.282542
0.281752
0.279912
0.277184
0.273722
0.269719
0.265195
0.259592
0.254828
0.255004
0.249316
0.251567
0.258122
0.266761
0.275667
0.28354
0.289742
0.294086
0.29664
0.297585
0.297133
0.295493
0.292854
0.289378
0.285214
0.280548
0.275396
0.269244
0.263954
0.279197
0.273034
0.274755
0.28055
0.288241
0.296088
0.302859
0.307966
0.311252
0.3128
0.312794
0.311449
0.30897
0.305543
0.301327
0.29647
0.29115
0.285379
0.278686
0.272868
0.302997
0.296366
0.297556
0.302591
0.309336
0.31613
0.321809
0.325834
0.328077
0.328632
0.327691
0.325466
0.32216
0.317957
0.313014
0.307474
0.301509
0.295129
0.287904
0.281561
0.326349
0.31926
0.319921
0.324198
0.330002
0.335753
0.340354
0.343313
0.344529
0.34411
0.342249
0.339159
0.335042
0.330077
0.324419
0.318208
0.311611
0.304634
0.296886
0.290022
0.349205
0.341667
0.341802
0.345325
0.350198
0.354919
0.358459
0.360371
0.360579
0.359204
0.356442
0.352505
0.347593
0.341882
0.335524
0.328657
0.32144
0.313878
0.305621
0.298241
0.371513
0.363538
0.363151
0.365928
0.369882
0.37359
0.376089
0.376975
0.376198
0.373888
0.370245
0.365481
0.359793
0.353353
0.346312
0.338803
0.330981
0.32285
0.314096
0.306207
0.393225
0.384824
0.383924
0.385964
0.389013
0.391729
0.393209
0.393094
0.391356
0.388135
0.383635
0.378065
0.37162
0.364471
0.356765
0.348632
0.340221
0.331536
0.3223
0.31391
0.414293
0.405479
0.404074
0.405391
0.407555
0.409301
0.409788
0.408698
0.406025
0.40192
0.396586
0.390234
0.383055
0.375218
0.366865
0.358127
0.349144
0.339923
0.330219
0.321339
0.434672
0.425459
0.423559
0.424168
0.425468
0.42627
0.425793
0.423757
0.420179
0.415217
0.409077
0.401968
0.394078
0.385575
0.376597
0.367273
0.357737
0.347998
0.337842
0.328484
0.454317
0.444718
0.442337
0.442257
0.442716
0.442603
0.441193
0.438244
0.433792
0.428003
0.421085
0.413245
0.404671
0.395525
0.385945
0.376056
0.365986
0.355749
0.345159
0.335336
0.473185
0.463217
0.460368
0.459619
0.459265
0.458268
0.455959
0.452131
0.446839
0.440254
0.432589
0.424047
0.414814
0.405051
0.394893
0.384461
0.37388
0.363164
0.352157
0.341884
0.491235
0.480913
0.477613
0.476218
0.475081
0.473235
0.470063
0.465392
0.459294
0.451949
0.443568
0.434354
0.424492
0.414138
0.403426
0.392475
0.381404
0.370231
0.358827
0.348119
0.508429
0.497769
0.494035
0.49202
0.490133
0.487474
0.483477
0.478002
0.471136
0.463066
0.454002
0.444149
0.433686
0.422769
0.41153
0.400085
0.388547
0.37694
0.365157
0.354033
0.524728
0.513748
0.509599
0.506991
0.504389
0.500956
0.496176
0.489938
0.482343
0.473584
0.463874
0.453413
0.442381
0.430931
0.419192
0.407278
0.395299
0.38328
0.371138
0.359617
0.540097
0.528815
0.524272
0.521102
0.51782
0.513656
0.508135
0.501176
0.492893
0.483485
0.473164
0.462131
0.450562
0.438609
0.426399
0.414043
0.401647
0.38924
0.37676
0.364863
0.554503
0.542938
0.538023
0.534322
0.530401
0.525548
0.519332
0.511695
0.502768
0.49275
0.481857
0.470287
0.458215
0.44579
0.433138
0.420368
0.407581
0.394811
0.382015
0.369763
0.567915
0.556086
0.550822
0.546624
0.542106
0.53661
0.529745
0.521477
0.511948
0.501363
0.489937
0.477867
0.465326
0.452462
0.439399
0.426243
0.413092
0.399985
0.386895
0.37431
0.580303
0.568231
0.562643
0.557983
0.55291
0.546819
0.539353
0.530502
0.520417
0.509308
0.497389
0.484857
0.471884
0.458614
0.44517
0.431658
0.418172
0.404753
0.391391
0.378497
0.591641
0.579346
0.57346
0.568375