/*--------------------------------*- C++ -*----------------------------------*\
  =========                 |
  \\      /  F ield         | OpenFOAM: The Open Source CFD Toolbox
   \\    /   O peration     | Website:  https://openfoam.org
    \\  /    A nd           | Version:  7
     \\/     M anipulation  |
\*---------------------------------------------------------------------------*/
FoamFile
{
    version     2.0;
    format      ascii;
    class       volScalarField;
    location    "260";
    object      p;
}
// * * * * * * * * * * * * * * * * * * * * * * * * * * * * * * * * * * * * * //

dimensions      [0 2 -2 0 0 0 0];

internalField   nonuniform List<scalar> 
4575
(
-0.250678
-0.241648
-0.253957
-0.277941
-0.295925
-0.291534
-0.262442
-0.219279
-0.175944
-0.141265
-0.118015
-0.105834
-0.102958
-0.10774
-0.121212
-0.144169
-0.169889
-0.18553
-0.181666
-0.161224
-0.134123
-0.109059
-0.0908099
-0.251276
-0.24514
-0.260224
-0.286229
-0.304762
-0.299581
-0.268929
-0.224004
-0.179094
-0.143149
-0.118872
-0.105773
-0.102043
-0.105994
-0.118496
-0.140409
-0.165305
-0.180736
-0.177414
-0.157963
-0.13185
-0.107607
-0.0900639
-0.25143
-0.248233
-0.266097
-0.294071
-0.313124
-0.307198
-0.275068
-0.228469
-0.182056
-0.14489
-0.119618
-0.105622
-0.10105
-0.104178
-0.115714
-0.136579
-0.160649
-0.175871
-0.173096
-0.154643
-0.129519
-0.106098
-0.0892626
-0.251121
-0.250897
-0.271536
-0.30142
-0.320976
-0.314362
-0.280849
-0.232672
-0.184831
-0.146493
-0.120257
-0.105387
-0.0999891
-0.102302
-0.112878
-0.132693
-0.155936
-0.170948
-0.16872
-0.151268
-0.12713
-0.104531
-0.0884047
-0.250334
-0.25311
-0.276506
-0.308236
-0.328285
-0.321053
-0.28626
-0.236609
-0.18742
-0.147964
-0.120796
-0.105077
-0.0988671
-0.100377
-0.11
-0.128763
-0.151178
-0.165978
-0.164292
-0.147842
-0.124685
-0.102906
-0.0874888
-0.249064
-0.254853
-0.280973
-0.314482
-0.335026
-0.327254
-0.291293
-0.240279
-0.189827
-0.149307
-0.121242
-0.104698
-0.0976927
-0.0984098
-0.107091
-0.124803
-0.146391
-0.160973
-0.159821
-0.14437
-0.122187
-0.101223
-0.0865139
-0.247306
-0.256113
-0.284911
-0.320126
-0.341175
-0.332951
-0.295943
-0.243681
-0.192055
-0.150528
-0.121602
-0.104259
-0.0964741
-0.0964111
-0.104163
-0.120825
-0.141586
-0.155945
-0.155313
-0.140857
-0.119637
-0.0994832
-0.0854789
-0.245068
-0.256881
-0.288295
-0.325145
-0.346715
-0.338133
-0.300206
-0.246816
-0.194109
-0.151633
-0.121883
-0.103767
-0.0952195
-0.0943892
-0.101225
-0.116843
-0.136777
-0.150903
-0.150774
-0.137306
-0.117038
-0.0976867
-0.0843834
-0.24236
-0.257156
-0.291109
-0.329518
-0.351633
-0.342793
-0.304079
-0.249685
-0.195991
-0.152629
-0.122091
-0.103229
-0.0939366
-0.0923523
-0.0982873
-0.112866
-0.131975
-0.145861
-0.146211
-0.133722
-0.114392
-0.0958345
-0.0832268
-0.2392
-0.256938
-0.293339
-0.333233
-0.35592
-0.346927
-0.307563
-0.252292
-0.197707
-0.153521
-0.122233
-0.102651
-0.0926332
-0.0903089
-0.0953606
-0.108908
-0.127192
-0.140827
-0.14163
-0.130111
-0.111701
-0.0939279
-0.0820089
-0.235611
-0.256236
-0.29498
-0.336283
-0.359574
-0.350534
-0.310658
-0.254639
-0.199263
-0.154317
-0.122317
-0.102042
-0.0913168
-0.0882666
-0.0924534
-0.104978
-0.122438
-0.135812
-0.137038
-0.126477
-0.108968
-0.0919683
-0.0807298
-0.0766746
-0.231623
-0.255061
-0.296029
-0.338667
-0.3626
-0.353616
-0.313367
-0.256731
-0.200663
-0.155022
-0.122349
-0.101408
-0.0899945
-0.086233
-0.0895742
-0.101086
-0.117723
-0.130827
-0.132423
-0.122824
-0.106197
-0.0899572
-0.0793898
-0.0759539
-0.227269
-0.25343
-0.296493
-0.340388
-0.365008
-0.356176
-0.315696
-0.258573
-0.201913
-0.155643
-0.122336
-0.100755
-0.0886732
-0.0842152
-0.086731
-0.0972429
-0.113057
-0.125882
-0.127791
-0.119159
-0.10339
-0.0878967
-0.0779895
-0.0751654
-0.222587
-0.251363
-0.296381
-0.341456
-0.366812
-0.358222
-0.317648
-0.260172
-0.20302
-0.156186
-0.122284
-0.100089
-0.0873595
-0.0822201
-0.0839311
-0.0934567
-0.108449
-0.120987
-0.124558
-0.115485
-0.100551
-0.0857889
-0.0765298
-0.0743087
-0.217618
-0.248883
-0.295709
-0.341884
-0.367996
-0.35976
-0.319233
-0.261532
-0.203989
-0.156657
-0.1222
-0.0994179
-0.0860596
-0.0802539
-0.0811814
-0.0897362
-0.103905
-0.116135
-0.11993
-0.111798
-0.0976817
-0.0836361
-0.0750117
-0.0733837
-0.212405
-0.246018
-0.294498
-0.341692
-0.368169
-0.3608
-0.320457
-0.262661
-0.204826
-0.157062
-0.122089
-0.0987459
-0.0847794
-0.0783228
-0.0784882
-0.0860889
-0.0994345
-0.111335
-0.115342
-0.108104
-0.0947866
-0.0814408
-0.0734366
-0.0723907
-0.206991
-0.242796
-0.292771
-0.340911
-0.368145
-0.36136
-0.321331
-0.263566
-0.205537
-0.157408
-0.121957
-0.0980788
-0.0835244
-0.0764323
-0.075857
-0.082522
-0.0950434
-0.106597
-0.110815
-0.104408
-0.0918689
-0.079206
-0.0718062
-0.0713301
-0.201421
-0.23925
-0.290557
-0.339565
-0.367579
-0.361456
-0.321863
-0.264254
-0.20613
-0.157699
-0.121809
-0.0974218
-0.0822997
-0.0745877
-0.0732931
-0.079042
-0.0907387
-0.101928
-0.106339
-0.100714
-0.0889321
-0.0769346
-0.0701225
-0.0702026
-0.195738
-0.23541
-0.287887
-0.337684
-0.366485
-0.361105
-0.322066
-0.264734
-0.206609
-0.157941
-0.121652
-0.0967796
-0.08111
-0.0727938
-0.070801
-0.0756548
-0.0865265
-0.0973368
-0.101919
-0.0970278
-0.08598
-0.0746298
-0.0683877
-0.0690091
-0.189983
-0.231312
-0.284794
-0.3353
-0.364892
-0.360324
-0.321949
-0.265012
-0.206981
-0.15814
-0.12149
-0.0961568
-0.0799596
-0.0710552
-0.0683849
-0.0723656
-0.0824126
-0.0928282
-0.097557
-0.093353
-0.0830166
-0.0722952
-0.0666042
-0.067751
-0.184194
-0.226988
-0.281313
-0.332446
-0.362826
-0.359132
-0.321526
-0.265097
-0.207252
-0.1583
-0.121326
-0.0955574
-0.0788523
-0.0693758
-0.0660484
-0.0691791
-0.0784025
-0.0884082
-0.0932572
-0.0896945
-0.0800457
-0.0699343
-0.0647748
-0.0664298
-0.178407
-0.222471
-0.27748
-0.329158
-0.360314
-0.357549
-0.320808
-0.264998
-0.207427
-0.158426
-0.121167
-0.0949854
-0.0777919
-0.0677595
-0.0637948
-0.0660991
-0.074501
-0.0840818
-0.0890222
-0.0860569
-0.0770715
-0.0675508
-0.0629024
-0.0650473
-0.172655
-0.217795
-0.273331
-0.325472
-0.357388
-0.355592
-0.319807
-0.264721
-0.207512
-0.158521
-0.121015
-0.0944441
-0.0767813
-0.0662094
-0.061627
-0.0631291
-0.0707127
-0.0798536
-0.0848559
-0.0824452
-0.074098
-0.0651487
-0.0609902
-0.0636056
-0.166966
-0.21299
-0.268903
-0.321424
-0.354074
-0.353284
-0.318536
-0.264276
-0.207513
-0.158591
-0.120874
-0.0939369
-0.0758232
-0.0647285
-0.0595473
-0.0602718
-0.0670416
-0.0757277
-0.080763
-0.0788643
-0.0711292
-0.0627319
-0.0590417
-0.062107
-0.161364
-0.208086
-0.264232
-0.317049
-0.350405
-0.350641
-0.317009
-0.263669
-0.207435
-0.158638
-0.120748
-0.0934665
-0.0749202
-0.0633193
-0.0575577
-0.0575296
-0.0634913
-0.0717081
-0.0767478
-0.0753193
-0.0681694
-0.0603045
-0.0570606
-0.0605542
-0.203111
-0.259352
-0.312383
-0.346407
-0.347686
-0.315236
-0.262909
-0.207283
-0.158666
-0.120638
-0.0930356
-0.0740742
-0.0619839
-0.0556601
-0.0549042
-0.0600649
-0.0677983
-0.0728148
-0.0718155
-0.0652226
-0.0578708
-0.0550506
-0.05895
-0.198091
-0.254297
-0.307459
-0.342109
-0.344436
-0.313231
-0.262004
-0.207061
-0.158679
-0.120549
-0.0926465
-0.073287
-0.0607241
-0.0538557
-0.0523968
-0.056765
-0.0640015
-0.0689686
-0.0683584
-0.0622932
-0.0554348
-0.0530157
-0.0572975
-0.193048
-0.249098
-0.30231
-0.337539
-0.340911
-0.311007
-0.260961
-0.206774
-0.158678
-0.120481
-0.0923012
-0.0725599
-0.0595412
-0.0521458
-0.0500086
-0.0535938
-0.0603208
-0.0652133
-0.0649541
-0.0593855
-0.0530009
-0.0509601
-0.0555999
-0.188005
-0.243787
-0.296965
-0.332721
-0.337129
-0.308574
-0.259787
-0.206425
-0.158667
-0.120437
-0.0920014
-0.0718942
-0.0584362
-0.0505311
-0.0477398
-0.050553
-0.0567586
-0.0615529
-0.0616104
-0.056504
-0.0505734
-0.0488881
-0.0538609
-0.18298
-0.238389
-0.291453
-0.32768
-0.333107
-0.305945
-0.258488
-0.20602
-0.158647
-0.120419
-0.0917485
-0.0712906
-0.0574095
-0.0490119
-0.0455907
-0.0476436
-0.053317
-0.0579913
-0.0583311
-0.0536532
-0.0481566
-0.046804
-0.0520842
-0.17799
-0.232929
-0.285799
-0.322438
-0.328862
-0.303132
-0.257073
-0.205561
-0.15862
-0.120426
-0.0915428
-0.0707491
-0.0564612
-0.0475884
-0.0435609
-0.0448662
-0.0499978
-0.0545322
-0.0551121
-0.0508373
-0.0457548
-0.0447124
-0.0502736
-0.173049
-0.227431
-0.280026
-0.317014
-0.32441
-0.300145
-0.255545
-0.205049
-0.158587
-0.12046
-0.0913858
-0.0702706
-0.0555913
-0.0462607
-0.0416503
-0.0422215
-0.0468023
-0.0511786
-0.0520841
-0.0480609
-0.0433724
-0.0426176
-0.0484333
-0.168171
-0.221912
-0.274152
-0.311425
-0.319764
-0.296996
-0.253914
-0.204495
-0.158556
-0.120527
-0.0912825
-0.0698589
-0.054802
-0.0450305
-0.0398596
-0.0397105
-0.0437323
-0.047933
-0.0489214
-0.0453291
-0.041014
-0.0405245
-0.0465675
-0.163363
-0.216387
-0.268191
-0.305682
-0.314934
-0.293694
-0.25219
-0.203905
-0.158533
-0.120633
-0.0912371
-0.0695161
-0.054094
-0.0438979
-0.0381881
-0.0373323
-0.0407872
-0.0447974
-0.0458223
-0.0426536
-0.0386848
-0.0384378
-0.0446807
-0.158634
-0.210868
-0.262152
-0.299799
-0.309939
-0.29025
-0.250369
-0.203263
-0.158495
-0.120752
-0.0912281
-0.0692249
-0.0534525
-0.0428511
-0.0366256
-0.0350788
-0.0379591
-0.0417677
-0.0428604
-0.0400405
-0.0363894
-0.0363625
-0.0427775
-0.154003
-0.205382
-0.256066
-0.293825
-0.304823
-0.286675
-0.248416
-0.202508
-0.158375
-0.120827
-0.0912099
-0.0689516
-0.0528524
-0.0418718
-0.0351599
-0.032944
-0.0352426
-0.0388379
-0.0400228
-0.037483
-0.0341286
-0.0343018
-0.0408618
-0.149483
-0.199954
-0.249968
-0.287771
-0.299587
-0.282979
-0.246365
-0.201699
-0.158249
-0.120933
-0.0912516
-0.0687558
-0.0523436
-0.0410026
-0.03383
-0.0309675
-0.0326794
-0.0360477
-0.037299
-0.0349897
-0.0319073
-0.032258
-0.0389364
-0.19436
-0.243613
-0.281313
-0.294012
-0.279189
-0.244495
-0.201266
-0.158575
-0.121482
-0.0916881
-0.0688966
-0.0521219
-0.0403944
-0.0327489
-0.0292301
-0.0303477
-0.0335132
-0.0348146
-0.0326691
-0.029786
-0.0302591
-0.0370186
-0.188288
-0.236571
-0.274158
-0.287957
-0.275296
-0.242871
-0.201276
-0.15939
-0.122472
-0.0924901
-0.0693178
-0.0521105
-0.0399566
-0.0317995
-0.0275729
-0.02806
-0.0310871
-0.032572
-0.0306115
-0.027855
-0.0283771
-0.0351596
-0.184114
-0.231422
-0.268749
-0.282851
-0.271057
-0.239817
-0.199283
-0.158131
-0.121609
-0.0917498
-0.068493
-0.0510924
-0.0386929
-0.0301643
-0.0253176
-0.0250868
-0.0277681
-0.0294616
-0.0279319
-0.0256459
-0.0264365
-0.0332628
-0.184904
-0.232428
-0.26788
-0.278654
-0.264136
-0.231508
-0.191051
-0.15089
-0.115531
-0.0866047
-0.0639454
-0.0467608
-0.0342717
-0.0255014
-0.0199186
-0.0179165
-0.0183331
-0.0185414
-0.017117
-0.0172181
-0.019735
-0.027055
-0.0388053
-0.177947
-0.217654
-0.246944
-0.255287
-0.241109
-0.211398
-0.17503
-0.13884
-0.106666
-0.0799466
-0.0585541
-0.0419903
-0.029663
-0.020578
-0.0142666
-0.0113929
-0.0115197
-0.0121775
-0.0121333
-0.0111886
-0.0140079
-0.021784
-0.0340416
-0.171273
-0.20609
-0.228558
-0.233575
-0.21974
-0.192852
-0.160278
-0.127676
-0.0983089
-0.0735178
-0.0532954
-0.0373053
-0.0251272
-0.0158803
-0.00907558
-0.00531454
-0.00464498
-0.00506824
-0.00512416
-0.00529256
-0.00882859
-0.017198
-0.030076
-0.16359
-0.191689
-0.209287
-0.211743
-0.198572
-0.174581
-0.145766
-0.116702
-0.0901157
-0.0672581
-0.0482415
-0.032869
-0.0208941
-0.0115812
-0.00442182
7.76039e-05
0.00155046
0.00142994
0.00121466
0.000362712
-0.00371323
-0.0124336
-0.0255932
-0.154129
-0.176342
-0.189695
-0.190374
-0.178322
-0.157321
-0.132088
-0.106307
-0.0822884
-0.0612388
-0.0433957
-0.028662
-0.0169336
-0.00764777
-0.000283413
0.00476577
0.00690549
0.00703516
0.00668804
0.00542067
0.00109133
-0.00764811
-0.0207301
-0.143581
-0.16089
-0.170769
-0.170319
-0.159563
-0.141344
-0.119326
-0.0964997
-0.0748369
-0.0554848
-0.0387849
-0.0247146
-0.0132741
-0.00408586
0.0033565
0.00877892
0.0114737
0.0118668
0.0112746
0.00983298
0.0054535
-0.00307379
-0.0158524
-0.132914
-0.146089
-0.153218
-0.152046
-0.142534
-0.126764
-0.107559
-0.0873492
-0.0678185
-0.0500379
-0.0344323
-0.02104
-0.00992581
-0.000887479
0.00653093
0.0121761
0.0153203
0.0159904
0.0153303
0.0136796
0.00938606
0.00122085
-0.0111145
-0.122672
-0.132462
-0.137414
-0.135732
-0.127296
-0.1136
-0.0968006
-0.0788715
-0.0612507
-0.0449174
-0.0303512
-0.0176441
-0.00689298
0.00195817
0.00927692
0.0150195
0.018504
0.0194644
0.0188044
0.0170482
0.0129532
0.00526517
-0.00650457
-0.11317
-0.120231
-0.123432
-0.121339
-0.113774
-0.101789
-0.0870192
-0.0710616
-0.0551419
-0.0401367
-0.0265508
-0.0145266
-0.00417191
0.00446384
0.0116323
0.0173732
0.021095
0.0223539
0.0217793
0.020025
0.0162301
0.00911837
-0.0019625
-0.104528
-0.10938
-0.111154
-0.108706
-0.101821
-0.0912283
-0.0781593
-0.0638994
-0.0494886
-0.0356995
-0.0230344
-0.0116819
-0.00175178
0.006644
0.0136343
0.0193013
0.02317
0.0247184
0.0243222
0.0226835
0.0192808
0.0128307
0.00254408
-0.0967087
-0.0997724
-0.100383
-0.0976229
-0.0912626
-0.0817985
-0.0701538
-0.0573548
-0.0442799
-0.0316024
-0.0198008
-0.00910089
0.000384057
0.00851606
0.0153165
0.0208643
0.0248062
0.0266178
0.0264808
0.0250724
0.022145
0.0164267
0.00701653
-0.0896107
-0.0912391
-0.090908
-0.0878789
-0.0819259
-0.0733805
-0.0629314
-0.0513919
-0.0394991
-0.0278362
-0.0168439
-0.00677235
0.00225625
0.0101014
0.0167084
0.0221161
0.026077
0.0281147
0.0282892
0.0272155
0.0248363
0.01991
0.0114642
-0.0831275
-0.0836153
-0.0825307
-0.0792802
-0.0736517
-0.0658615
-0.0564211
-0.0459711
-0.0351256
-0.0243877
-0.0141537
-0.00468338
0.00388726
0.0114257
0.0178358
0.0231019
0.0270475
0.0292737
0.0297796
0.0291201
0.0273538
0.0232839
0.015926
-0.0771622
-0.0767558
-0.0750796
-0.0716577
-0.0662981
-0.0591375
-0.0505547
-0.0410515
-0.0311359
-0.0212405
-0.0117163
-0.00281972
0.0052995
0.0125174
0.0187239
0.0238561
0.0277719
0.0301563
0.0309898
0.0307893
0.0296927
0.0265636
0.0204638
-0.0716336
-0.0705388
-0.0684103
-0.0648673
-0.0597412
-0.0531147
-0.0452677
-0.0365919
-0.0275045
-0.0183762
-0.00951553
-0.00116557
0.00651434
0.0134052
0.0193993
0.0244056
0.028291
0.0308141
0.031963
0.0322316
0.0318438
0.029763
0.0251353
-0.0664764
-0.0648648
-0.0624027
-0.0587873
-0.0538737
-0.047709
-0.0404998
-0.0325514
-0.0242045
-0.0157753
-0.00753361
0.000296191
0.00755189
0.0141162
0.0198899
0.0247732
0.0286337
0.0312848
0.0327356
0.0334608
0.0337848
0.0328557
0.0299131
-0.061639
-0.0596525
-0.0569578
-0.0533151
-0.0486029
-0.0428455
-0.0361955
-0.0288909
-0.0212087
-0.0134172
-0.0057521
0.00158363
0.00843132
0.0146747
0.0202232
0.0249806
0.02882
0.0315925
0.0333321
0.0344903
0.0354802
0.0357276
0.0345619
-0.0570806
-0.0548361
-0.0519934
-0.0483644
-0.0438488
-0.0384576
-0.0323036
-0.0255728
-0.0184898
-0.0112814
-0.00415254
0.002715
0.00917111
0.015102
0.0204239
0.0250499
0.0288655
0.031751
0.0337623
0.0353211
0.0368962
0.0382033
0.0386493
-0.0527692
-0.050362
-0.0474419
-0.0438625
-0.0395428
-0.0344864
-0.0287774
-0.0225617
-0.0160213
-0.00934718
-0.00271686
0.0037081
0.00978907
0.0154171
0.0205138
0.0250021
0.0287852
0.0317697
0.0340265
0.0359406
0.0379927
0.0401249
0.0417721
-0.0486796
-0.0461867
-0.043247
-0.0397479
-0.0356255
-0.0308798
-0.0255746
-0.0198247
-0.0137779
-0.00759434
-0.00142756
0.00457988
0.0103021
0.015637
0.0205112
0.0248565
0.0285944
0.0316569
0.0341224
0.0363325
0.0387369
0.0413938
0.0437397
-0.0447915
-0.0422745
-0.0393622
-0.0359691
-0.0320461
-0.0275924
-0.022657
-0.0173312
-0.0117353
-0.00600351
-0.000267948
0.00534614
0.0107258
0.0157772
0.0204318
0.0246296
0.028308
0.0314219
0.034051
0.036487
0.0391175
0.0420214
0.0446412
-0.0410891
-0.0385964
-0.0357489
-0.0324826
-0.0287611
-0.0245841
-0.0199906
-0.0150534
-0.00987131
-0.00455638
0.000777706
0.00602149
0.0110746
0.0158518
0.0202896
0.0243354
0.0279398
0.0310755
0.0338174
0.0364044
0.0391456
0.0420873
0.0447016
-0.0375595
-0.0351286
-0.0323748
-0.0292516
-0.025733
-0.0218202
-0.0175448
-0.012966
-0.00816503
-0.00323587
0.00172404
0.00661931
0.0113613
0.0158734
0.0200973
0.0239864
0.0275024
0.0306294
0.033432
0.0360976
0.038853
0.0416976
0.0441538
-0.0341922
-0.0318512
-0.0292133
-0.0262454
-0.0229301
-0.0192704
-0.0152928
-0.0110461
-0.0065976
-0.00202623
0.00258449
0.00715171
0.0115975
0.0158533
0.0198661
0.0235943
0.0270072
0.0300957
0.0329107
0.0355908
0.0382881
0.0409614
0.043193
-0.0309786
-0.0287482
-0.0262421
-0.023438
-0.0203251
-0.0169084
-0.0132109
-0.00927336
-0.0051519
-0.000913158
0.0033713
0.0076296
0.0117933
0.0158016
0.0196062
0.0231694
0.0264659
0.0294883
0.0322735
0.0349166
0.0375078
0.0399782
0.0419702
-0.0279116
-0.025806
-0.0234426
-0.0208074
-0.0178949
-0.0147118
-0.0112785
-0.00762968
-0.00381262
0.000116228
0.00409543
0.00806265
0.0119579
0.0157272
0.0193265
0.0227215
0.0258898
0.0288229
0.0315436
0.0341112
0.0365685
0.0388306
0.040597
-0.0249849
-0.0230132
-0.0207993
-0.0183352
-0.0156199
-0.0126611
-0.00947761
-0.00609921
-0.00256618
0.0010734
0.00476665
0.00845947
0.0120992
0.0156379
0.0190352
0.0222596
0.0252897
0.0281153
0.0307456
0.0332108
0.035521
0.0375845
0.0391522
-0.0221932
-0.0203604
-0.0182991
-0.0160061
-0.0134834
-0.0107398
-0.00779271
-0.00466811
-0.00140065
0.00196845
0.00539354
0.00882753
0.0122241
0.0155404
0.0187398
0.0217925
0.0246771
0.0273809
0.0299018
0.0322483
0.0344084
0.0362906
0.0376901
-0.0195319
-0.0178393
-0.0159311
-0.013807
-0.0114714
-0.00893383
-0.0062105
-0.00332442
-0.000305664
0.0028102
0.00598354
0.00917328
0.0123385
0.0154409
0.0184469
0.0213278
0.0240624
0.0266344
0.0290336
0.0312529
0.0332664
0.0349867
0.0362475
-0.0169964
-0.015443
-0.0136859
-0.0117269
-0.00957203
-0.00723122
-0.00471965
-0.00205789
0.0007277
0.00360621
0.00654308
0.00950227
0.0124475
0.0153445
0.0181619
0.0208726
0.0234547
0.0258892
0.02816
0.030249
0.0321228
0.0337009
0.034849
-0.0145828
-0.0131655
-0.0115557
-0.00975667
-0.00777537
-0.00562191
-0.00331056
-0.000859816
0.00170704
0.00436294
0.00707756
0.00981916
0.0125555
0.0152554
0.0178899
0.0204332
0.0228627
0.0251572
0.0272966
0.0292563
0.0309995
0.0324535
0.0335105
-0.0122872
-0.0110014
-0.00953372
-0.00788847
-0.00607304
-0.00409748
-0.00197517
0.000277133
0.00263873
0.00508577
0.00759151
0.0101278
0.0126658
0.0151772
0.0176351
0.0200146
0.0222931
0.0244479
0.0264564
0.0282905
0.0299127
0.0312583
0.0322415
-0.0101062
-0.00894599
-0.00761423
-0.00611576
-0.00445805
-0.00265088
-0.000706776
0.00135905
0.00352808
0.00577917
0.00808859
0.0104313
0.0127812
0.0151127
0.0174008
0.0196214
0.0217519
0.0237693
0.0256493
0.0273634
0.0288739
0.0301248
0.0310475
-0.00803612
-0.00699491
-0.00579222
-0.00443297
-0.00292453
-0.00127626
0.000500193
0.00239097
0.00437943
0.00644674
0.00857172
0.010732
0.012904
0.0150643
0.0171895
0.0192567
0.0212438
0.0231274
0.0248831
0.0264834
0.0278911
0.0290585
0.029931
-0.00607362
-0.00514432
-0.00406329
-0.00283536
-0.00146758
3.12412e-05
0.00165029
0.00337696
0.00519625
0.0070913
0.00904315
0.0110317
0.0130356
0.0150333
0.0170032
0.0189233
0.0207722
0.0225273
0.0241666
0.0256564
0.0269694
0.0280626
0.0288921
-0.0042154
-0.00339062
-0.0024236
-0.00131888
-8.30686e-05
0.00127562
0.00274724
0.0043203
0.00598128
0.00771503
0.00950453
0.0113316
0.013177
0.0150208
0.0168428
0.0186225
0.0203392
0.021971
0.0234959
0.0248849
0.0261112
0.0271379
0.0279296
-0.00245821
-0.00173048
-0.0008697
0.00011997
0.00123244
0.00246016
0.00379402
0.00522357
0.00673662
0.00831952
0.00995694
0.0116325
0.0133285
0.0150269
0.0167089
0.0183552
0.019946
0.0214603
0.0228772
0.0241712
0.0253176
0.0262838
0.0270414
-0.000798869
-0.000160777
0.000601504
0.00148422
0.00248187
0.00358756
0.00479302
0.00608878
0.00746382
0.00890584
0.010401
0.0119345
0.0134903
0.0150517
0.0166014
0.0181213
0.0195929
0.020996
0.0223112
0.023516
0.0245881
0.0254987
0.0262248
0.000765731
0.00132145
0.00199283
0.00277655
0.00366769
0.00466005
0.00574615
0.00691743
0.00816397
0.00947466
0.0108371
0.0122377
0.013662
0.0150946
0.0165197
0.0179202
0.0192793
0.0205779
0.0217978
0.0229199
0.023921
0.0247801
0.0254763
0.00223864
0.00271901
0.00330686
0.0039993
0.00479201
0.00567944
0.00665488
0.00771063
0.00883775
0.0100263
0.0112649
0.0125415
0.0138427
0.0151547
0.0164627
0.0177511
0.0190041
0.0202045
0.0213351
0.0223775
0.0233137
0.0241246
0.0247924
0.00362287
0.0040346
0.00454599
0.0051546
0.00585665
0.00664723
0.00752037
0.00846916
0.00948557
0.0105606
0.0116842
0.0128452
0.0140316
0.0152308
0.0164291
0.0176123
0.0187658
0.0198739
0.0209209
0.0218896
0.0227649
0.0235293
0.0241692
0.00492131
0.00527078
0.00571248
0.00624438
0.00686321
0.00756469
0.00834352
0.00919353
0.0101075
0.0110775
0.0120943
0.0131479
0.0142274
0.0153213
0.0164173
0.0175021
0.0185625
0.0195841
0.0205526
0.0214529
0.0222707
0.0229911
0.0236031
0.00613683
0.00643
0.00680841
0.00727036
0.00781307
0.00843284
0.00912498
0.00988403
0.0107036
0.0115764
0.0124944
0.0134484
0.0144287
0.0154247
0.0164253
0.0174184
0.0183918
0.0193326
0.0202279
0.021064
0.0218282
0.0225078
0.0230914
0.00727216
0.00751463
0.00783576
0.00823416
0.00870749
0.00925255
0.00986526
0.0105408
0.0112735
0.0120568
0.0128835
0.0137455
0.0146339
0.0155391
0.016451
0.0173588
0.0182513
0.0191168
0.0199436
0.0207195
0.0214332
0.0220734
0.0226307
0.00832992
0.00852692
0.0087964
0.00913727
0.00954757
0.0100246
0.0105647
0.0111638
0.0118168
0.0125179
0.0132607
0.0140378
0.0148413
0.0156625
0.0164924
0.017321
0.0181383
0.0189337
0.0196967
0.0204163
0.0210825
0.0216852
0.0222161
0.00931252
0.00946893
0.00969205
0.00998103
0.0103343
0.0107495
0.0112236
0.011753
0.0123331
0.012959
0.0136247
0.0143238
0.0150491
0.015793
0.0165471
0.0173025
0.0180502
0.0187806
0.0194842
0.0201513
0.0207727
0.0213396
0.0218446
0.0102224
0.0103427
0.0105243
0.0107667
0.0110686
0.0114279
0.0118422
0.0123081
0.0128219
0.013379
0.0139743
0.014602
0.0152557
0.0159284
0.0166128
0.0173008
0.0179842
0.0186544
0.0193029
0.019921
0.0205005
0.0210334
0.021513
0.0110617
0.0111501
0.0112948
0.0114955
0.0117512
0.0120602
0.0124203
0.0128289
0.0132825
0.0137772
0.0143084
0.0148709
0.0154591
0.0160668
0.0166872
0.0173133
0.0179376
0.0185523
0.0191499
0.0197225
0.0202626
0.0207633
0.0212184
0.0118325
0.0118927
0.0120048
0.0121683
0.0123827
0.0126466
0.0129582
0.0133151
0.0137143
0.0141525
0.0146255
0.0151289
0.0156576
0.0162059
0.016768
0.0173375
0.0179076
0.0184715
0.0190221
0.0195526
0.0200561
0.0205264
0.0209578
0.0125367
0.0125723
0.0126555
0.0127862
0.0129639
0.0131876
0.0134557
0.0137662
0.0141166
0.0145039
0.0149245
0.0153744
0.0158492
0.0163439
0.016853
0.017371
0.0178917
0.0184091
0.0189168
0.0194084
0.019878
0.0203198
0.0207285
0.0131762
0.0131902
0.0132481
0.0133498
0.0134951
0.0136831
0.0139125
0.0141817
0.0144885
0.0148303
0.015204
0.0156059
0.0160323
0.0164785
0.0169399
0.0174114
0.0178874
0.0183625
0.018831
0.0192872
0.0197255
0.0201407
0.020528
0.0137521
0.0137475
0.0137833
0.0138597
0.0139765
0.0141331
0.0143285
0.0145611
0.0148293
0.0151307
0.0154626
0.0158218
0.0162049
0.0166079
0.0170266
0.0174563
0.0178922
0.0183292
0.0187623
0.0191862
0.0195959
0.0199867
0.0203539
0.0142655
0.0142449
0.0142618
0.0143163
0.0144084
0.0145376
0.0147031
0.0149038
0.015138
0.0154039
0.015699
0.0160205
0.0163654
0.0167302
0.0171109
0.0175036
0.0179037
0.0183068
0.0187082
0.0191031
0.019487
0.0198555
0.0202042
0.0147173
0.0146832
0.0146839
0.0147196
0.0147904
0.0148961
0.0150359
0.0152088
0.0154137
0.0156487
0.0159117
0.0162005
0.016512
0.0168433
0.0171909
0.0175511
0.0179198
0.018293
0.0186664
0.0190357
0.0193965
0.0197449
0.0200769
0.0151079
0.0150626
0.0150497
0.0150695
0.0151224
0.015208
0.0153259
0.0154753
0.0156551
0.0158637
0.0160994
0.01636
0.016643
0.0169456
0.0172646
0.0175968
0.0179384
0.0182857
0.0186348
0.0189818
0.0193225
0.0196533
0.0199703
0.0154373
0.0153828
0.0153587
0.0153655
0.0154035
0.0154725
0.0155723
0.0157021
0.015861
0.0160476
0.0162604
0.0164975
0.0167566
0.0170351
0.0173302
0.0176388
0.0179576
0.0182831
0.0186117
0.0189396
0.0192633
0.0195789
0.0198831
0.0157049
0.015643
0.0156101
0.0156065
0.0156326
0.0156884
0.0157737
0.0158877
0.0160298
0.0161988
0.0163932
0.0166113
0.016851
0.01711
0.0173858
0.0176753
0.0179756
0.0182834
0.0185953
0.0189077
0.0192173
0.0195205
0.019814
0.0159095
0.0158421
0.0158025
0.0157911
0.0158083
0.0158541
0.0159284
0.0160305
0.0161599
0.0163154
0.0164958
0.0166995
0.0169246
0.0171688
0.0174297
0.0177048
0.0179909
0.0182851
0.0185842
0.0188848
0.0191835
0.0194771
0.0197623
0.016049
0.015978
0.0159339
0.0159173
0.0159285
0.0159675
0.0160343
0.0161284
0.0162491
0.0163956
0.0165665
0.0167604
0.0169754
0.0172096
0.0174605
0.0177256
0.0180021
0.0182871
0.0185774
0.0188698
0.0191612
0.0194482
0.0197276
0.0161208
0.0160479
0.0160015
0.0159822
0.0159903
0.0160259
0.0160889
0.0161788
0.0162952
0.0164369
0.016603
0.0167919
0.0170018
0.0172308
0.0174765
0.0177366
0.0180081
0.0182883
0.0185741
0.0188624
0.0191499
0.0194335
0.01971
0.0102106
0.0103254
0.0104664
0.0106333
0.0108259
0.0110436
0.0112856
0.0115511
0.011839
0.0121479
0.0124763
0.0128228
0.0131854
0.0135625
0.0139519
0.0143517
0.0147597
0.0151738
0.0155918
0.0160116
0.0164307
0.0168471
0.0101468
0.0102649
0.0104094
0.0105802
0.0107768
0.0109988
0.0112452
0.0115151
0.0118075
0.0121209
0.0124539
0.0128047
0.0131716
0.0135527
0.013946
0.0143494
0.0147609
0.0151782
0.0155993
0.0160218
0.0164435
0.0168622
0.0100229
0.0101474
0.0102989
0.0104772
0.0106818
0.0109121
0.0111671
0.0114458
0.011747
0.0120691
0.0124108
0.01277
0.0131451
0.0135341
0.0139349
0.0143455
0.0147636
0.0151871
0.0156139
0.0160418
0.0164684
0.0168917
0.00984171
0.00997576
0.0101377
0.0103272
0.0105436
0.0107861
0.0110538
0.0113454
0.0116595
0.0119946
0.012349
0.0127206
0.0131077
0.0135082
0.0139199
0.0143407
0.0147684
0.0152009
0.015636
0.0160715
0.0165052
0.0169349
0.00960542
0.00975229
0.00992817
0.0101325
0.0103646
0.0106234
0.0109078
0.0112164
0.0115476
0.0118996
0.0122706
0.0126584
0.0130611
0.0134764
0.0139022
0.0143362
0.0147762
0.0152202
0.0156658
0.016111
0.0165536
0.0169917
0.00931566
0.00947875
0.00967218
0.00989524
0.010147
0.0104262
0.0107315
0.0110612
0.0114136
0.0117865
0.0121779
0.0125855
0.0130072
0.0134406
0.0138833
0.0143333
0.0147881
0.0152457
0.0157039
0.0161606
0.0166139
0.0170616
0.00897363
0.00915654
0.00937139
0.00961721
0.00989278
0.0101966
0.0105271
0.0108822
0.0112598
0.0116576
0.0120732
0.0125042
0.0129482
0.0134027
0.0138652
0.0143335
0.0148053
0.0152785
0.015751
0.0162208
0.016686
0.0171447
0.00858021
0.00878682
0.00902726
0.00930015
0.00960401
0.00993699
0.010297
0.0106818
0.0110889
0.0115155
0.0119591
0.012417
0.0128864
0.0133648
0.0138496
0.0143385
0.0148292
0.0153196
0.0158078
0.0162919
0.0167701
0.0172409
0.00813599
0.00837074
0.00864115
0.00894576
0.00928261
0.00964944
0.0100437
0.0104627
0.0109035
0.0113631
0.0118384
0.0123265
0.0128244
0.0133293
0.0138387
0.0143501
0.0148613
0.0153703
0.0158752
0.0163745
0.0168666
0.0173501
0.00764121
0.00790877
0.00821421
0.00855561
0.00893056
0.00933629
0.00976976
0.0102277
0.0107066
0.0112032
0.0117139
0.0122355
0.0127648
0.0132987
0.0138347
0.0143702
0.0149031
0.0154316
0.015954
0.0164691
0.0169755
0.0174721
0.00709611
0.00740175
0.00774765
0.00813137
0.00854995
0.00900001
0.00947787
0.00997966
0.0105014
0.0110391
0.011589
0.0121473
0.0127105
0.0132756
0.0138398
0.0144007
0.0149562
0.0155048
0.016045
0.0165761
0.0170969
0.0176067
0.00650079
0.00685034
0.00724271
0.00767482
0.00814304
0.00864326
0.00917108
0.00972193
0.0102912
0.0108743
0.0114669
0.012065
0.0126647
0.0132629
0.0138566
0.0144436
0.0150222
0.015591
0.016149
0.0166958
0.0172307
0.0177536
0.00585531
0.00625529
0.00670076
0.00718791
0.00771232
0.00826899
0.0088527
0.00945808
0.0100798
0.0107126
0.0113516
0.0119923