/*--------------------------------*- C++ -*----------------------------------*\
  =========                 |
  \\      /  F ield         | OpenFOAM: The Open Source CFD Toolbox
   \\    /   O peration     | Website:  https://openfoam.org
    \\  /    A nd           | Version:  7
     \\/     M anipulation  |
\*---------------------------------------------------------------------------*/
FoamFile
{
    version     2.0;
    format      ascii;
    class       surfaceScalarField;
    location    "260";
    object      phi;
}
// * * * * * * * * * * * * * * * * * * * * * * * * * * * * * * * * * * * * * //

dimensions      [0 3 -1 0 0 0 0];

internalField   nonuniform List<scalar> 
8923
(
0.000301003
0.00948668
-0.009483
0.000330414
0.00932378
-0.00935319
0.000444028
0.00812896
-0.00824257
0.000629852
0.0056618
-0.00584763
0.000841961
0.00228792
-0.00250003
0.0010487
-0.0013533
0.00114656
0.00122845
-0.00462261
0.00444287
0.0013661
-0.00706054
0.00692289
0.00145537
-0.00854699
0.00845773
0.00149837
-0.00927299
0.00922999
0.0015069
-0.00951756
0.00950904
0.00149094
-0.00947443
0.0094904
0.00144353
-0.00940489
0.00945229
0.00135834
-0.00960134
0.00968653
0.00126293
-0.00981653
0.00991194
0.00121035
-0.00907773
0.00913031
0.00123165
-0.00657174
0.00655044
0.00131625
-0.00259094
0.00250634
0.00143167
0.00171372
-0.00182914
0.00154225
0.00528214
-0.00539273
0.00162369
0.00769432
-0.00777576
0.00167221
0.00903266
-0.00908118
0.00955828
-0.00957974
0.000306223
0.0094769
0.000353659
0.00927634
0.000481988
0.00800063
0.000672167
0.00547162
0.000880207
0.00207988
0.00107862
-0.00155172
0.00124848
-0.00479247
0.00137638
-0.00718845
0.00145737
-0.00862798
0.00149392
-0.00930954
0.00149745
-0.00952109
0.00147813
-0.00945511
0.00142903
-0.00935578
0.0013425
-0.00951481
0.00124497
-0.009719
0.00119075
-0.00902351
0.00121321
-0.00659421
0.00130195
-0.00267968
0.00142291
0.00159276
0.00153903
0.00516603
0.00162546
0.00760788
0.00167829
0.00897983
0.00953347
0.000314745
0.00945274
0.000380266
0.00921082
0.000522111
0.00785878
0.000715291
0.00527844
0.000918423
0.00187675
0.00110806
-0.00174136
0.00126783
-0.00495223
0.00138596
-0.00730658
0.00145875
-0.00870077
0.00148901
-0.00933981
0.00148773
-0.00951982
0.00146521
-0.00943259
0.00141461
-0.00930519
0.00132702
-0.00942722
0.00122753
-0.0096195
0.00117152
-0.0089675
0.00119481
-0.00661749
0.00128739
-0.00277226
0.00141367
0.00146647
0.00153522
0.00504448
0.00162667
0.00751644
0.00168389
0.00892262
0.00950523
0.000326591
0.00941339
0.00041003
0.00912738
0.000564102
0.00770471
0.000759007
0.00508354
0.000956469
0.00167929
0.00113694
-0.00192183
0.00128648
-0.00510177
0.00139484
-0.00741494
0.0014595
-0.00876543
0.00148365
-0.00936396
0.00147775
-0.00951392
0.00145218
-0.00940702
0.00140029
-0.00925329
0.00131192
-0.00933886
0.00121063
-0.00951821
0.0011527
-0.00890957
0.00117647
-0.00664126
0.00127254
-0.00286834
0.00140393
0.00133509
0.00153083
0.00491759
0.00162731
0.00741995
0.00168898
0.00886095
0.00947346
0.000341742
0.00935822
0.000442714
0.00902641
0.000607659
0.00753977
0.0008031
0.0048881
0.000994205
0.00148818
0.00116518
-0.0020928
0.00130439
-0.00524099
0.00140301
-0.00751355
0.00145965
-0.00882207
0.00147786
-0.00938217
0.00146754
-0.00950359
0.00143907
-0.00937855
0.00138607
-0.0092003
0.0012972
-0.00924999
0.00119431
-0.00941532
0.00113433
-0.00884959
0.0011582
-0.00666513
0.00125743
-0.00296757
0.00139368
0.00119883
0.00152583
0.00478544
0.00162736
0.00731841
0.00169355
0.00879476
0.00943806
0.000360135
0.00928676
0.000478049
0.0089085
0.00065248
0.00736534
0.000847353
0.00469322
0.0010315
0.00130404
0.0011927
-0.002254
0.00132154
-0.00536983
0.00141047
-0.00760248
0.0014592
-0.00887081
0.00147165
-0.00939462
0.0014571
-0.00948903
0.00142588
-0.00934733
0.00137195
-0.00914637
0.00128285
-0.00916088
0.00117857
-0.00931104
0.00111642
-0.00878745
0.00114004
-0.00668874
0.00124204
-0.00306958
0.00138291
0.00105796
0.0015202
0.00464815
0.0016268
0.00721181
0.00169758
0.00872399
0.00939893
0.000381663
0.00919873
0.000515744
0.00877442
0.000698266
0.00718282
0.000891554
0.00449994
0.00106821
0.00112738
0.00121945
-0.00240524
0.0013379
-0.00548827
0.00141722
-0.0076818
0.00145817
-0.00891176
0.00146504
-0.00940149
0.00144645
-0.00947044
0.00141263
-0.00931351
0.00135794
-0.00909168
0.00126887
-0.00907182
0.00116341
-0.00920558
0.00109901
-0.00872305
0.00112198
-0.00671172
0.00122639
-0.00317398
0.00137162
0.000912734
0.00151394
0.00450583
0.00162561
0.00710015
0.00170103
0.00864856
0.00935598
0.000406179
0.00909406
0.000555486
0.00862511
0.000744719
0.00699358
0.000935492
0.00430916
0.00110423
0.000958645
0.00124536
-0.00254638
0.00135344
-0.00559634
0.00142326
-0.00775162
0.00145656
-0.00894507
0.00145803
-0.00940296
0.0014356
-0.00944801
0.00139931
-0.00927723
0.00134402
-0.00903638
0.00125524
-0.00898305
0.00114884
-0.00909917
0.00108211
-0.00865632
0.00110406
-0.00673367
0.00121046
-0.00328038
0.00135978
0.000763412
0.00150703
0.00435858
0.00162377
0.00698341
0.00170389
0.00856844
0.00930912
0.0004335
0.00897291
0.000596951
0.00846166
0.000791548
0.00679899
0.000978964
0.00412175
0.00113941
0.000798197
0.00127037
-0.00267734
0.00136813
-0.0056941
0.00142858
-0.00781207
0.00145438
-0.00897087
0.00145063
-0.0093992
0.00142456
-0.00942193
0.00138595
-0.00923862
0.00133018
-0.00898062
0.00124196
-0.00889482
0.00113486
-0.00899207
0.00106575
-0.00858721
0.0010863
-0.00675423
0.00119427
-0.00338835
0.0013474
0.000610277
0.00149945
0.00420654
0.00162125
0.0068616
0.00170613
0.00848356
0.00925825
0.000463407
0.00883563
0.000639803
0.00828526
0.000838466
0.00660032
0.00102177
0.00393844
0.00117366
0.00064631
0.00129442
-0.00279811
0.00138196
-0.00578163
0.00143319
-0.0078633
0.00145164
-0.00898933
0.00144285
-0.00939041
0.00141333
-0.00939242
0.00137253
-0.00919782
0.00131643
-0.00892452
0.00122899
-0.00880738
0.00112145
-0.00888454
0.00104994
-0.00851569
0.0010687
-0.00677299
0.00117781
-0.00349746
0.00133447
0.000453618
0.00149118
0.00404983
0.00161804
0.00673475
0.00170772
0.00839388
0.0092033
0.000495656
0.00868279
0.000683705
0.00809721
0.000885197
0.00639883
0.00106373
0.00375991
0.00120686
0.000503182
0.00131747
-0.00290872
0.0013949
-0.00585906
0.00143707
-0.00790547
0.00144835
-0.00900061
0.00143469
-0.00937675
0.00140192
-0.00935965
0.00135906
-0.00915496
0.00130275
-0.0088682
0.00121631
-0.00872094
0.00110861
-0.00877683
0.00103469
-0.00844177
0.0010513
-0.0067896
0.0011611
-0.00360725
0.00132098
0.000293737
0.00148222
0.00388858
0.00161411
0.00660286
0.00170864
0.00829935
0.00176778
0.00914416
0.00965721
0.000529976
0.00851515
0.000728321
0.00789887
0.000931472
0.00619568
0.00110465
0.00358673
0.0012389
0.000368931
0.00133945
-0.00300927
0.00140693
-0.00592654
0.00144022
-0.00793876
0.0014445
-0.00900488
0.00142616
-0.00935841
0.00139033
-0.00932383
0.00134555
-0.00911018
0.00128911
-0.00881177
0.00120391
-0.00863574
0.00109631
-0.00866924
0.00102003
-0.00836549
0.00103412
-0.0068037
0.00114413
-0.00371726
0.00130692
0.000130949
0.00147255
0.00372295
0.00160945
0.00646595
0.00170887
0.00819993
0.00177226
0.00908077
0.00963194
0.000566078
0.00833367
0.000773319
0.00769163
0.000977034
0.00599196
0.00114437
0.0034194
0.0012697
0.000243594
0.00136034
-0.00309991
0.00141803
-0.00598423
0.00144265
-0.00796338
0.0014401
-0.00900234
0.00141725
-0.00933555
0.00137857
-0.00928514
0.00133197
-0.00906359
0.00127552
-0.00875531
0.00119174
-0.00855196
0.00108453
-0.00856204
0.00100595
-0.00828691
0.00101719
-0.00681493
0.00112693
-0.003827
0.00129229
-3.44163e-05
0.00146216
0.00355309
0.00160404
0.00632407
0.00170837
0.00809559
0.0017761
0.00901304
0.00960276
0.000603659
0.00813944
0.00081838
0.00747691
0.00102164
0.0057887
0.00118272
0.00325832
0.00129918
0.00012713
0.00138009
-0.00318081
0.0014282
-0.00603235
0.00144434
-0.00797952
0.00143517
-0.00899317
0.00140797
-0.00930835
0.00136661
-0.00924379
0.00131834
-0.00901532
0.00126194
-0.0086989
0.00117977
-0.00846979
0.00107324
-0.00845551
0.000992467
-0.00820613
0.00100052
-0.00682298
0.00110953
-0.003936
0.00127706
-0.000201955
0.00145103
0.00337912
0.00159785
0.00617725
0.00170713
0.00798631
0.00177927
0.0089409
0.00956953
0.000642405
0.00793372
0.000863191
0.00725612
0.00106506
0.00558684
0.00121956
0.00310382
0.00132727
1.94167e-05
0.00139866
-0.0032522
0.00143741
-0.00607109
0.00144529
-0.0079874
0.00142969
-0.00897756
0.00139832
-0.00927699
0.00135447
-0.00919994
0.00130465
-0.0089655
0.00124836
-0.00864261
0.00116797
-0.0083894
0.00106241
-0.00834995
0.00097957
-0.00812329
0.000984154
-0.00682757
0.0010919
-0.00404375
0.00126129
-0.000371345
0.00143916
0.00320126
0.00159087
0.00602554
0.00170511
0.00787207
0.00178173
0.00886428
0.00953213
0.000681999
0.00771786
0.000907458
0.00703066
0.00110707
0.00538723
0.00125476
0.00295612
0.00135389
-7.97124e-05
0.00141604
-0.00331435
0.00144565
-0.0061007
0.0014455
-0.00798725
0.00142367
-0.00895573
0.00138829
-0.00924161
0.00134214
-0.00915379
0.00129089
-0.00891425
0.00123477
-0.0085865
0.0011563
-0.00831093
0.00105199
-0.00824564
0.000967256
-0.00803855
0.000968118
-0.00682843
0.00107409
-0.00414972
0.00124496
-0.000542213
0.00142653
0.00301968
0.00158308
0.00586899
0.0017023
0.00775285
0.00178346
0.00878311
0.00949044
0.000722124
0.0074933
0.000950901
0.00680188
0.00114749
0.00519064
0.00128823
0.00281538
0.00137898
-0.000170464
0.00143219
-0.00336756
0.00145292
-0.00612142
0.00144497
-0.0079793
0.00141711
-0.00892787
0.00137789
-0.00920239
0.0013296
-0.0091055
0.00127704
-0.00886169
0.00122114
-0.00853059
0.00114473
-0.00823453
0.00104195
-0.00814286
0.000955516
-0.00795212
0.000952439
-0.00682535
0.00105612
-0.0042534
0.00122806
-0.000714158
0.00141315
0.0028346
0.00157446
0.00570768
0.00169866
0.00762865
0.00178443
0.00869735
0.00944434
0.000762467
0.00726154
0.000993258
0.00657109
0.00118612
0.00499778
0.00131985
0.00268165
0.00140251
-0.000253122
0.00144711
-0.00341215
0.00145919
-0.00613351
0.00144368
-0.00796379
0.00141001
-0.00889419
0.0013671
-0.00915948
0.00131685
-0.00905524
0.00126311
-0.00880795
0.00120745
-0.00847493
0.00113321
-0.00816029
0.00103224
-0.00804188
0.000944332
-0.00786422
0.000937146
-0.00681816
0.00103803
-0.00435428
0.00121062
-0.000886753
0.00139901
0.00264622
0.00156501
0.00554168
0.00169418
0.00749948
0.0017846
0.00860693
0.00939373
0.000802726
0.0070241
0.00103428
0.00633953
0.00122282
0.00480924
0.00134954
0.00255493
0.00142444
-0.000328018
0.00146076
-0.00344848
0.00146448
-0.00613723
0.00144164
-0.00794096
0.00140237
-0.00885493
0.00135593
-0.00911304
0.00130387
-0.00900318
0.00124907
-0.00875315
0.00119368
-0.00841953
0.00112171
-0.00808832
0.0010228
-0.00794298
0.000933682
-0.0077751
0.000922266
-0.00680675
0.00101986
-0.00445187
0.00119266
-0.00105956
0.0013841
0.00245478
0.00155469
0.00537108
0.00168883
0.00736534
0.00178394
0.00851182
0.0093385
0.000842608
0.0067825
0.00107376
0.00610838
0.00125745
0.00462555
0.00137724
0.00243514
0.00144474
-0.000395521
0.00147315
-0.00347688
0.00146876
-0.00613284
0.00143885
-0.00791104
0.0013942
-0.00881028
0.00134438
-0.00906321
0.00129066
-0.00894947
0.00123493
-0.00869742
0.00117981
-0.00836442
0.00111018
-0.00801869
0.0010136
-0.0078464
0.00092354
-0.00768503
0.000907822
-0.00679103
0.00100165
-0.0045457
0.00117418
-0.00123209
0.00136843
0.00226053
0.00154352
0.00519599
0.00168259
0.00722626
0.00178244
0.00841198
0.00927856
0.000881833
0.00653823
0.00111147
0.00587874
0.00128987
0.00444716
0.00140289
0.00232212
0.00146341
-0.00045604
0.00148426
-0.00349774
0.00147204
-0.00612062
0.00143529
-0.00787429
0.00138548
-0.00876048
0.00133243
-0.00901016
0.00127721
-0.00889425
0.00122066
-0.00864088
0.00116583
-0.00830958
0.00109859
-0.00795144
0.00100458
-0.0077524
0.000913873
-0.00759432
0.000893835
-0.00677099
0.000983451
-0.00463531
0.00115523
-0.00140388
0.00135201
0.00206376
0.00153147
0.00501653
0.00167545
0.00708228
0.00178006
0.00830737
0.00921382
0.00092014
0.00629274
0.00114725
0.00565163
0.00132001
0.0042744
0.00142648
0.00221565
0.00148044
-0.000510004
0.0014941
-0.0035114
0.00147432
-0.00610084
0.00143097
-0.00783094
0.00137623
-0.00870574
0.00132009
-0.00895402
0.00126349
-0.00883765
0.00120626
-0.00858365
0.00115172
-0.00825504
0.00108689
-0.00788661
0.00099569
-0.0076612
0.000904642
-0.00750327
0.000880319
-0.00674667
0.000965317
-0.00472031
0.00113584
-0.0015744
0.00133484
0.00186476
0.00151854
0.00483283
0.00166738
0.00693344
0.00177677
0.00819799
0.0091442
0.000957281
0.00604739
0.00118093
0.00542798
0.00134778
0.00410755
0.00144799
0.00211544
0.00149585
-0.000557865
0.00150267
-0.00351822
0.00147558
-0.00607375
0.00142588
-0.00778124
0.00136642
-0.00864628
0.00130735
-0.00889495
0.0012495
-0.0087798
0.00119171
-0.00852585
0.00113745
-0.00820078
0.00107504
-0.00782421
0.000986871
-0.00757303
0.000895806
-0.00741221
0.000867284
-0.00671815
0.0009473
-0.00480033
0.00111604
-0.00174314
0.00131694
0.00166386
0.00150472
0.00464505
0.00165837
0.00677979
0.00177255
0.00808381
0.00906963
0.000993026
0.00580348
0.00121237
0.00520864
0.00137313
0.00394679
0.00146742
0.00202114
0.00150964
-0.000600082
0.00150996
-0.00351853
0.00147583
-0.00603962
0.00142002
-0.00772542
0.00135608
-0.00858234
0.0012942
-0.00883307
0.00123522
-0.00872082
0.00117699
-0.00846762
0.00112301
-0.0081468
0.00106302
-0.00776421
0.00097807
-0.00748809
0.000887319
-0.00732146
0.000854731
-0.00668556
0.00092945
-0.00487505
0.00109589
-0.00190958
0.00129833
0.00146142
0.00149002
0.00445335
0.0016484
0.00662141
0.00176737
0.00796484
0.00899006
0.00102716
0.00124147
0.00499433
0.00139605
0.00379221
0.00148482
0.00193237
0.00152185
-0.000637115
0.00151599
-0.00351267
0.00147507
-0.0059987
0.00141339
-0.00766374
0.00134518
-0.00851413
0.00128065
-0.00876854
0.00122064
-0.00866081
0.00116209
-0.00840907
0.00110839
-0.00809311
0.00105077
-0.00770659
0.000969233
-0.00740655
0.000879131
-0.00723136
0.000842656
-0.00664908
0.000911819
-0.00494421
0.00107544
-0.0020732
0.00127903
0.00125784
0.00147444
0.00425794
0.00163747
0.00645838
0.00176122
0.0078411
0.00890543
0.00126813
0.00478571
0.00141653
0.00364382
0.00150022
0.00184867
0.00153252
-0.000669414
0.00152078
-0.00350093
0.0014733
-0.00595122
0.00140599
-0.00759643
0.00133373
-0.00844187
0.00126668
-0.00870149
0.00120574
-0.00859988
0.00114699
-0.00835032
0.00109357
-0.00803969
0.00103827
-0.00765128
0.000960305
-0.00732859
0.00087119
-0.00714224
0.000831045
-0.00660894
0.000894454
-0.00500762
0.00105475
-0.00223349
0.00125907
0.00105351
0.00145798
0.00405904
0.00162556
0.0062908
0.00175407
0.00771259
0.00881571
0.00129229
0.00458329
0.00143459
0.00350151
0.00151369
0.00176958
0.00154168
-0.000697408
0.00152432
-0.00348358
0.00147053
-0.00589742
0.00139782
-0.00752371
0.00132173
-0.00836578
0.0012523
-0.00863206
0.00119051
-0.00853809
0.00113167
-0.00829148
0.00107854
-0.00798655
0.00102548
-0.00759822
0.000951232
-0.00725434
0.000863443
-0.00705445
0.000819879
-0.00656537
0.000877395
-0.00506514
0.00103389
-0.00238998
0.0012385
0.0008489
0.00144065
0.00385689
0.00161267
0.00611878
0.0017459
0.00757936
0.00872088
0.00131392
0.00438748
0.0014503
0.00336513
0.00152531
0.00169458
0.00154939
-0.000721493
0.00152665
-0.00346083
0.00146675
-0.00583752
0.00138887
-0.00744584
0.00130917
-0.00828608
0.00123749
-0.00856038
0.00117494
-0.00847554
0.00111613
-0.00823267
0.00106328
-0.00793371
0.00101237
-0.00754731
0.000941957
-0.00718393
0.000855836
-0.00696833
0.000809131
-0.00651867
0.000860676
-0.00511668
0.00101291
-0.00254222
0.00121735
0.000644459
0.00142248
0.00365177
0.0015988
0.00594245
0.0017367
0.00744145
0.00862091
0.00133304
0.00419858
0.00146375
0.00323442
0.00153518
0.00162315
0.0015557
-0.00074202
0.00152777
-0.0034329
0.00146197
-0.00577172
0.00137916
-0.00736303
0.00129605
-0.00820298
0.00122226
-0.00848659
0.00115901
-0.00841229
0.00110033
-0.00817398
0.00104779
-0.00788117
0.000998918
-0.00749844
0.000932428
-0.00711744
0.000848314
-0.00688422
0.000798768
-0.00646912
0.00084432
-0.00516223
0.000991906
-0.00268981
0.00119569
0.000440674
0.00140347
0.00344398
0.00158394
0.00576199
0.00172646
0.00729894
0.00851581
0.00134967
0.00401676
0.00147506
0.00310903
0.00154342
0.00155479
0.00156068
-0.000759281
0.0015277
-0.00339991
0.00145619
-0.00570021
0.00136867
-0.00727551
0.00128238
-0.00811669
0.00120661
-0.00841082
0.00114272
-0.0083484
0.00108426
-0.00811553
0.00103205
-0.00782895
0.000985097
-0.00745149
0.000922592
-0.00705494
0.000840821
-0.00680245
0.000788752
-0.00641705
0.000828342
-0.00520182
0.00097093
-0.00283239
0.00117357
0.000238032
0.00138367
0.00323389
0.00156811
0.00557755
0.00171516
0.00715188
0.00840559
0.00136392
0.00384204
0.00148439
0.00298857
0.00155018
0.00148899
0.00156439
-0.000773493
0.00152645
-0.00336197
0.00144942
-0.00562318
0.00135742
-0.00718352
0.00126814
-0.00802741
0.00119052
-0.0083332
0.00112605
-0.00828393
0.00106791
-0.00805739
0.00101605
-0.00777709
0.000970886
-0.00740633
0.000912396
-0.00699645
0.000833301
-0.00672335
0.000779042
-0.0063628
0.000812745
-0.00523553
0.000950059
-0.00296971
0.00115108
3.70079e-05
0.00136311
0.00302186
0.00155131
0.00538935
0.0017028
0.00700039
0.00829028
0.00137595
0.00367438
0.00149194
0.00287257
0.00155562
0.00142532
0.00156691
-0.00078478
0.00152405
-0.00331911
0.00144166
-0.00554079
0.00134541
-0.00708727
0.00125335
-0.00793535
0.001174
-0.00825385
0.00110899
-0.00821891
0.00105125
-0.00799965
0.000999776
-0.00772562
0.000956266
-0.00736282
0.00090179
-0.00694197
0.000825696
-0.00664726
0.000769596
-0.0063067
0.000797523
-0.00526345
0.000929337
-0.00310152
0.00112828
-0.000161936
0.00134184
0.00280831
0.00153357
0.00519762
0.00168938
0.00684457
0.00816994
0.00138597
0.0035136
0.00149799
0.00276054
0.00155991
0.0013634
0.00156829
-0.00079316
0.0015205
-0.00327132
0.00143291
-0.0054532
0.00133263
-0.00698699
0.00123798
-0.00784069
0.00115704
-0.00817292
0.00109152
-0.00815339
0.00103426
-0.00794238
0.000983223
-0.00767458
0.000941223
-0.00732082
0.000890724
-0.00689147
0.000817947
-0.00657448
0.00076037
-0.00624912
0.000782652
-0.00528573
0.000908822
-0.00322769
0.00110522
-0.000358339
0.00131991
0.00259362
0.0015149
0.00500263
0.0016749
0.00668458
0.00804462
0.0013943
0.00335944
0.00150284
0.00265201
0.00156326
0.00130298
0.00156862
-0.000798515
0.00151582
-0.00321853
0.00142319
-0.00536056
0.0013191
-0.0068829
0.00122204
-0.00774364
0.00113964
-0.00809052
0.00107365
-0.0080874
0.00101692
-0.00788565
0.000966383
-0.00762404
0.000925749
-0.00728019
0.000879159
-0.00684488
0.000809999
-0.00650532
0.000751324
-0.00619044
0.000768113
-0.00530252
0.000888483
-0.00334806
0.00108204
-0.000551899
0.00129742
0.00237824
0.00149537
0.00480467
0.00165938
0.00652057
0.00791441
0.00140139
0.0032116
0.00150689
0.00254651
0.00156589
0.00124398
0.00156793
-0.000800561
0.00151001
-0.0031606
0.0014125
-0.00526305
0.00130485
-0.00677524
0.00120559
-0.00764438
0.00112184
-0.00800677
0.00105542
-0.00802098
0.000999267
-0.00782951
0.000949269
-0.00757404
0.000909857
-0.00724078
0.000867068
-0.00680209
0.000801802
-0.00644005
0.000742427
-0.00613107
0.000753876
-0.00531397
0.000868351
-0.00346254
0.0010588
-0.000742346
0.00127446
0.00216257
0.00147504
0.0046041
0.00164284
0.00635277
0.00777945
0.00140779
0.00306976
0.00151057
0.00244372
0.001568
0.00118655
0.00156627
-0.000798831
0.00150306
-0.00309739
0.00140087
-0.00516086
0.00128991
-0.00666428
0.00118864
-0.00754311
0.00110366
-0.00792179
0.00103681
-0.00795413
0.000981271
-0.00777396
0.000931872
-0.00752464
0.000893538
-0.00720244
0.000854407
-0.00676296
0.000793287
-0.00637893
0.000733626
-0.00607141
0.000739902
-0.00532025
0.000848453
-0.00357109
0.0010356
-0.000929495
0.00125119
0.00194699
0.00145401
0.00440127
0.00162535
0.00618143
0.00763988
0.00141433
0.00151454
0.00234351
0.00156995
0.00113114
0.00156379
-0.000792669
0.00149501
-0.00302862
0.00138822
-0.00505408
0.0012741
-0.00655016
0.00117094
-0.00743994
0.00108484
-0.00783569
0.00101761
-0.0078869
0.000962734
-0.00771909
0.000914033
-0.00747594
0.000876677
-0.00716509
0.000841055
-0.00672734
0.000784319
-0.0063222
0.000724815
-0.0060119
0.000726087
-0.00532152
0.000828699
-0.0036737
0.00101248
-0.00111328
0.00122773
0.00173174
0.00143245
0.00419655
0.00160702
0.00600686
0.00749594
0.00151993
0.00224599
0.00157246
0.00107861
0.0015609
-0.00078111
0.001486
-0.00295372
0.00137443
-0.0049425
0.0012571
-0.00643284
0.00115209
-0.00733493
0.00106499
-0.0077486
0.000997495
-0.0078194
0.000943413
-0.007665
0.000895579
-0.00742811
0.000859163
-0.00712867
0.000826913
-0.00669509
0.000774807
-0.00627009
0.000715946
-0.00595304
0.000712376
-0.00531795
0.000808954
-0.00377028
0.000989346
-0.00129367
0.00120417
0.00151692
0.00141053
0.00399019
0.00158801
0.00582938
0.00734793
0.00152715
0.0021518
0.00157532
0.00103044
0.00155711
-0.000762902
0.00147589
-0.00287249
0.00135993
-0.00482655
0.00123985
-0.00631275
0.00113326
-0.00722834
0.00104529
-0.00766062
0.000977489
-0.0077516
0.000924137
-0.00761165
0.000877182
-0.00738115
0.000841559
-0.00709305
0.000812434
-0.00666596
0.000765114
-0.00622277
0.000707399
-0.00589533
0.000699215
-0.00530977
0.000789597
-0.00386066
0.000966485
-0.00147056
0.00118084
0.00130256
0.00138861
0.00378243
0.00156864
0.00564936
0.00719623
0.00153345
0.00206291
0.00157529
0.000988601
0.0015503
-0.000737911
0.00146483
-0.00278703
0.00134711
-0.00470882
0.00122604
-0.00619169
0.00111851
-0.00712081
0.00102948
-0.0075716
0.000960804
-0.00768292
0.000907554
-0.0075584
0.000861039
-0.00733464
0.000825775
-0.00705779
0.000799282
-0.00663947
0.000756731
-0.00618022
0.000700792
-0.00583939
0.000688607
-0.00529758
0.000772944
-0.003945
0.000946185
-0.0016438
0.00115977
0.00108898
0.00136834
0.00357386
0.00155025
0.00546745
0.0070415
0.00573369
0.00146167
0.00631273
0.000409553
0.0067687
-0.00119387
0.00701609
-0.00303442
0.00704621
-0.00473894
0.00689521
-0.0060407
0.00662351
-0.0068491
0.00628984
-0.00723794
0.00594578
-0.00733885
0.00561758
-0.0072302
0.00529923
-0.00701629
0.0050016
-0.00676015
0.00473093
-0.0063688
0.00442925
-0.00587854
0.00406126
-0.0054714
0.00372037
-0.0049567
0.00355197
-0.00377659
0.00361712
-0.00170895
0.00386292
0.000843169
0.00421378
0.003223
0.00457816
0.00510307
0.00486519
0.00675447
0.00870177
0.00634285
0.00093518
0.00685364
-0.000101234
0.00722565
-0.00156589
0.00740168
-0.00321044
0.00736336
-0.00470062
0.00714945
-0.00582679
0.00683124
-0.00653089
0.00647138
-0.00687808
0.00611359
-0.00698106
0.00578023
-0.00689685
0.00546191
-0.00669797
0.00515964
-0.00645789
0.00488662
-0.00609578
0.00459981
-0.00559173
0.00425082
-0.00512241
0.00390647
-0.00461234
0.0037126
-0.00358272
0.00374311
-0.00173946
0.00398006
0.000606222
0.00433609
0.00286697
0.00470711
0.00473205
0.00500335
0.00645822
0.00851131
0.00697604
0.000484669
0.00738803
-0.000513228
0.00766826
-0.00184612
0.0077528
-0.00329498
0.00763836
-0.00458618
0.00737369
-0.00556211
0.00702937
-0.00618658
0.00665917
-0.00650788
0.00629575
-0.00661763
0.00595872
-0.00655982
0.00563953
-0.00637878
0.00533209
-0.00615045
0.00505387
-0.00581756
0.00477791
-0.00531577
0.00444782
-0.00479232
0.00410346
-0.00426799
0.003884
-0.00336325
0.0038912
-0.00174667
0.00411344
0.00038399
0.00446794
0.00251246
0.00484294
0.00435706
0.00514881
0.00615235
0.00830113
0.00756673
0.000121771
0.00787711
-0.000823614
0.00805296
-0.00202197
0.00804613
-0.00328815
0.00786741
-0.00440746
0.00756736
-0.00526207
0.00720816
-0.00582738
0.00683466
-0.00613439
0.00647086
-0.00625382
0.00613351
-0.00622248
0.0058167
-0.00606197
0.00550837
-0.00584211
0.00522604
-0.00553523
0.00495975
-0.00504948
0.00465165
-0.00448423
0.00431419
-0.00393053
0.00407514
-0.0031242
0.00405445
-0.00172598
0.00425956
0.000178886
0.00460777
0.00216425
0.00498371
0.00398112
0.0052991
0.00583696
0.00807048
0.00806431
-0.00015676
0.008276
-0.0010353
0.00835654
-0.00210251
0.00827566
-0.00320727
0.00805277
-0.00418457
0.00773443
-0.00494372
0.00737226
-0.0054652
0.00700303
-0.00576515
0.00664396
-0.00589476
0.00630889
-0.0058874
0.00599596
-0.00574904
0.0056898
-0.00553595
0.00540432
-0.00524975
0.00514537
-0.00479052
0.00486127
-0.00420013
0.00453852
-0.00360778
0.0042845
-0.00287018
0.00423284
-0.00167433
0.00441469
-2.96005e-06
0.00475185
0.00182709
0.00512672
0.00360625
0.00545231
0.00551136
0.00781797
0.00844086
-0.000361124
0.00857047
-0.00116491
0.00857811
-0.00211015
0.00844786
-0.00307702
0.00820212
-0.00393883
0.00788085
-0.00462245
0.00752534
-0.00510969
0.00716584
-0.00540565
0.00681534
-0.00554426
0.00648483
-0.0055569
0.0061769
-0.00544111
0.0058758
-0.00523485
0.00558907
-0.00496302
0.00533481
-0.00453627
0.00507468
-0.00394
0.00477402
-0.00330712
0.00451143
-0.00260758
0.00442648
-0.00158938
0.00457689
-0.000153364
0.00489694
0.00150703
0.00526931
0.00323389
0.00560656
0.00517411
0.00754139
0.00870414
-0.000507134
0.00877369
-0.00123446
0.00873385
-0.00207031
0.00857768
-0.00292085
0.00832666
-0.00368781
0.00801372
-0.00430951
0.00767143
-0.0047674
0.00732518
-0.00505941
0.0069859
-0.00520498
0.00666197
-0.00523297
0.00635969
-0.00513883
0.00606585
-0.00494101
0.00578054
-0.00467771
0.0055286
-0.00428433
0.00529007
-0.00370146
0.00501768
-0.00303474
0.00475528
-0.00234517
0.00463647
-0.00147058
0.00474586
-0.000262748
0.00504099
0.00121189
0.00540901
0.00286587
0.0057598
0.00482333
0.00723821
0.00888306
-0.000610221
0.00891281
-0.00126421
0.00884651
-0.00200401
0.00868175
-0.00275609
0.00843705
-0.00344311
0.00813912
-0.00401158
0.00781377
-0.00444205
0.00748273
-0.00472837
0.00715631
-0.00487855
0.00684076
-0.00491742
0.00654459
-0.00484266
0.00625936
-0.00465578
0.00597865
-0.004397
0.00572766
-0.00403334
0.00550632
-0.00348012
0.00526587
-0.00279429
0.00501418
-0.00209348
0.00486462
-0.00132101
0.00492436
-0.000322491
0.0051842
0.000952061
0.00554405
0.00250602
0.00590973
0.00445765
0.00690635
0.00901054
-0.00068262
0.00901539
-0.00126906
0.00893667
-0.0019253
0.00877373
-0.00259314
0.00854151
-0.00321089
0.00826163
-0.0037317
0.00795485
-0.00413528
0.00763987
-0.00441339
0.00732714
-0.00456581
0.00702148
-0.00461177
0.00673196
-0.00455314
0.00645584
-0.00437966
0.00618286
-0.00412403
0.00593304
-0.00378352
0.00572334
-0.00327043
0.0055148
-0.00258575
0.00528467
-0.00186335
0.00511286
-0.00114921
0.00511777
-0.000327396
0.00533012
0.00073971
0.00567444
0.00216169
0.00605431
0.00407777
0.00654474
0.00911279
-0.000732632
0.00910219
-0.00125846
0.00901902
-0.00184212
0.00886295
-0.00243707
0.00864557
-0.00299351
0.00838438
-0.00347051
0.00809641
-0.00384731
0.00779766
-0.00411464
0.00749887
-0.00426702
0.00720432
-0.00431722
0.0069222
-0.00427102
0.00665503
-0.0041125
0.00639226
-0.00386126
0.00614551
-0.00353677
0.00594219
-0.0030671
0.00576143
-0.00240499
0.00556158
-0.0016635
0.00538127
-0.000968896
0.00533289
-0.000279019
0.00548613
0.000586471
0.00580334
0.00184448
0.00619275
0.00368836
0.00615464
0.00920681
-0.000765704
0.00918618
-0.00123783
0.00910238
-0.00175833
0.00895492
-0.00228961
0.00875253
-0.00279112
0.00850936
-0.00322733
0.00823959
-0.00357754
0.00795688
-0.00383193
0.00767198
-0.00398212
0.00738934
-0.00403458
0.0071156
-0.00399728
0.006857
-0.00385389
0.0066058
-0.00361006
0.00636517
-0.00329614
0.00616472
-0.00286664
0.00600439
-0.00224466
0.00583895
-0.00149806
0.00566665
-0.00079659
0.0055754
-0.000187774
0.00566247
0.000499401
0.0059377
0.00156926
0.00632614
0.00329992
0.00574147
0.00930188
-0.000785373
0.00927419
-0.00121014
0.00919133
-0.00167547
0.0090525
-0.00215079
0.00886418
-0.0026028
0.00863776
-0.00300091
0.00838521
-0.003325
0.00811814
-0.00356485
0.00784691
-0.00371089
0.00757659
-0.00376427
0.00731232
-0.003733
0.00706202
-0.00360359
0.00682257
-0.00337061
0.0065913
-0.00306487
0.00639291
-0.00266825
0.00624452
-0.00209628
0.0061115
-0.00136505
0.00596233
-0.000647419
0.00584692
-7.23649e-05
0.00586957
0.000476753
0.00608751
0.00135132
0.00645753
0.0029299
0.00531646
0.00940235
-0.000794054
0.00936926
-0.00117705
0.00928779
-0.001594
0.00915692
-0.00201992
0.00898138
-0.00242726
0.00877029
-0.00278982
0.00853383
-0.00308854
0.00828188
-0.0033129
0.00802407
-0.00345308
0.00776619
-0.00350638
0.00751235
-0.00347917
0.0072705
-0.00336175
0.00704215
-0.00314225
0.00682256
-0.00284528
0.00662794
-0.00247363
0.00648451
-0.00195285
0.00637646
-0.00125699
0.00625966
-0.000530625
0.00614306
4.42428e-05
0.00611409
0.000505716
0.00626357
0.00120184
0.0065919
0.00260158
0.00489753
0.00950978
-0.000793549
0.00947235
-0.00113962
0.00939235
-0.001514
0.00926859
-0.00189616
0.00910452
-0.00226319
0.0089074
-0.0025927
0.00868589
-0.00286702
0.00844848
-0.00307549
0.00820385
-0.00320845
0.00795829
-0.00326083
0.00771557
-0.00323644
0.00748269
-0.00312887
0.00726455
-0.00292411
0.00705757
-0.0026383
0.00686974
-0.0022858
0.0067277
-0.00181081
0.00663459
-0.00116388
0.00655089
-0.00044693
0.00645366
0.000141478
0.00639518
0.000564193
0.00647435
0.00112266
0.0067363
0.00233963
0.00450869
0.0096245
-0.00078533
0.00958353
-0.00109865
0.00950495
-0.00143542
0.00938753
-0.00177874
0.00923374
-0.00210941
0.00904937
-0.00240833
0.00884175
-0.0026594
0.00861824
-0.00285198
0.00838656
-0.00297677
0.00815315
-0.00302742
0.00792189
-0.00300518
0.00769867
-0.00290565
0.00749011
-0.00271555
0.00729539
-0.00244358
0.00711707
-0.00210748
0.00697653
-0.00167028
0.00688962
-0.00107697
0.00683224
-0.000389546
0.00676614
0.000207575
0.00670317
0.000627167
0.00672261
0.00110322
0.00690048
0.00216177
0.00417535
0.00974634
-0.000770667
0.00970251
-0.00105482
0.00962535
-0.00135826
0.00951362
-0.001667
0.00936911
-0.0019649
0.00919642
-0.00223563
0.00900172
-0.0024647
0.00879146
-0.00264173
0.00857246
-0.00275777
0.00835102
-0.00280597
0.00813129
-0.00278546
0.00791834
-0.0026927
0.00771918
-0.00251638
0.00753573
-0.00226013
0.00736836
-0.00194011
0.00723165
-0.00153357
0.00714626
-0.000991572
0.00710494
-0.000348222
0.00707047
0.000242043
0.00702245
0.000675185
0.00700325
0.00112242
0.00709652
0.0020685
0.00391215
0.00987503
-0.000750685
0.00982897
-0.00100875
0.00975327
-0.00128257
0.00964673
-0.00156046
0.00951066
-0.00182883
0.00934871
-0.00207368
0.00916607
-0.00228207
0.00896842