/*--------------------------------*- C++ -*----------------------------------*\
  =========                 |
  \\      /  F ield         | OpenFOAM: The Open Source CFD Toolbox
   \\    /   O peration     | Website:  https://openfoam.org
    \\  /    A nd           | Version:  7
     \\/     M anipulation  |
\*---------------------------------------------------------------------------*/
FoamFile
{
    version     2.0;
    format      ascii;
    class       surfaceScalarField;
    location    "180";
    object      phi;
}
// * * * * * * * * * * * * * * * * * * * * * * * * * * * * * * * * * * * * * //

dimensions      [0 3 -1 0 0 0 0];

internalField   nonuniform List<scalar> 
8927
(
0.0014876
0.00229177
-0.00232913
0.00150771
0.00603604
-0.00605615
0.00149999
0.0088722
-0.00886449
0.00147583
0.0108717
-0.0108475
0.00145416
0.0110011
-0.0109794
0.00144521
0.00934087
-0.00933192
0.00144911
0.00578817
-0.00579206
0.00145607
0.00112111
-0.00112807
0.0014548
-0.00345128
0.00345255
0.00144369
-0.0081512
0.00816231
0.00143326
-0.0104685
0.0104789
0.00142763
-0.0115255
0.0115311
0.00142464
-0.00908809
0.00909108
0.00141813
-0.0047372
0.0047437
0.00140672
0.000240588
-0.000229176
0.00139205
0.00714028
-0.0071256
0.00138303
0.00947551
-0.00946649
0.00137695
0.0123656
-0.0123595
0.00136771
0.00919861
-0.00918938
0.00134952
0.00352373
-0.00350554
0.00132756
-0.000166272
0.000188231
0.00130957
-0.0102394
0.0102574
-0.00803081
0.00804155
0.00148953
0.00225264
0.00151081
0.00601476
0.00150406
0.00887896
0.00148032
0.0108954
0.00145805
0.0110234
0.0014477
0.00935122
0.00144999
0.00578588
0.0014557
0.00111539
0.0014532
-0.00344878
0.00144094
-0.00813894
0.00142983
-0.0104574
0.00142436
-0.01152
0.00142242
-0.00908615
0.00141709
-0.00473187
0.00140722
0.000250457
0.0013938
0.0071537
0.00138555
0.00948376
0.00137961
0.0123716
0.00136939
0.00920883
0.00135045
0.00354267
0.00132716
-0.000142976
0.00130848
-0.0102207
-0.00802062
0.00149131
0.00221174
0.00151382
0.00599225
0.00150805
0.00888472
0.00148475
0.0109187
0.00146186
0.0110463
0.00145008
0.009363
0.00145077
0.00578519
0.00145527
0.00111089
0.00145158
-0.00344508
0.00143818
-0.00812554
0.00142638
-0.0104456
0.00142106
-0.0115147
0.00142017
-0.00908526
0.00141605
-0.00472776
0.00140776
0.000258754
0.0013956
0.00716586
0.00138813
0.00949123
0.00138232
0.0123774
0.00137113
0.00922001
0.00135148
0.00356232
0.00132687
-0.000118362
0.00130752
-0.0102013
-0.008011
0.00149293
0.00216906
0.00151671
0.00596847
0.00151199
0.00888945
0.00148911
0.0109416
0.00146558
0.0110698
0.00145236
0.00937623
0.00145144
0.00578612
0.00145476
0.00110756
0.00144992
-0.00344024
0.00143542
-0.00811103
0.00142291
-0.0104331
0.00141773
-0.0115095
0.00141789
-0.00908542
0.00141501
-0.00472488
0.00140832
0.00026545
0.00139744
0.00717674
0.00139075
0.00949792
0.00138508
0.012383
0.00137295
0.00923214
0.00135261
0.00358266
0.0013267
-9.24499e-05
0.00130668
-0.0101813
-0.00800194
0.00149438
0.00212459
0.00151949
0.00594336
0.00151585
0.0088931
0.00149341
0.010964
0.00146922
0.011094
0.00145453
0.00939092
0.00145201
0.00578864
0.00145418
0.00110539
0.00144824
-0.0034343
0.00143264
-0.00809543
0.00141942
-0.0104198
0.00141436
-0.0115044
0.00141559
-0.00908665
0.00141397
-0.00472327
0.00140891
0.000270518
0.00139932
0.00718632
0.00139342
0.00950383
0.00138789
0.0123886
0.00137484
0.00924518
0.00135384
0.00360366
0.00132666
-6.52629e-05
0.00130597
-0.0101606
-0.00799345
0.00149567
0.00207832
0.00152216
0.00591687
0.00151964
0.00889562
0.00149765
0.010986
0.00147278
0.0111188
0.00145661
0.00940709
0.00145248
0.00579277
0.00145354
0.00110433
0.00144654
-0.00342731
0.00142987
-0.00807876
0.00141592
-0.0104059
0.00141096
-0.0114995
0.00141325
-0.00908894
0.00141293
-0.00472294
0.00140952
0.000273932
0.00140125
0.00719459
0.00139612
0.00950895
0.00139075
0.0123939
0.0013768
0.00925913
0.00135517
0.00362529
0.00132673
-3.68234e-05
0.00130538
-0.0101393
-0.00798553
0.00149678
0.00203023
0.0015247
0.00588895
0.00152335
0.00889697
0.00150182
0.0110075
0.00147626
0.0111444
0.00145859
0.00942477
0.00145285
0.00579851
0.00145282
0.00110436
0.00144481
-0.0034193
0.00142709
-0.00806104
0.00141241
-0.0103912
0.00140754
-0.0114946
0.0014109
-0.0090923
0.00141189
-0.00472393
0.00141015
0.000275668
0.0014032
0.00720154
0.00139886
0.00951329
0.00139366
0.0123991
0.00137883
0.00927396
0.0013566
0.00364751
0.00132694
-7.15563e-06
0.00130493
-0.0101173
-0.00797818
0.00149771
0.00198031
0.00152711
0.00585955
0.00152698
0.00889711
0.00150592
0.0110286
0.00147966
0.0111706
0.00146047
0.00944396
0.00145312
0.00580586
0.00145204
0.00110544
0.00144307
-0.00341033
0.00142432
-0.00804229
0.00140889
-0.0103758
0.00140409
-0.0114898
0.00140851
-0.00909672
0.00141084
-0.00472626
0.0014108
0.000275701
0.00140519
0.00720715
0.00140164
0.00951684
0.00139661
0.0124042
0.00138093
0.00928964
0.00135813
0.00367031
0.00132726
2.37152e-05
0.0013046
-0.0100946
-0.00797141
0.00149845
0.00192855
0.0015294
0.00582861
0.00153052
0.00889599
0.00150995
0.0110491
0.00148299
0.0111976
0.00146227
0.00946468
0.00145331
0.00581482
0.00145118
0.00110756
0.0014413
-0.00340044
0.00142155
-0.00802255
0.00140536
-0.0103596
0.00140061
-0.0114851
0.0014061
-0.00910221
0.00140978
-0.00472995
0.00141147
0.000274009
0.00140721
0.00721141
0.00140446
0.0095196
0.00139961
0.012409
0.0013831
0.00930615
0.00135976
0.00369364
0.00132772
5.57624e-05
0.0013044
-0.0100713
-0.00796521
0.001499
0.00187492
0.00153154
0.00579607
0.00153397
0.00889356
0.00151391
0.0110692
0.00148624
0.0112253
0.00146397
0.00948695
0.00145339
0.0058254
0.00145026
0.0011107
0.00143951
-0.00338969
0.00141879
-0.00800183
0.00140183
-0.0103426
0.0013971
-0.0114803
0.00140365
-0.00910876
0.00140872
-0.00473501
0.00141216
0.000270572
0.00140926
0.00721431
0.0014073
0.00952156
0.00140264
0.0124137
0.00138533
0.00932346
0.00136149
0.00371748
0.0013283
8.89583e-05
0.00130432
-0.0100473
-0.00795958
0.00149935
0.00181941
0.00153354
0.00576188
0.00153732
0.00888977
0.0015178
0.0110887
0.00148942
0.0112537
0.0014656
0.00951077
0.00145339
0.0058376
0.00144928
0.00111481
0.0014377
-0.00337811
0.00141603
-0.00798016
0.0013983
-0.0103249
0.00139358
-0.0114756
0.00140119
-0.00911637
0.00140765
-0.00474147
0.00141285
0.00026537
0.00141133
0.00721583
0.00141016
0.00952273
0.00140572
0.0124181
0.00138763
0.00934155
0.00136332
0.00374179
0.00132901
0.000123274
0.00130438
-0.0100227
-0.00795452
0.00149949
0.00176199
0.00153538
0.005726
0.00154057
0.00888458
0.00152161
0.0111077
0.00149252
0.0112828
0.00146714
0.00953615
0.0014533
0.00585143
0.00144822
0.00111989
0.00143587
-0.00336575
0.00141329
-0.00795758
0.00139477
-0.0103064
0.00139003
-0.0114709
0.00139869
-0.00912503
0.00140657
-0.00474935
0.00141355
0.000258385
0.00141343
0.00721596
0.00141305
0.0095231
0.00140883
0.0124224
0.00138999
0.00936038
0.00136525
0.00376653
0.00132984
0.000158679
0.00130457
-0.00999742
-0.00795003
0.00149942
0.00170266
0.00153707
0.00568835
0.00154372
0.00887793
0.00152534
0.0111261
0.00149555
0.0113125
0.0014686
0.00956311
0.00145313
0.0058669
0.0014471
0.00112592
0.00143402
-0.00335267
0.00141055
-0.00793412
0.00139124
-0.0102871
0.00138646
-0.0114661
0.00139617
-0.00913474
0.00140548
-0.00475866
0.00141426
0.000249598
0.00141554
0.00721468
0.00141597
0.00952267
0.00141197
0.0124264
0.00139242
0.00937993
0.00136727
0.00379168
0.00133081
0.000195142
0.00130489
-0.0099715
-0.0079461
0.00149912
0.00164139
0.00153859
0.00564888
0.00154675
0.00886977
0.00152899
0.0111438
0.00149852
0.011343
0.00146998
0.00959165
0.00145286
0.00588402
0.00144591
0.00113287
0.00143215
-0.0033389
0.00140783
-0.00790981
0.00138772
-0.010267
0.00138287
-0.0114612
0.00139362
-0.0091455
0.00140437
-0.00476942
0.00141498
0.000238995
0.00141766
0.007212
0.0014189
0.00952144
0.00141515
0.0124301
0.00139491
0.00940016
0.00136939
0.0038172
0.0013319
0.000232631
0.00130534
-0.00994493
-0.00794272
0.0014986
0.00157816
0.00153993
0.00560754
0.00154966
0.00886004
0.00153256
0.0111609
0.00150141
0.0113741
0.00147129
0.00962177
0.00145252
0.00590279
0.00144465
0.00114074
0.00143025
-0.0033245
0.00140512
-0.00788467
0.00138421
-0.010246
0.00137926
-0.0114563
0.00139104
-0.00915728
0.00140325
-0.00478163
0.00141569
0.000226561
0.0014198
0.00720788
0.00142184
0.0095194
0.00141835
0.0124336
0.00139746
0.00942105
0.00137161
0.00384306
0.00133313
0.000271111
0.00130592
-0.00991773
-0.0079399
0.00149783
0.00151295
0.0015411
0.00556428
0.00155245
0.00884869
0.00153604
0.0111773
0.00150424
0.0114059
0.00147253
0.00965348
0.00145209
0.00592323
0.00144333
0.0011495
0.00142834
-0.00330952
0.00140243
-0.00785876
0.0013807
-0.0102243
0.00137563
-0.0114512
0.00138843
-0.00917007
0.00140211
-0.00479532
0.00141639
0.000212281
0.00142194
0.00720234
0.00142479
0.00951655
0.00142159
0.0124368
0.00140007
0.00944257
0.00137392
0.00386921
0.00133449
0.000310546
0.00130664
-0.00988988
-0.00793762
0.00149683
0.00144575
0.00154207
0.00551903
0.0015551
0.00883567
0.00153943
0.011193
0.001507
0.0114384
0.0014737
0.00968678
0.00145158
0.00594535
0.00144193
0.00115915
0.00142641
-0.003294
0.00139975
-0.0078321
0.00137721
-0.0102018
0.00137198
-0.011446
0.00138579
-0.00918388
0.00140096
-0.00481049
0.0014171
0.000196145
0.00142409
0.00719534
0.00142775
0.00951289
0.00142484
0.0124397
0.00140274
0.00946467
0.00137633
0.00389562
0.00133597
0.0003509
0.00130749
-0.00986139
-0.00793588
0.00149557
0.00137653
0.00154285
0.00547174
0.00155761
0.00882091
0.00154272
0.0112079
0.0015097
0.0114714
0.00147481
0.00972167
0.001451
0.00596916
0.00144047
0.00116969
0.00142445
-0.00327798
0.00139709
-0.00780474
0.00137373
-0.0101784
0.00136832
-0.0114406
0.00138312
-0.00919868
0.00139978
-0.00482715
0.00141779
0.00017814
0.00142625
0.00718688
0.00143072
0.00950841
0.00142812
0.0124423
0.00140546
0.00948733
0.00137882
0.00392227
0.00133759
0.000392134
0.00130847
-0.00983227
-0.00793466
0.00149405
0.00130529
0.00154342
0.00542237
0.00155998
0.00880435
0.00154592
0.011222
0.00151232
0.011505
0.00147585
0.00975814
0.00145034
0.00599467
0.00143894
0.00118109
0.00142247
-0.00326151
0.00139444
-0.00777672
0.00137026
-0.0101542
0.00136465
-0.0114349
0.00138042
-0.00921445
0.00139858
-0.00484531
0.00141846
0.000158258
0.0014284
0.00717695
0.00143369
0.00950312
0.00143142
0.0124446
0.00140824
0.00951051
0.00138141
0.00394909
0.00133933
0.000434209
0.00130958
-0.00980251
-0.00793397
0.00149226
0.00123201
0.00154378
0.00537084
0.00156219
0.00878594
0.00154902
0.0112351
0.00151488
0.0115391
0.00147683
0.00979619
0.00144961
0.00602189
0.00143733
0.00119336
0.00142046
-0.00324463
0.00139181
-0.00774807
0.00136681
-0.0101292
0.00136096
-0.0114291
0.00137769
-0.00923119
0.00139736
-0.00486497
0.00141913
0.000136489
0.00143054
0.00716553
0.00143666
0.009497
0.00143473
0.0124465
0.00141107
0.00953417
0.00138409
0.00397607
0.00134121
0.000477084
0.00131083
-0.00977213
-0.00793378
0.00149019
0.00115667
0.00154391
0.00531712
0.00156424
0.00876561
0.00155201
0.0112474
0.00151737
0.0115738
0.00147775
0.00983581
0.0014488
0.00605085
0.00143566
0.00120651
0.00141842
-0.00322739
0.0013892
-0.00771884
0.00136337
-0.0101034
0.00135725
-0.011423
0.00137493
-0.00924887
0.00139611
-0.00488615
0.00141977
0.000112827
0.00143268
0.00715262
0.00143962
0.00949006
0.00143806
0.0124481
0.00141394
0.00955829
0.00138685
0.00400317
0.00134322
0.000520716
0.00131221
-0.00974112
-0.0079341
0.00148784
0.00107926
0.00154382
0.00526114
0.00156612
0.00874331
0.00155489
0.0112586
0.0015198
0.0116089
0.00147862
0.00987698
0.00144793
0.00608154
0.00143392
0.00122052
0.00141635
-0.00320983
0.0013866
-0.00768908
0.00135995
-0.0100768
0.00135354
-0.0114166
0.00137214
-0.00926748
0.00139483
-0.00490884
0.00142039
8.72661e-05
0.0014348
0.00713821
0.00144257
0.00948229
0.00144139
0.0124492
0.00141687
0.00958281
0.0013897
0.00403034
0.00134535
0.000565062
0.00131373
-0.0097095
-0.0079349
0.0014852
0.00099978
0.00154348
0.00520286
0.00156783
0.00871896
0.00155765
0.0112688
0.00152215
0.0116444
0.00147943
0.0099197
0.00144699
0.00611398
0.0014321
0.0012354
0.00141426
-0.00319198
0.00138401
-0.00765884
0.00135655
-0.0100493
0.0013498
-0.0114098
0.00136931
-0.00928699
0.00139352
-0.00493304
0.00142098
5.98011e-05
0.00143691
0.00712228
0.00144552
0.00947368
0.00144474
0.01245
0.00141984
0.00960771
0.00139263
0.00405755
0.00134762
0.000610076
0.00131538
-0.00967726
-0.00793618
0.00148226
0.000918219
0.00154289
0.00514224
0.00156934
0.0086925
0.00156029
0.0112778
0.00152443
0.0116802
0.00148019
0.00996395
0.00144598
0.00614819
0.00143022
0.00125116
0.00141213
-0.00317389
0.00138144
-0.00762815
0.00135316
-0.010021
0.00134606
-0.0114027
0.00136646
-0.00930738
0.00139218
-0.00495876
0.00142155
3.04288e-05
0.001439
0.00710483
0.00144845
0.00946424
0.00144808
0.0124504
0.00142285
0.00963295
0.00139564
0.00408475
0.00135001
0.000655711
0.00131716
-0.00964442
-0.00793792
0.00147901
0.000834575
0.00154204
0.00507921
0.00157066
0.00866387
0.00156281
0.0112857
0.00152664
0.0117164
0.00148089
0.0100097
0.00144491
0.00618418
0.00142826
0.0012678
0.00140996
-0.00315559
0.00137888
-0.00759707
0.0013498
-0.00999194
0.00134231
-0.0113952
0.00136356
-0.00932863
0.0013908
-0.00498601
0.00142208
-8.52908e-07
0.00144107
0.00708584
0.00145136
0.00945396
0.00145143
0.0124503
0.0014259
0.00965848
0.00139874
0.00411192
0.00135253
0.00070192
0.00131908
-0.00961097
-0.00794011
0.00147545
0.000748845
0.00154092
0.00501374
0.00157178
0.00863301
0.00156519
0.0112923
0.00152878
0.0117528
0.00148155
0.0100569
0.00144377
0.00622195
0.00142623
0.00128534
0.00140775
-0.00313711
0.00137634
-0.00756566
0.00134646
-0.00996207
0.00133854
-0.0113873
0.00136063
-0.00935072
0.00138939
-0.00501476
0.00142258
-3.40446e-05
0.00144312
0.00706531
0.00145425
0.00944283
0.00145478
0.0124498
0.00142899
0.00968426
0.0014019
0.004139
0.00135517
0.000748653
0.00132114
-0.00957694
-0.00794274
0.00147157
0.000661034
0.00153953
0.00494579
0.00157269
0.00859984
0.00156744
0.0112975
0.00153084
0.0117894
0.00148215
0.0101056
0.00144258
0.00626152
0.00142413
0.00130378
0.00140551
-0.00311849
0.0013738
-0.00753395
0.00134314
-0.00993141
0.00133477
-0.0113789
0.00135767
-0.00937363
0.00138794
-0.00504504
0.00142305
-6.91461e-05
0.00144513
0.00704322
0.00145711
0.00943085
0.00145812
0.0124488
0.00143212
0.00971026
0.00140515
0.00416597
0.00135794
0.000795859
0.00132332
-0.00954232
-0.00794578
0.00146737
0.000571144
0.00153785
0.00487531
0.00157338
0.00856431
0.00156953
0.0113014
0.00153283
0.0118261
0.00148271
0.0101557
0.00144133
0.0063029
0.00142196
0.00132315
0.00140322
-0.00309975
0.00137127
-0.00750199
0.00133984
-0.00989997
0.00133098
-0.0113701
0.00135467
-0.00939732
0.00138646
-0.00507682
0.00142347
-0.000106155
0.00144712
0.00701956
0.00145995
0.00941802
0.00146145
0.0124473
0.00143528
0.00973644
0.00140846
0.00419279
0.00136084
0.000843486
0.00132564
-0.00950712
-0.00794923
0.00146284
0.000479184
0.00153587
0.00480228
0.00157383
0.00852635
0.00157148
0.0113037
0.00153473
0.0118628
0.00148322
0.0102073
0.00144003
0.00634609
0.00141972
0.00134346
0.00140089
-0.00308092
0.00136875
-0.00746985
0.00133656
-0.00986778
0.00132719
-0.0113607
0.00135163
-0.00942176
0.00138493
-0.00511012
0.00142384
-0.000145071
0.00144907
0.00699434
0.00146276
0.00940433
0.00146477
0.0124453
0.00143847
0.00976274
0.00141185
0.00421941
0.00136386
0.000891481
0.0013281
-0.00947137
-0.00795307
0.00145797
0.000385162
0.0015336
0.00472665
0.00157405
0.0084859
0.00157327
0.0113045
0.00153654
0.0118996
0.00148368
0.0102601
0.00143867
0.0063911
0.0014174
0.00136473
0.00139851
-0.00306203
0.00136623
-0.00743757
0.0013333
-0.00983485
0.00132339
-0.0113508
0.00134856
-0.00944694
0.00138336
-0.00514492
0.00142418
-0.000185888
0.00145099
0.00696753
0.00146554
0.00938978
0.00146808
0.0124427
0.00144169
0.00978914
0.0014153
0.00424579
0.001367
0.000939789
0.00133069
-0.00943506
-0.00795728
0.00145276
0.000289089
0.00153101
0.0046484
0.00157402
0.00844289
0.00157489
0.0113037
0.00153826
0.0119362
0.0014841
0.0103143
0.00143726
0.00643794
0.00141502
0.00138697
0.00139609
-0.00304309
0.00136372
-0.00740521
0.00133007
-0.0098012
0.00131958
-0.0113403
0.00134545
-0.00947281
0.00138175
-0.00518122
0.00142446
-0.000228604
0.00145286
0.00693913
0.00146828
0.00937436
0.00147137
0.0124396
0.00144493
0.00981558
0.00141882
0.0042719
0.00137025
0.000988355
0.00133341
-0.00939821
-0.00796185
0.00144722
0.000190978
0.00152811
0.0045675
0.00157373
0.00839727
0.00157633
0.0113011
0.00153989
0.0119726
0.00148447
0.0103697
0.00143581
0.0064866
0.00141256
0.00141022
0.00139361
-0.00302414
0.00136121
-0.00737281
0.00132686
-0.00976685
0.00131576
-0.0113292
0.0013423
-0.00949935
0.00138009
-0.00521901
0.0014247
-0.000273215
0.00145469
0.00690914
0.00147099
0.00935807
0.00147465
0.012436
0.0014482
0.00984204
0.0014224
0.00429769
0.00137363
0.00103712
0.00133626
-0.00936084
-0.00796674
0.00144134
9.08377e-05
0.00152489
0.00448395
0.00157318
0.00834898
0.00157759
0.0112967
0.00154143
0.0120088
0.0014848
0.0104263
0.00143431
0.00653709
0.00141004
0.00143449
0.00139107
-0.00300517
0.00135869
-0.00734042
0.00132367
-0.00973182
0.00131194
-0.0113175
0.00133911
-0.00952652
0.00137839
-0.00525829
0.00142489
-0.000319716
0.00145648
0.00687754
0.00147365
0.0093409
0.0014779
0.0124317
0.00145148
0.00986845
0.00142604
0.00432314
0.00137713
0.00108603
0.00133924
-0.00932295
-0.00797196
0.00143512
-1.1321e-05
0.00152135
0.00439772
0.00157236
0.00829797
0.00157867
0.0112903
0.00154286
0.0120446
0.00148508
0.0104841
0.00143277
0.00658939
0.00140745
0.00145982
0.00138848
-0.00298621
0.00135617
-0.00730811
0.0013205
-0.00969615
0.00130811
-0.0113051
0.00133587
-0.00955428
0.00137663
-0.00529906
0.00142502
-0.000368104
0.00145823
0.00684434
0.00147627
0.00932286
0.00148112
0.0124269
0.00145478
0.00989478
0.00142973
0.00434819
0.00138074
0.00113502
0.00134235
-0.00928456
-0.00797747
0.00142856
-0.000115492
0.00151748
0.00430879
0.00157126
0.00824418
0.00157954
0.0112821
0.00154418
0.01208
0.00148531
0.010543
0.00143119
0.00664351
0.00140478
0.00148622
0.00138583
-0.00296726
0.00135364
-0.00727592
0.00131735
-0.00965986
0.00130428
-0.011292
0.0013326
-0.00958261
0.00137483
-0.00534129
0.00142511
-0.000418376
0.00145992
0.00680952
0.00147885
0.00930393
0.00148431
0.0124214
0.0014581
0.009921
0.00143347
0.00437282
0.00138446
0.00118404
0.00134559
-0.0092457
-0.00798326
0.00142167
-0.000221673
0.00151329
0.00421718
0.00156988
0.00818759
0.00158022
0.0112717
0.00154539
0.0121148
0.0014855
0.0106029
0.00142958
0.00669943
0.00140206
0.00151375
0.00138312
-0.00294832
0.0013511
-0.00724389
0.00131422
-0.00962299
0.00130044
-0.0112782
0.00132928
-0.00961145
0.00137298
-0.00538499
0.00142514
-0.00047053
0.00146157
0.00677309
0.00148138
0.00928412
0.00148748
0.0124153
0.00146143
0.00994705
0.00143727
0.00439698
0.00138829
0.00123302
0.00134896
-0.00920636
-0.00798931
0.00141445
-0.000329877
0.00150878
0.00412285
0.00156822
0.00812816
0.00158068
0.0112593
0.00154649
0.012149
0.00148565
0.0106637
0.00142794
0.00675714
0.00139927
0.00154241
0.00138035
-0.0029294
0.00134854
-0.00721209
0.00131111
-0.00958556
0.0012966
-0.0112637
0.00132592
-0.00964077
0.00137108
-0.00543014
0.00142512
-0.000524568
0.00146317
0.00673503
0.00148387
0.00926342
0.00149062
0.0124086
0.00146477
0.00997289
0.00144111
0.00442064
0.00139223
0.0012819
0.00135245
-0.00916658
-0.0079956
0.00140689
-0.000440122
0.00150396
0.00402578
0.00156628
0.00806584
0.00158094
0.0112446
0.00154748
0.0121824
0.00148577
0.0107254
0.00142629
0.00681663
0.00139643
0.00157227
0.00137751
-0.00291048
0.00134597
-0.00718054
0.00130802
-0.00954761
0.00129276
-0.0112485
0.00132251
-0.00967052
0.00136911
-0.00547675
0.00142504
-0.000580498
0.00146473
0.00669534
0.00148632
0.00924183
0.00149372
0.0124012
0.00146812
0.0099985
0.001445
0.00444376
0.00139628
0.00133062
0.00135607
-0.00912637
-0.00800211
0.00139904
-0.000552419
0.00149887
0.00392595
0.00156409
0.00800062
0.00158101
0.0112277
0.00154837
0.0122151
0.00148586
0.0107879
0.0014246
0.00687789
0.00139351
0.00160337
0.00137459
-0.00289156
0.00134336
-0.00714932
0.00130494
-0.00950919
0.00128892
-0.0112324
0.00131906
-0.00970066
0.0013671
-0.00552479
0.00142492
-0.000638322
0.00146626
0.006654
0.00148873
0.00921935
0.0014968
0.0123931
0.00147147
0.0100238
0.00144892
0.0044663
0.00140043
0.00137912
0.00135981
-0.00908575
-0.00800882
0.00139139
-0.000666767
0.00149389
0.00382344
0.00156189
0.00793262
0.00158098
0.0112086
0.00154907
0.012247
0.00148573
0.0108513
0.00142258
0.00694104
0.00139024
0.0016357
0.0013714
-0.00287272
0.0013406
-0.00711852
0.00130195
-0.00947054
0.00128507
-0.0112156
0.00131576
-0.00973134
0.00136508
-0.00557411
0.00142489
-0.000698133
0.00146783
0.00661107
0.00149112
0.00919606
0.00149993
0.0123843
0.00147475
0.010049
0.00145289
0.00448816
0.00140475
0.00142726
0.00136336
-0.00904436
-0.00801603
0.0047459
-0.000766926
0.00482549
0.00374385
0.00485299
0.00790512
0.00482158
0.01124
0.0047436
0.012325
0.00467366
0.0109212
0.00466647
0.00694824
0.00475723
0.00154494
0.00484335
-0.00295883
0.00482323
-0.0070984
0.00471525
-0.00936256
0.00459733
-0.0110977
0.00458166
-0.00971567
0.00459418
-0.00558663
0.00465191
-0.000755863
0.00469799
0.00656498
0.00473056
0.00916349
0.00476905
0.0123458
0.00472093
0.0100971
0.00468811
0.00452098
0.00454979
0.00156558
0.00437786
-0.00887243
-0.00800892
0.00489101
-0.000870656
0.00498275
0.00365211
0.00502127
0.0078666
0.00499794
0.0112633
0.00491822
0.0124047
0.00484238
0.0109971
0.00482535
0.00696527
0.00492059
0.0014497
0.00501464
-0.00305288
0.00499712
-0.00708088
0.0048788
-0.00924423
0.00474385
-0.0109627
0.00472367
-0.00969549
0.00473793
-0.00560089
0.00480638
-0.000824312
0.00486078
0.00651058
0.00489347
0.0091308
0.00494002
0.0122993
0.00488494
0.0101522
0.00486122
0.0045447
0.00471895
0.00170784
0.00453204
-0.00868551
-0.00799823
0.00504395
-0.000982054
0.00514723
0.00354883
0.00519781
0.00781602
0.00518302
0.0112781
0.00510411
0.0124836
0.00502385
0.0110773
0.00500047
0.00698865
0.00509629
0.00135387
0.00519766
-0.00315425
0.00518181
-0.00706503
0.00505246
-0.00911488
0.00489887
-0.0108091
0.00487251
-0.00966912
0.00488965
-0.00561803
0.00496818
-0.000902838
0.00503087
0.00644788
0.00506426
0.00909741
0.00511568
0.0122478
0.0050598
0.0102081
0.00504281
0.00456169
0.00489917
0.00185148
0.00469776
-0.00848411
-0.00798171
0.00520226
-0.00110202
0.00531913
0.00343196
0.00538386
0.0077513
0.00537993
0.0112821
0.0053038
0.0125597
0.0052208
0.0111603
0.00519138
0.00701808
0.00528591
0.00125934
0.00539241
-0.00326074
0.00537757
-0.00705019
0.00523686
-0.00897418
0.00506267
-0.0106349
0.00502863
-0.00963508
0.00504861
-0.00563801
0.005138
-0.000992221
0.00520967
0.0063762
0.00524311
0.00906398
0.00529931
0.0121916
0.00524338
0.010264
0.00523423
0.00457084
0.0050909
0.00199481
0.00487462
-0.00826783
-0.00795806
0.00536543
-0.001231
0.00549814
0.00329925
0.00557969
0.00766975
0.00558941
0.0112723
0.00551844
0.0126307
0.00543475
0.011244
0.0053999
0.00705293
0.00549085
0.00116839
0.00559974
-0.00336963
0.00558488
-0.00703533
0.0054325
-0.0088218
0.00523577
-0.0104382
0.00519233
-0.00959164
0.00521495
-0.00566064
0.0053159
-0.00109317
0.0053975
0.00629461
0.00543042
0.00903105
0.00549098
0.0121311
0.00543576
0.0103192
0.0054356
0.004571
0.00529465
0.00213576
0.00506326
-0.00803643
-0.00792593
0.00553335
-0.00136939
0.00568409
0.00314851
0.00578536
0.00756848
0.00581171
0.011246
0.00574881
0.0126936
0.0056673
0.0113255
0.005628
0.00709222
0.00571261
0.00108378
0.0058205
-0.00347751
0.0058041
-0.00701894
0.00563976
-0.00865745
0.00541865
-0.0102171
0.00536381
-0.0095368
0.00538877
-0.0056856
0.00550202
-0.00120642
0.00559461
0.00620202
0.00562655
0.00899911
0.00569076
0.0120669
0.00563695
0.0103731
0.0056471
0.00456085
0.00551087
0.00227199
0.0052643
-0.00778986
-0.00788386
0.00570589
-0.00151728
0.00587679
0.00297761
0.0060007
0.00744457
0.00604679
0.0111999
0.00599551
0.0127449
0.00591985
0.0114012
0.00587736
0.00713471
0.00595265
0.0010085
0.00605545
-0.00358032
0.00603547
-0.00699896
0.0058589
-0.00848089
0.00561174
-0.00996994
0.00554326
-0.00946831
0.00557012
-0.00571246
0.00569642
-0.00133273
0.00580124
0.0060972
0.00583183
0.00896853
0.00589877
0.0119999
0.00584699
0.0104248
0.00586886
0.00453898
0.00573995
0.0024009
0.00547834
-0.00752825
-0.00783039
0.00588283
-0.00167432
0.00607587
0.00278457
0.00622529
0.00729515
0.00629439
0.0111308
0.00625892
0.0127804
0.00619336
0.0114667
0.00614925
0.00717882
0.00621222
0.000945535
0.00630525
-0.00367335
0.00627906
-0.00697277
0.00609002
-0.00829185
0.00581544
-0.00969535
0.00573082
-0.0093837
0.00575897
-0.0057406
0.00589906
-0.00147282
0.00601758
0.00597868
0.00604662
0.00893949
0.00611514
0.0119314
0.00606591
0.0104741
0.00610097
0.00450392
0.00598222
0.00251965
0.0057059
-0.00725192
-0.00776397
0.00606405
-0.00183966
0.00628083
0.00256778
0.00645845
0.00711753
0.006554
0.0110353
0.00653904
0.0127953
0.0064882
0.0115176
0.00644445
0.00722257
0.00649225
0.000897736
0.00657038
-0.00375149
0.0065348
-0.00693719
0.00633306
-0.00809011
0.00603005
-0.00939234
0.00592661
-0.00928026
0.00595521
-0.0057692
0.0061098
-0.00162741
0.00624371
0.00584477
0.00627129
0.00891191
0.00634002
0.0118627
0.00629379
0.0105203
0.00634354
0.00445417
0.00623797
0.00262521
0.00594746
-0.00696141
-0.00768305
0.00624948
-0.00201183
0.00649103
0.00232623
0.00669921
0.00690935
0.00682473
0.0109097
0.00683527
0.0127848
0.00680409
0.0115487
0.00676303
0.00726363
0.00679319
0.000867577
0.00685103
-0.00380933
0.00680238
-0.00688854
0.00658772
-0.00787545
0.00625579
-0.0090604
0.00613072
-0.00915519
0.00615865
-0.00579713
0.00632837
-0.00179713
0.00647966
0.00569348
0.00650622
0.00888535
0.00657365
0.0117952
0.00653078
0.0105632
0.00659668
0.00438828
0.00650743
0.00271446
0.00620341
-0.00665739
-0.00758608
0.00643914
-0.00218869
0.00670569
0.00205968
0.00694629
0.00666875
0.00710524
0.0107508
0.00714644
0.0127436
0.00713995
0.0115552
0.00710427
0.00729932
0.00711484
0.000857002
0.00714705
-0.00384154
0.00708123
-0.00682272
0.00685345
-0.00764767
0.00649272
-0.00869967
0.0063432
-0.00900566
0.00636898
-0.00582291
0.00655434
-0.00198249
0.00672527
0.00552255
0.00675176
0.00885887
0.00681643
0.0117305
0.00677722
0.0106024
0.00686057
0.00430492
0.00679075
0.00278429
0.00647406
-0.0063407
-0.00747148
0.00663314
-0.00236741
0.00692387
0.00176895
0.00719809
0.00639454
0.00739372
0.0105551
0.00747068
0.0126666
0.00749386
0.0115321
0.00746652
0.00732665
0.00745627
0.000867253
0.0074578
-0.00384306
0.00737049
-0.00673542
0.00712942
-0.00740661
0.00674076
-0.00831101
0.00656408
-0.00882898
0.00658582
-0.00584466
0.00678703
-0.0021837
0.00698015
0.00532943
0.00700822
0.00883079
0.00706891
0.0116699
0.00703366
0.0106376
0.00713549
0.00420309
0.00708803
0.00283175
0.00675955
-0.00601223
-0.00733769
0.00683159
-0.00254446
0.00714453
0.00145601
0.00745272
0.00608635
0.00768789
0.01032
0.00780537
0.0125491
0.00786295
0.0114745
0.00784718
0.00734242
0.00781567
0.000898761
0.00778212
-0.00380952
0.00766896
-0.00662226
0.00741449
-0.00715213
0.00699961
-0.00789613
0.00679336
-0.00862273
0.00680868
-0.00585997
0.00702553
-0.00240055
0.00724361
0.00511134
0.00727585
0.00879856
0.0073319
0.0116138
0.00730098
0.0106685
0.00742184
0.00408223
0.00739929
0.00285429
0.00705992
-0.00567286
-0.00718314
0.00703457
-0.00271573
0.00736652
0.00112406
0.00770804
0.00574483
0.00798493
0.0100431
0.00814717
0.0123869
0.0082435
0.0113781
0.00824266
0.00734326
0.00819035
0.000951073
0.00811826
-0.00373742
0.0079751
-0.0064791
0.00770722
-0.00688425
0.00726872
-0.00745763
0.00703102
-0.00838503
0.007037
-0.00586595
0.00726857
-0.00263212
0.00751454
0.00486537
0.00755466
0.00875844
0.00760644
0.011562
0.00758043
0.0106946
0.00772017
0.00394249
0.00772443
0.00285003
0.00737497
-0.00532339
-0.00700632
0.00724213
-0.00287664
0.00758864
0.000777546
0.0079617
0.00537177
0.00828157
0.00972322
0.00849203
0.0121764
0.00863095
0.0112392
0.00864837
0.00732584
0.00857677
0.00102267
0.00846377
-0.00362443
0.008287
-0.00630233
0.00800584
-0.00660308
0.0075473
-0.0069991
0.00727698
-0.0081147
0.0072702
-0.00585917
0.0075146
-0.00287652
0.00779128
0.00458869
0.00784436
0.00870537
0.0078937
0.0115127
0.00787362
0.0107146
0.00803118
0.00378493
0.00806317
0.00281805
0.00770424
-0.00496445
-0.00680575
0.00745411
-0.00302231
0.00780962
0.000422043
0.00821115
0.00497024
0.00857411
0.00936025
0.00883533
0.0119152
0.00902004
0.0110545
0.00905914
0.00728673
0.00897038
0.00111144
0.00881561
-0.00346966
0.00860242
-0.00608913
0.00830835
-0.00630902
0.00783424
-0.00652499
0.0075311
-0.00781156
0.0075077
-0.00583578
0.00776173
-0.00313055
0.0080716
0.00427881
0.00814416
0.00863281
0.00819492
0.0114619
0.00818247
0.0107271
0.00835563
0.00361177
0.00841498
0.0027587
0.00804697
-0.00459644
-0.00658006
0.00767011
-0.00314762
0.008028
6.41501e-05
0.00845366
0.00454458
0.00885854
0.00895538
0.00917197
0.0116018
0.00940499
0.0108215
0.00946905
0.00722268
0.00936605
0.00121443
0.00917013
-0.00327374
0.00891878
-0.00583779
0.0086125
-0.00600273
0.00812815
-0.00604064
0.00779316
-0.00747656
0.00774899
-0.0057916
0.00800782
-0.00338938
0.00835257
0.00393406
0.00845258
0.00853281
0.00851105
0.0114034
0.00850893
0.0107292
0.00869416
0.00342654
0.00877892
0.00267394
0.00840194
-0.00421947
-0.00632806
0.00788929
-0.00324714
0.00824207
-0.000288627
0.00868629
0.00410036
0.00913056
0.0085111
0.0094966
0.0112358
0.00977972
0.0105384
0.0098717
0.0071307
0.00975804
0.00132809
0.00952315
-0.00303884
0.00923331
-0.00554795
0.00891592
-0.00568535
0.00842737
-0.00555209
0.0080628
-0.007112
0.00799364
-0.00572244
0.00825058
-0.00364632
0.00863063
0.00355401
0.00876725
0.00839618
0.00884248
0.0113282
0.00885467
0.010717
0.00904708
0.00323413
0.00915351
0.00256751
0.00876746
-0.00383341
-0.00604885
0.00811054
-0.00331514
0.00844957
-0.000627651
0.00890574
0.00364419
0.00938572
0.00803112
0.00980381
0.0108177
0.010138
0.0102042
0.0102606
0.00700814
0.0101402
0.00144846
0.00987015
-0.00276881
0.00954307
-0.00522087
0.00921622
-0.00535849
0.00873001
-0.00506588
0.00833951
-0.00672149