/*--------------------------------*- C++ -*----------------------------------*\
  =========                 |
  \\      /  F ield         | OpenFOAM: The Open Source CFD Toolbox
   \\    /   O peration     | Website:  https://openfoam.org
    \\  /    A nd           | Version:  7
     \\/     M anipulation  |
\*---------------------------------------------------------------------------*/
FoamFile
{
    version     2.0;
    format      ascii;
    class       volScalarField;
    location    "240";
    object      p;
}
// * * * * * * * * * * * * * * * * * * * * * * * * * * * * * * * * * * * * * //

dimensions      [0 2 -2 0 0 0 0];

internalField   nonuniform List<scalar> 
7156
(
0.240682
0.248262
0.255696
0.267985
0.26298
0.275462
0.270106
0.282772
0.27707
0.289911
0.283865
0.30388
0.296872
0.290488
0.310983
0.303649
0.296931
0.317887
0.310235
0.303189
0.324586
0.316625
0.309258
0.339023
0.331074
0.322813
0.315131
0.345624
0.337344
0.328792
0.320804
0.351991
0.343391
0.334558
0.326272
0.358117
0.349208
0.340105
0.33153
0.363997
0.354791
0.345428
0.336572
0.379132
0.369624
0.360134
0.350522
0.341396
0.384789
0.374993
0.365231
0.355381
0.345995
0.390169
0.380099
0.370078
0.360001
0.350367
0.395268
0.384938
0.37467
0.364378
0.354506
0.40008
0.389503
0.379003
0.368507
0.35841
0.4046
0.393791
0.383072
0.372385
0.362074
0.408824
0.397797
0.386873
0.376006
0.365496
0.424074
0.412748
0.401518
0.390403
0.379369
0.368672
0.42789
0.416367
0.40495
0.393658
0.38247
0.371598
0.431381
0.419677
0.408088
0.396635
0.385304
0.374273
0.434544
0.422676
0.410931
0.39933
0.387871
0.376694
0.437377
0.425361
0.413474
0.401741
0.390166
0.378859
0.439875
0.427728
0.415717
0.403866
0.392188
0.380765
0.442036
0.429775
0.417655
0.405702
0.393935
0.38241
0.443859
0.431501
0.419288
0.407248
0.395405
0.383794
0.445341
0.432902
0.420613
0.408502
0.396596
0.384914
0.44648
0.433979
0.42163
0.409462
0.397507
0.385771
0.447276
0.434729
0.422336
0.410128
0.398137
0.386362
0.447728
0.435151
0.422732
0.410498
0.398486
0.386688
0.447834
0.435247
0.422817
0.410573
0.398553
0.386747
0.447595
0.435014
0.42259
0.410353
0.398337
0.386536
0.447011
0.434453
0.422052
0.409836
0.397838
0.38606
0.446083
0.433566
0.421204
0.409025
0.397058
0.385316
0.444811
0.432352
0.420045
0.407919
0.395998
0.38431
0.443197
0.430813
0.418578
0.40652
0.394658
0.383041
0.441242
0.42895
0.416804
0.404829
0.39304
0.381509
0.438948
0.426765
0.414724
0.402847
0.391145
0.379714
0.436318
0.424261
0.41234
0.400577
0.388974
0.377658
0.433354
0.421439
0.409655
0.398021
0.386531
0.375345
0.430058
0.418303
0.406671
0.39518
0.383816
0.372774
0.426435
0.414855
0.403391
0.392059
0.380833
0.369949
0.411099
0.399818
0.388659
0.377584
0.366873
0.407039
0.395956
0.384984
0.374073
0.363548
0.402678
0.391808
0.381038
0.370303
0.359976
0.398021
0.387379
0.376824
0.366277
0.356162
0.393072
0.382672
0.372346
0.362
0.352108
0.387837
0.377693
0.367609
0.357474
0.347818
0.382319
0.372445
0.362617
0.352706
0.343296
0.366934
0.357374
0.347698
0.338546
0.361165
0.351886
0.342456
0.333572
0.355144
0.346158
0.336985
0.328378
0.348876
0.340195
0.331289
0.322969
0.342368
0.334003
0.325374
0.31735
0.327587
0.319245
0.311525
0.320953
0.312908
0.305499
0.314107
0.306369
0.299278
0.307056
0.299633
0.292866
0.292706
0.286269
0.285594
0.279493
0.278304
0.272542
0.270841
0.265423
0.25814
0.250699
0.243105
0.113711
0.114373
0.115688
0.117557
0.119937
0.122776
0.126037
0.129681
0.133668
0.137955
0.142491
0.147221
0.152072
0.156965
0.161794
0.166447
0.170773
0.174617
0.17777
0.180037
0.181131
0.180837
0.178765
0.174747
0.168198
0.159216
0.146609
0.113024
0.113663
0.114928
0.116726
0.119008
0.121724
0.124832
0.12829
0.132052
0.136072
0.140293
0.144653
0.149074
0.15347
0.157728
0.161733
0.165328
0.168359
0.170618
0.171918
0.171986
0.170627
0.167486
0.162432
0.15495
0.14517
0.13215
0.11229
0.112906
0.114118
0.115841
0.11802
0.120605
0.123552
0.126814
0.130342
0.134085
0.137981
0.141964
0.14595
0.149848
0.153543
0.156916
0.15981
0.162076
0.163512
0.163945
0.163122
0.160879
0.156895
0.151094
0.143034
0.132921
0.120061
0.111508
0.112098
0.113255
0.114897
0.116968
0.119416
0.122193
0.125251
0.128536
0.131994
0.135557
0.139155
0.142699
0.146096
0.149228
0.151974
0.154182
0.155705
0.156352
0.155965
0.154314
0.151262
0.146534
0.140091
0.131586
0.121234
0.108567
0.110678
0.11124
0.112339
0.113897
0.115855
0.118161
0.120764
0.123612
0.12665
0.129816
0.133043
0.136254
0.139358
0.142259
0.144838
0.146977
0.148525
0.149344
0.149255
0.148116
0.145723
0.141964
0.136613
0.129653
0.120833
0.110341
0.0978677
0.109798
0.110331
0.11137
0.112842
0.114684
0.116844
0.119268
0.121902
0.124687
0.127561
0.130449
0.133275
0.135944
0.13836
0.140404
0.14196
0.142885
0.14305
0.142289
0.140478
0.137441
0.133088
0.127243
0.119903
0.110899
0.100391
0.0881896
0.108869
0.109372
0.11035
0.111731
0.113454
0.115464
0.117706
0.120123
0.122654
0.125232
0.127783
0.130227
0.132469
0.134413
0.135942
0.136945
0.137288
0.136849
0.135482
0.133078
0.129492
0.124651
0.118428
0.110831
0.101755
0.0913428
0.0794973
0.10789
0.108362
0.109277
0.110566
0.112167
0.114024
0.11608
0.118278
0.120552
0.122836
0.125052
0.12712
0.128946
0.130433
0.131471
0.131953
0.131754
0.130764
0.128856
0.125936
0.121888
0.116657
0.110157
0.102405
0.0933499
0.0831197
0.0716841
0.106861
0.107301
0.108151
0.109346
0.110823
0.112525
0.114394
0.11637
0.118389
0.120379
0.122265
0.123965
0.125386
0.126436
0.127008
0.127002
0.126305
0.124817
0.122432
0.119069
0.114641
0.109108
0.102419
0.0946001
0.0856404
0.0756565
0.0646636
0.105783
0.10619
0.106974
0.108073
0.109424
0.110969
0.112649
0.114405
0.116168
0.117869
0.119431
0.120772
0.121805
0.122437
0.122571
0.122113
0.120961
0.11903
0.116228
0.112493
0.107759
0.102004
0.0952032
0.0873913
0.0785873
0.0688973
0.0583688
0.104655
0.105029
0.105746
0.106748
0.107971
0.109358
0.11085
0.112384
0.113895
0.115311
0.116557
0.117553
0.118213
0.118451
0.118176
0.117302
0.115741
0.113417
0.110259
0.106216
0.101246
0.0953394
0.0884938
0.0807503
0.07215
0.0627891
0.0527377
0.103478
0.103818
0.104468
0.105371
0.106466
0.107695
0.108999
0.110315
0.111577
0.112715
0.113654
0.114318
0.114624
0.114492
0.113839
0.112587
0.110659
0.107994
0.104535
0.100246
0.0951019
0.0891052
0.0822716
0.0746469
0.0662874
0.0572802
0.047711
0.102253
0.102559
0.103141
0.103945
0.104912
0.105983
0.1071
0.1082
0.109219
0.110086
0.11073
0.111077
0.11105
0.110573
0.109573
0.107979
0.10573
0.102772
0.0990648
0.0945843
0.0893219
0.083289
0.0765155
0.0690498
0.0609594
0.0523217
0.0432326
0.10098
0.101251
0.101766
0.102471
0.10331
0.104225
0.105157
0.106046
0.106827
0.107433
0.107794
0.107841
0.107501
0.106706
0.10539
0.103493
0.100962
0.0977578
0.0938516
0.0892305
0.0838989
0.0778761
0.0712026
0.063928
0.0561266
0.047867
0.0392507
0.0996609
0.0998976
0.100344
0.100951
0.101663
0.102423
0.103175
0.103857
0.104408
0.104763
0.104855
0.104619
0.103989
0.102902
0.101302
0.0991365
0.0963654
0.0929578
0.0888976
0.0841812
0.0788236
0.0728504
0.0663093
0.0592503
0.0517514
0.0438727
0.0357181
0.0982964
0.0984986
0.0988775
0.0993872
0.0999736
0.100582
0.101157
0.101639
0.101969
0.102084
0.101922
0.101421
0.100523
0.0991714
0.0973177
0.0949196
0.0919459
0.0883754
0.0842022
0.0794309
0.0740847
0.068194
0.0618116
0.0549865
0.0477982
0.0402985
0.0325914
0.0968881
0.0970561
0.0973683
0.0977819
0.0982451
0.0987052
0.0991079
0.0993969
0.0995144
0.0994017
0.0990007
0.0982552
0.097112
0.0955227
0.0934461
0.0908486
0.0877081
0.084012
0.0797628
0.0749721
0.0696695
0.0638887
0.0576854
0.0511072
0.0442329
0.0371068
0.0298313
0.0954376
0.0955719
0.0958185
0.0961377
0.0964804
0.0967961
0.0970325
0.097136
0.0970516
0.0967243
0.0961008
0.0951297
0.0937646
0.0919637
0.0896936
0.0869286
0.0836548
0.079867
0.0755751
0.070796
0.0655642
0.0599157
0.0539072
0.0475843
0.0410238
0.0342633
0.0274019
0.0939468
0.0940479
0.0942302
0.0944572
0.0946828
0.0948587
0.0949354
0.0948618
0.0945864
0.0940583
0.0932288
0.0920521
0.0904878
0.0885011
0.0860657
0.0831632
0.079787
0.0759384
0.0716332
0.0668926
0.0617546
0.056256
0.0504538
0.0443909
0.0381413
0.0317362
0.0252707
0.0924178
0.0924863
0.092606
0.0927434
0.0928556
0.0928971
0.092821
0.0925796
0.0921248
0.0914101
0.0903916
0.089029
0.0872882
0.0851405
0.0825667
0.0795548
0.0761045
0.0722229
0.0679302
0.0632512
0.0582257
0.0528909
0.047303
0.0415016
0.0355578
0.0294963
0.0234083
0.0908526
0.0908896
0.0909485
0.0909993
0.0910024
0.0909153
0.0906942
0.0902946
0.0896726
0.0887858
0.0875954
0.0860666
0.084171
0.0818863
0.0791994
0.0761041
0.0726057
0.0687157
0.0644582
0.0598602
0.0549626
0.0498021
0.0444332
0.0388927
0.0332474
0.0275172
0.021788
0.0892539
0.0892603
0.0892606
0.0892281
0.0891269
0.0889175
0.0885596
0.088012
0.0872351
0.086191
0.0848458
0.0831701
0.0811411
0.0787422
0.0759658
0.0728112
0.069288
0.0654116
0.0612087
0.0567079
0.0519502
0.0469716
0.0418242
0.0365416
0.0311866
0.0257743
0.0203858
0.087624
0.0876011
0.0875452
0.0874332
0.0872328
0.0869079
0.0864216
0.0857367
0.0848177
0.0836311
0.082148
0.0803442
0.0782022
0.0757106
0.0728669
0.0696748
0.0661477
0.0623041
0.0581724
0.0537822
0.0491739
0.0443822
0.0394565
0.0344274
0.0293534
0.0242455
0.0191797
0.0859659
0.0859149
0.0858054
0.0856179
0.0853238
0.0848906
0.0842849
0.0834736
0.0824252
0.0811109
0.0795066
0.0775929
0.0753573
0.0727933
0.0699026
0.0666929
0.0631806
0.0593864
0.05534
0.051071
0.0466191
0.0420171
0.0373117
0.0325304
0.0277275
0.0229103
0.01815
0.0842823
0.0842047
0.0840445
0.0837858
0.0834038
0.0828696
0.0821539
0.0812271
0.0800622
0.0786348
0.0769254
0.0749194
0.0726087
0.0699911
0.0670721
0.0638627
0.0603816
0.0566512
0.0527016
0.0485624
0.0442717
0.0398606
0.0353726
0.0308325
0.0262903
0.0217503
0.0172787
0.0825764
0.0824736
0.0822657
0.0819404
0.0814765
0.0808492
0.0800327
0.0790016
0.0777329
0.0762068
0.0744081
0.0723264
0.0699579
0.0673042
0.0643739
0.0611807
0.0577452
0.0540908
0.0502475
0.0462445
0.0421181
0.0378974
0.0336229
0.0293166
0.0250246
0.0207483
0.0165495
0.0808512
0.0807249
0.0804725
0.0800853
0.0795459
0.0788332
0.0779254
0.0768011
0.0754414
0.0738305
0.0719575
0.069816
0.0674059
0.064732
0.0618058
0.058643
0.0552655
0.0516972
0.0479679
0.0441057
0.0401451
0.0361132
0.0320474
0.0279671
0.0239145
0.019889
0.0159476
0.0791101
0.0789619
0.0786684
0.0782241
0.0776156
0.0768256
0.0758361
0.0746296
0.0731911
0.071509
0.069576
0.0673896
0.0649528
0.0622734
0.0593651
0.0562451
0.0529362
0.0494626
0.0458531
0.0421349
0.0383403
0.0344945
0.0306318
0.0267693
0.0229456
0.019158
0.0154594
0.0773563
0.0771881
0.0768568
0.0763604
0.0756894
0.0748301
0.0737683
0.0724904
0.0709853
0.0692448
0.0672656
0.0650481
0.0625985
0.0599268
0.0570486
0.0539823
0.050751
0.0473787
0.0438935
0.040321
0.0366916
0.0330284
0.0293628
0.0257097
0.0221043
0.0185424
0.0150727
0.0755934
0.0754068
0.0750412
0.0744979
0.0737709
0.0728503
0.0717257
0.070387
0.0688267
0.0670403
0.0650276
0.062792
0.0603422
0.0576902
0.0548529
0.0518496
0.0487033
0.0454378
0.0420798
0.0386537
0.0351877
0.0317028
0.0282279
0.0247758
0.0213783
0.0180302
0.0147763
0.0738247
0.0736216
0.0732253
0.0726401
0.0718637
0.0708898
0.0697115
0.0683222
0.0667179
0.0648973
0.062863
0.0606213
0.0581827
0.055561
0.0527741
0.0498416
0.0467865
0.0436317
0.0404029
0.0371228
0.0338176
0.0305065
0.0272155
0.0239559
0.0207563
0.0176106
0.01456
0.0720537
0.0718359
0.0714124
0.0707905
0.0699712
0.0689518
0.0677287
0.0662987
0.064661
0.0628172
0.0607725
0.0585355
0.0561185
0.0535366
0.0508081
0.047953
0.0449939
0.0419529
0.0388541
0.0357189
0.0325713
0.0294288
0.0263149
0.0232392
0.0202278
0.0172736
0.0144144
0.0702839
0.0700533
0.0696062
0.0689526
0.0680967
0.0670394
0.0657802
0.064319
0.0626578
0.0608011
0.0587563
0.056534
0.0541478
0.0516137
0.0489507
0.0461785
0.0433191
0.0403936
0.0374249
0.0344327
0.031439
0.0284597
0.025516
0.022616
0.0197832
0.01701
0.014331
0.0685189
0.0682773
0.0678099
0.0671296
0.0662435
0.0651557
0.0638686
0.0623851
0.0607099
0.0588498
0.0568143
0.0546155
0.0522683
0.0497893
0.0471975
0.0445126
0.0417556
0.0389467
0.0361072
0.0332555
0.0304117
0.02759
0.0248095
0.022077
0.0194136
0.0168115
0.0143021
0.066762
0.0665111
0.0660271
0.0653248
0.0644146
0.0633033
0.0619962
0.0604989
0.0588185
0.0569637
0.0549461
0.0527788
0.0504777
0.0480598
0.0455441
0.0429498
0.040297
0.0376049
0.0348934
0.0321792
0.0294809
0.026811
0.0241867
0.0216137
0.019111
0.0166704
0.0143206
0.0650167
0.0647583
0.0642608
0.0635414
0.0626128
0.0614847
0.0601651
0.0586619
0.0569843
0.0551431
0.0531509
0.0510222
0.0487734
0.0464218
0.0439861
0.0414848
0.0389373
0.0363615
0.033776
0.031196
0.0286385
0.0261145
0.0236396
0.0212184
0.0188679
0.0165796
0.01438
0.0632862
0.063022
0.0625143
0.0617822
0.0608409
0.0597024
0.0583773
0.0568756
0.0552083
0.0533877
0.0514279
0.049344
0.0471528
0.0448717
0.0425188
0.0401123
0.0376704
0.03521
0.032748
0.0302986
0.027877
0.0254932
0.0231609
0.0208839
0.0186773
0.0165329
0.0144744
0.0615738
0.0613055
0.0607906
0.06005
0.0591013
0.0579585
0.0566344
0.0551409
0.0534907
0.0516974
0.0497759
0.0477421
0.045613
0.0434057
0.0411381
0.0388273
0.0364907
0.0341439
0.0318028
0.0294801
0.0271895
0.02494
0.0227436
0.0206035
0.0185332
0.0165243
0.0145985
0.0598826
0.0596116
0.0590925
0.0583477
0.0573964
0.0562549
0.0549378
0.0534587
0.0518317
0.0500715
0.0481937
0.0462146
0.0441512
0.0420204
0.0398394
0.0376247
0.0353926
0.0331576
0.0309342
0.028734
0.0265695
0.0244484
0.0223815
0.0203713
0.0184296
0.0165485
0.0147475
0.0582157
0.0579435
0.0574229
0.0566775
0.0557283
0.0545934
0.0532888
0.0518297
0.0502314
0.0485093
0.0466797
0.0447591
0.0427643
0.040712
0.0386186
0.0364998
0.0343708
0.0322452
0.0301362
0.0280544
0.0260108
0.0240124
0.0220687
0.0201815
0.0183615
0.0166007
0.0149168
0.0565758
0.0563038
0.0557843
0.055042
0.0540991
0.0529754
0.0516884
0.0502543
0.0486895
0.04701
0.0452325
0.0433735
0.0414496
0.0394769
0.0374714
0.0354478
0.0334203
0.0314014
0.0294033
0.0274355
0.0255079
0.0236266
0.0217999
0.0200292
0.0183239
0.0166765
0.0151026
0.0549657
0.0546952
0.0541791
0.0534431
0.0525105
0.0514023
0.0501373
0.0487328
0.0472057
0.0455726
0.0438503
0.0420553
0.040204
0.0383118
0.0363939
0.0344644
0.0325363
0.0306213
0.0287304
0.0268722
0.0250555
0.0232857
0.0215701
0.0199097
0.0183127
0.0167718
0.0153013
0.0533879
0.0531201
0.0526097
0.0518829
0.0509641
0.0498754
0.0486364
0.0472653
0.0457794
0.0441959
0.0425314
0.0408024
0.0390246
0.0372131
0.0353823
0.0335452
0.0317143
0.0299
0.0281125
0.0263595
0.0246488
0.0229851
0.0213749
0.0198187
0.0183238
0.0168831
0.0155096
0.0518449
0.0515807
0.0510779
0.0503631
0.0494613
0.0483955
0.047186
0.0458517
0.0444102
0.0428787
0.0412741
0.0396122
0.0379085
0.0361775
0.0344327
0.0326863
0.0309499
0.0292332
0.0275452
0.0258929
0.0242834
0.0227206
0.0212101
0.0197524
0.0183536
0.0170072
0.0157246
0.0503387
0.0500792
0.0495859
0.0488854
0.0480034
0.0469635
0.0457865
0.0444917
0.0430971
0.0416198
0.0400764
0.0384825
0.036853
0.0352018
0.0335415
0.0318838
0.0302392
0.0286166
0.0270242
0.0254683
0.0239551
0.022488
0.0210721
0.0197072
0.018399
0.0171411
0.0159439
0.0488715
0.0486175
0.0481351
0.0474511
0.0465914
0.0455799
0.044438
0.0431852
0.0418394
0.0404178
0.0389365
0.037411
0.0358554
0.0342829
0.0327055
0.0311341
0.0295783
0.0280464
0.0265456
0.0250818
0.0236602
0.0222839
0.0209573
0.01968
0.018457
0.0172823
0.016165
0.0474451
0.0471974
0.0467273
0.0460615
0.0452262
0.0442453
0.0431406
0.0419315
0.0406361
0.0392712
0.0378526
0.0363953
0.0349129
0.0334178
0.0319214
0.0304338
0.0289638
0.0275189
0.0261059
0.0247297
0.0233952
0.022105
0.0208627
0.019668
0.0185251
0.0174285
0.0163861
0.0460611
0.0458203
0.0453636
0.0447177
0.0439085
0.04296
0.0418941
0.0407302
0.0394862
0.0381786
0.0368229
0.0354333
0.034023
0.0326037
0.0311861
0.0297795
0.0283922
0.0270308
0.0257016
0.0244089
0.023157
0.0219482
0.0207855
0.0196686
0.0186009
0.0175775
0.0166053
0.044721
0.0444876
0.0440454
0.0434205
0.0426388
0.0417242
0.0406984
0.0395807
0.0383887
0.0371387
0.0358454
0.0345228
0.0331832
0.0318379
0.0304967
0.0291684
0.0278604
0.0265791
0.0253297
0.0241164
0.0229428
0.0218108
0.0207232
0.0196794
0.0186825
0.0177276
0.0168211
0.043426
0.0432004
0.0427735
0.0421708
0.0414176
0.040538
0.0395532
0.0384823
0.0373426
0.0361498
0.0349185
0.0336617
0.0323913
0.0311178
0.0298506
0.0285976
0.0273657
0.0261607
0.0249874
0.0238494
0.0227499
0.0216905
0.0206736
0.0196985
0.0187679
0.0178774
0.0170322
0.0421772
0.0419599
0.0415488
0.0409689
0.0402452
0.0394012
0.0384579
0.0374341
0.0363466
0.0352107
0.0340403
0.0328479
0.0316449
0.030441
0.0292451
0.0280644
0.0269054
0.0257731
0.0246721
0.0236054
0.0225759
0.021585
0.0206346
0.0197241
0.0188557
0.0180253
0.0172376
0.0409756
0.0407667
0.0403719
0.0398154
0.0391217
0.0383137
0.0374122
0.0364353
0.0353996
0.0343198
0.0332091
0.0320796
0.0309419
0.0298053
0.0286779
0.0275665
0.0264769
0.0254139
0.0243814
0.0233822
0.0224189
0.0214924
0.0206045
0.0197546
0.0189444
0.0181703
0.0174362
0.0398219
0.0396217
0.0392434
0.0387106
0.0380471
0.0372753
0.0364154
0.0354852
0.0345006
0.0334757
0.0324233
0.0313548
0.0302803
0.0292084
0.0281467
0.0271015
0.0260782
0.0250809
0.0241133
0.0231779
0.0222768
0.0214109
0.0205817
0.0197886
0.0190329
0.0183113
0.0176273
0.0387167
0.0385252
0.0381636
0.0376546
0.0370214
0.0362856
0.035467
0.0345828
0.0336482
0.032677
0.0316813
0.0306719
0.0296582
0.0286484
0.0276495
0.0266674
0.025707
0.024772
0.0238658
0.0229904
0.0221479
0.021339
0.0205649
0.0198249
0.0191202
0.0184477
0.0178104
0.0376605
0.0374776
0.0371327
0.0366475
0.0360443
0.0353443
0.0345663
0.0337271
0.0328415
0.0319224
0.0309815
0.030029
0.0290737
0.0281234
0.0271844
0.0262623
0.0253615
0.0244854
0.0236371
0.0228183
0.0220309
0.0212754
0.0205528
0.0198624
0.0192053
0.0185786
0.0179848
0.0366534
0.0364793
0.0361509
0.0356892
0.0351157
0.0344507
0.0337125
0.0329173
0.0320792
0.0312106
0.0303225
0.0294246
0.0285253
0.0276316
0.0267497
0.0258844
0.02504
0.0242195
0.0234257
0.0226601
0.0219243
0.0212188
0.0205444
0.0199004
0.0192877
0.0187036
0.0181503
0.0356958
0.0355302
0.0352181
0.0347795
0.0342351
0.0336044
0.032905
0.0321525
0.0313603
0.0305403
0.029703
0.0288573
0.0280113
0.0271715
0.0263436
0.0255322
0.0247409
0.0239728
0.0232301
0.0225144
0.021827
0.0211683
0.0205388
0.0199381
0.0193667
0.0188223
0.0183066
0.0347877
0.0346305
0.0343342
0.0339183
0.0334022
0.0328048
0.032143
0.0314317
0.0306837
0.0299103
0.0291215
0.0283256
0.0275303
0.0267416
0.0259648
0.025204
0.0244629
0.0237439
0.0230493
0.0223802
0.021738
0.0211229
0.0205353
0.0199749
0.0194419
0.0189343
0.0184536
0.0339291
0.03378
0.0334992
0.0331052
0.0326165
0.0320513
0.0314258
0.030754
0.0300483
0.0293195
0.0285768
0.0278283
0.0270809
0.0263405
0.0256118
0.0248988
0.0242046
0.0235317
0.0228819
0.0222565
0.0216564
0.0210819
0.0205333
0.0200103
0.019513
0.0190395
0.0185912
0.0331198
0.0329786
0.0327128
0.0323399
0.0318777
0.0313434
0.0307525
0.0301186
0.0294533
0.0287668
0.0280678
0.0273641
0.026662
0.0259669
0.0252835
0.0246152
0.023965
0.0233351
0.0227272
0.0221424
0.0215814
0.0210446
0.0205323
0.0200439
0.0195796
0.0191378
0.0187194
0.0323597
0.0322261
0.0319747
0.031622
0.0311851
0.0306804
0.0301226
0.0295246
0.0288976
0.0282511
0.0275935
0.0269318
0.0262723
0.0256199
0.0249787
0.0243523
0.0237431
0.0231533
0.0225843
0.0220371
0.0215125
0.0210107
0.0205318
0.0200755
0.0196417
0.0192291
0.0188384
0.0316487
0.0315223
0.0312846
0.0309512
0.0305384
0.0300617
0.0295353
0.0289713
0.0283804
0.0277716
0.0271528
0.0265306
0.0259109
0.0252983
0.0246966
0.024109
0.023538
0.0229853
0.0224524
0.0219401
0.0214491
0.0209796
0.0205316
0.0201048
0.0196992
0.0193134
0.0189481
0.0309866
0.030867
0.0306422
0.0303271
0.0299371
0.0294869
0.02899
0.028458
0.0279009
0.0273274
0.0267449
0.0261596
0.0255769
0.0250013
0.0244362
0.0238847
0.0233489
0.0228306
0.022331
0.0218509
0.0213908
0.020951
0.0205314
0.0201318
0.019752
0.0193909
0.0190488
0.030373
0.0302599
0.0300473
0.0297494
0.0293807
0.0289553
0.028486
0.0279839
0.0274584
0.0269178
0.026369
0.0258179
0.0252695
0.0247281
0.0241969
0.0236786
0.0231753
0.0226885
0.0222195
0.0217689
0.0213373
0.0209246
0.0205311
0.0201563
0.0198001
0.0194615
0.0191408
0.029808
0.0297009
0.0294996
0.0292177
0.0288689
0.0284667
0.0280231
0.0275486
0.0270524
0.0265421
0.0260244
0.0255048
0.0249881
0.0244781
0.0239779
0.0234901
0.0230165
0.0225587
0.0221176
0.021694
0.0212882
0.0209004
0.0205306
0.0201784
0.0198437
0.0195256
0.0192242
0.0292913
0.0291898
0.028999
0.0287319
0.0284015
0.0280206
0.0276006
0.0271516
0.0266823
0.0261999
0.0257107
0.0252199
0.0247321
0.0242507
0.0237788
0.0233187
0.0228722
0.0224407
0.022025
0.0216258
0.0212435
0.0208782
0.0205298
0.020198
0.0198828
0.0195832
0.0192993
0.028823
0.0287266
0.0285455
0.0282919
0.0279783
0.0276168
0.0272184
0.0267927
0.0263478
0.0258907
0.0254273
0.0249627
0.024501
0.0240456
0.0235992
0.0231642
0.0227421
0.0223342
0.0219413
0.0215642
0.021203
0.0208578
0.0205287
0.0202153
0.0199175
0.0196345
0.0193663
0.0284032
0.0283114
0.028139
0.0278976
0.0275992
0.0272552
0.0268763
0.0264715
0.0260486
0.0256143
0.0251741
0.0247329
0.0242946
0.0238624
0.0234389
0.0230262
0.0226259
0.022239
0.0218666
0.021509
0.0211666
0.0208394
0.0205274
0.0202303
0.019948
0.0196797
0.0194254
0.0280321
0.0279444
0.0277798
0.0275492
0.0272643
0.026936
0.0265743
0.026188
0.0257846
0.0253705
0.0249509
0.0245304
0.0241127
0.023701
0.0232976
0.0229046
0.0225234
0.0221552
0.0218006
0.0214603
0.0211343
0.0208229
0.0205259
0.0202432
0.0199744
0.019719
0.0194769
0.0277102
0.0276261
0.0274682
0.0272472
0.026974
0.0266593
0.0263127
0.0259426
0.0255561
0.0251594
0.0247576
0.0243551
0.0239553
0.0235613
0.0231754
0.0227994
0.0224348
0.0220826
0.0217435
0.0214179
0.0211062
0.0208084
0.0205244
0.020254
0.0199969
0.0197526
0.019521
0.0274383
0.0273572
0.027205
0.0269921
0.0267289
0.0264257
0.0260918
0.0257354
0.0253633
0.0249814
0.0245947
0.0242073
0.0238226
0.0234436
0.0230723
0.0227107
0.02236
0.0220213
0.0216952
0.0213822
0.0210824
0.020796
0.0205229
0.0202628
0.0200155
0.0197806
0.0195578
0.0272171
0.0271386
0.0269911
0.0267848
0.0265297
0.0262359
0.0259125
0.0255671
0.0252067
0.0248368
0.0244624
0.0240873
0.0237149
0.023348
0.0229887
0.0226387
0.0222993
0.0219715
0.021656
0.021353
0.021063
0.0207858
0.0205215
0.0202698
0.0200304
0.0198031
0.0195874
0.0270482
0.0269716
0.0268277
0.0266264
0.0263776
0.0260911
0.0257755
0.0254387
0.0250872
0.0247265
0.0243614
0.0239957
0.0236327
0.0232751
0.0229249
0.0225838
0.022253
0.0219335
0.021626
0.0213307
0.021048
0.0207779
0.0205203
0.020275
0.0200417
0.0198201
0.0196098
0.0269332
0.0268578
0.0267165
0.0265186
0.0262741
0.0259925
0.0256823
0.0253513
0.0250059
0.0246515
0.0242927
0.0239335
0.0235769
0.0232255
0.0228815
0.0225464
0.0222215
0.0219077
0.0216056
0.0213156
0.0210379
0.0207725
0.0205194
0.0202784
0.0200492
0.0198315
0.019625
0.0268743
0.0267996
0.0266595
0.0264634
0.0262211
0.025942
0.0256347
0.0253066
0.0249643
0.0246131
0.0242576
0.0239016
0.0235483
0.0232001
0.0228593
0.0225272
0.0222053
0.0218944
0.0215951
0.0213078
0.0210326
0.0207697
0.020519
0.0202802
0.0200531
0.0198374
0.0196327
0.119226
0.119943
0.121406
0.123476
0.126153
0.129383
0.133159
0.13747
0.14231
0.147686
0.1536
0.160072
0.1671
0.174716
0.182927
0.191768
0.201236
0.211384
0.222199
0.23374
0.245981
0.258999
0.272737
0.287298
0.302558
0.318686
0.3354
0.353092
0.371069
0.119225
0.119942
0.121405
0.123475
0.126152
0.129382
0.133159
0.13747
0.142309
0.147685
0.153599
0.160069
0.167096
0.174711
0.182919
0.191757
0.201221
0.211364
0.222172
0.233705
0.245936
0.258941
0.272663
0.287204
0.302437
0.318538
0.335218
0.352868
0.370795
0.11922
0.119937
0.1214
0.123469
0.126147
0.129377
0.133153
0.137463
0.142302
0.147677
0.153588
0.160057
0.167081
0.174693
0.182895
0.191727
0.201183
0.211316
0.222112
0.233629
0.245841
0.258823
0.272515
0.287021
0.302211
0.31826
0.334879
0.352455
0.370291
0.119211
0.119927
0.121389
0.123458
0.126136
0.129365
0.133141
0.13745
0.142287
0.14766
0.153569
0.160034
0.167054
0.17466
0.182855
0.191678
0.201122
0.211241
0.222017
0.233513
0.245697
0.258645
0.272295
0.28675
0.301877
0.317853
0.334383
0.351853
0.369559
0.119197
0.119913
0.121375
0.123445
0.12612
0.129349
0.133123
0.137431
0.142266
0.147636
0.153542
0.160002
0.167015
0.174614
0.182799
0.19161
0.201038
0.211137
0.221889
0.233355
0.245502
0.258406
0.272001
0.28639
0.301435
0.317315
0.333728
0.351062
0.3686
0.119178
0.119894
0.121355
0.123425
0.1261
0.129326
0.133099
0.137405
0.142238
0.147605
0.153505
0.159959
0.166965
0.174554
0.182727
0.191522
0.20093
0.211006
0.221727
0.233157
0.245258
0.258107
0.271633
0.285941
0.300887
0.316648
0.332917
0.350083
0.367413
0.119155
0.11987
0.121331
0.123399
0.126074
0.129299
0.13307
0.137373
0.142202
0.147565
0.15346
0.159906
0.166903
0.174481
0.182638
0.191414
0.2008
0.210846
0.221532
0.232918
0.244965
0.257748
0.271193
0.285404
0.300231
0.315852
0.33195
0.348917
0.365999
0.119128
0.119842
0.121302
0.123369
0.126042
0.129266
0.133035
0.137335
0.14216
0.147518
0.153406
0.159844
0.16683
0.174394
0.182534
0.191288
0.200646
0.210659
0.221303
0.232638
0.244622
0.257329
0.27068
0.284779
0.299468
0.314927
0.330826
0.347564
0.364361
0.119096
0.119809
0.121269
0.123335
0.126005
0.129228
0.132994
0.13729
0.142111
0.147463
0.153343
0.159771
0.166745
0.174293
0.182413
0.191143
0.20047
0.210444
0.22104
0.232317
0.24423
0.25685
0.270095
0.284065
0.298598
0.313873
0.329548
0.346025
0.362498
0.119059
0.119772
0.12123
0.123295
0.125963
0.129184
0.132947
0.13724
0.142055
0.1474
0.153272
0.159689
0.166648
0.174179
0.182276
0.190978
0.20027
0.210202
0.220744
0.231956
0.243788
0.256311
0.269436
0.283265
0.297623
0.312692
0.328115
0.344302
0.360414
0.119018
0.11973
0.121188
0.123251
0.125915
0.129135
0.132895
0.137183
0.141993
0.14733
0.153192
0.159596
0.16654
0.174051
0.182123
0.190794
0.200048
0.209932
0.220415
0.231555
0.243297
0.255713
0.268706
0.282377
0.296542
0.311384
0.326529
0.342395
0.358109
0.118973
0.119684
0.12114
0.123202
0.125863
0.12908
0.132837
0.13712
0.141923
0.147252
0.153103
0.159494
0.16642
0.17391
0.181955
0.190591
0.199803
0.209634
0.220052
0.231113
0.242758
0.255056
0.267904
0.281402
0.295356
0.30995
0.32479
0.340307
0.355585
0.118923
0.119633
0.121088
0.123148
0.125807
0.129021
0.132773
0.137051
0.141847
0.147167
0.153006
0.159382
0.166289
0.173755
0.18177
0.19037
0.199535
0.209309
0.219656
0.230631
0.242169
0.25434
0.26703
0.28034
0.294065
0.308389
0.322899
0.338038
0.352844
0.118869
0.119578
0.121031
0.123089
0.125746
0.128956
0.132704
0.136975
0.141764
0.147074
0.1529
0.15926
0.166147
0.173587
0.18157
0.190129
0.199244
0.208957
0.219227
0.230109
0.241532
0.253565
0.266085
0.279193
0.29267
0.306704
0.320859
0.33559
0.349889
0.11881
0.119518
0.12097
0.123025
0.125679
0.128886
0.132629
0.136894
0.141674
0.146973
0.152786
0.159128
0.165993
0.173405
0.181354
0.18987
0.198931
0.208577
0.218766
0.229548
0.240847
0.252731
0.265068
0.27796
0.291171
0.304895
0.318669
0.332965
0.346722
0.118747
0.119454
0.120904
0.122957
0.125608
0.128811
0.132548
0.136807
0.141578
0.146865
0.152664
0.158987
0.165828
0.173211
0.181122
0.189591
0.198595
0.20817
0.218271
0.228946
0.240113
0.251839
0.263981
0.276641
0.28957
0.302962
0.316332
0.330165
0.343346
0.11868
0.119385
0.120833