/*--------------------------------*- C++ -*----------------------------------*\
  =========                 |
  \\      /  F ield         | OpenFOAM: The Open Source CFD Toolbox
   \\    /   O peration     | Website:  https://openfoam.org
    \\  /    A nd           | Version:  7
     \\/     M anipulation  |
\*---------------------------------------------------------------------------*/
FoamFile
{
    version     2.0;
    format      ascii;
    class       volScalarField;
    location    "200";
    object      p;
}
// * * * * * * * * * * * * * * * * * * * * * * * * * * * * * * * * * * * * * //

dimensions      [0 2 -2 0 0 0 0];

internalField   nonuniform List<scalar> 
4575
(
-0.040586
-0.0416363
-0.0413008
-0.0393707
-0.0360665
-0.0331047
-0.0309431
-0.0304262
-0.0305498
-0.030744
-0.0288226
-0.0259322
-0.0232559
-0.0210591
-0.0214479
-0.0211036
-0.0189502
-0.0131653
-0.0125426
-0.00891764
-0.00937789
-0.00592118
-0.0038234
-0.0400594
-0.0406427
-0.0400231
-0.0380143
-0.0348585
-0.0321936
-0.030472
-0.0304683
-0.0310332
-0.031608
-0.0298336
-0.0269485
-0.0239715
-0.0213142
-0.0212323
-0.0203503
-0.0180116
-0.0120559
-0.0117658
-0.0085792
-0.00941344
-0.00641397
-0.00416961
-0.0395357
-0.0396604
-0.0387607
-0.0366696
-0.0336545
-0.0312807
-0.0299971
-0.0305074
-0.0315168
-0.0324733
-0.0308459
-0.0279647
-0.0246857
-0.0215679
-0.0210158
-0.0195955
-0.0170736
-0.0109483
-0.0109891
-0.00824053
-0.00944835
-0.00690533
-0.00451651
-0.0390159
-0.0386901
-0.0375144
-0.0353373
-0.032455
-0.0303659
-0.0295181
-0.0305431
-0.032
-0.0333393
-0.0318592
-0.0289804
-0.0253985
-0.0218202
-0.0207989
-0.0188398
-0.0161369
-0.00984297
-0.0102128
-0.00790162
-0.00948235
-0.00739497
-0.00486396
-0.0385007
-0.0377328
-0.0362849
-0.0340179
-0.0312604
-0.0294495
-0.0290347
-0.0305749
-0.0324822
-0.0342056
-0.0328728
-0.0299953
-0.0261098
-0.0220714
-0.020582
-0.0180838
-0.0152018
-0.00874041
-0.00943698
-0.00756243
-0.00951518
-0.00788256
-0.00521184
-0.037991
-0.0367892
-0.0350728
-0.032712
-0.0300711
-0.0285318
-0.0285469
-0.0306024
-0.032963
-0.0350715
-0.0338863
-0.0310089
-0.0268194
-0.0223215
-0.0203654
-0.0173279
-0.014269
-0.00764106
-0.00866173
-0.00722294
-0.00954655
-0.00836782
-0.00556002
-0.0374876
-0.0358601
-0.0338789
-0.0314203
-0.0288876
-0.0276127
-0.0280543
-0.030625
-0.0334417
-0.0359366
-0.0348992
-0.0320208
-0.0275272
-0.0225709
-0.0201498
-0.0165729
-0.013339
-0.00654541
-0.00788719
-0.00688314
-0.00957622
-0.00885043
-0.00590837
-0.036991
-0.0349462
-0.0327037
-0.0301431
-0.0277103
-0.0266926
-0.0275568
-0.0306424
-0.0339179
-0.0368003
-0.035911
-0.0330307
-0.028233
-0.0228196
-0.0199353
-0.0158191
-0.0124122
-0.0054539
-0.00711348
-0.00654302
-0.0096039
-0.0093301
-0.00625674
-0.0365021
-0.034048
-0.0315478
-0.0288812
-0.0265397
-0.0257716
-0.0270542
-0.0306539
-0.0343909
-0.0376621
-0.0369211
-0.0340382
-0.0289366
-0.0230677
-0.0197226
-0.0150673
-0.0114893
-0.00436702
-0.00634071
-0.00620256
-0.00962933
-0.00980653
-0.00660499
-0.0360213
-0.0331663
-0.0304118
-0.0276351
-0.0253762
-0.02485
-0.0265463
-0.0306593
-0.0348602
-0.0385216
-0.0379292
-0.0350428
-0.029638
-0.0233155
-0.019512
-0.014318
-0.0105707
-0.00328521
-0.00556898
-0.00586176
-0.00965226
-0.0102794
-0.00695296
-0.0355492
-0.0323015
-0.0292962
-0.0264052
-0.0242203
-0.0239278
-0.0260329
-0.0306579
-0.0353253
-0.0393782
-0.0389346
-0.0360442
-0.030337
-0.023563
-0.0193038
-0.0135717
-0.00965692
-0.00220893
-0.0047984
-0.00552062
-0.00967243
-0.0107486
-0.00730051
-0.0350863
-0.0314541
-0.0282016
-0.0251922
-0.0230725
-0.0230053
-0.0255137
-0.0306494
-0.0357857
-0.0402315
-0.0399371
-0.0370419
-0.0310333
-0.0238103
-0.0190985
-0.0128291
-0.00874846
-0.00113865
-0.00402907
-0.00517914
-0.00968958
-0.0112136
-0.00764746
-0.0346332
-0.0306246
-0.0271283
-0.0239965
-0.0219332
-0.0220828
-0.0249886
-0.0306332
-0.0362407
-0.0410809
-0.040936
-0.0380357
-0.0317269
-0.0240577
-0.0188965
-0.0120906
-0.0078458
-7.48075e-05
-0.00326109
-0.00483734
-0.00970348
-0.0116742
-0.00799366
-0.0341901
-0.0298134
-0.0260768
-0.0228188
-0.0208029
-0.0211604
-0.0244574
-0.030609
-0.0366899
-0.041926
-0.041931
-0.0390251
-0.0324175
-0.0243051
-0.0186981
-0.0113569
-0.00694942
0.000982138
-0.00249455
-0.00449522
-0.00971388
-0.0121302
-0.00833893
-0.0337575
-0.0290208
-0.0250476
-0.0216595
-0.019682
-0.0202384
-0.0239199
-0.0305761
-0.0371327
-0.0427663
-0.0429216
-0.0400098
-0.0331049
-0.0245527
-0.0185037
-0.0106284
-0.0060598
0.00203174
-0.00172953
-0.0041528
-0.00972054
-0.0125813
-0.00868311
-0.0333356
-0.0282472
-0.0240409
-0.0205191
-0.018571
-0.019317
-0.0233759
-0.0305343
-0.0375687
-0.0436014
-0.0439073
-0.0409894
-0.0337889
-0.0248005
-0.0183137
-0.00990576
-0.00517738
0.00307356
-0.000966142
-0.00381012
-0.00972325
-0.0130272
-0.009026
-0.0329248
-0.0274927
-0.0230572
-0.0193981
-0.0174704
-0.0183965
-0.0228253
-0.0304831
-0.0379972
-0.0444309
-0.0448879
-0.0419634
-0.0344694
-0.0250487
-0.0181283
-0.00918951
-0.00430261
0.00410716
-0.000204457
-0.00346719
-0.00972178
-0.0134677
-0.00936744
-0.0325253
-0.0267577
-0.0220967
-0.0182969
-0.0163806
-0.0174771
-0.0222679
-0.0304219
-0.0384178
-0.0452542
-0.0458628
-0.0429316
-0.0351461
-0.0252973
-0.0179479
-0.00848016
-0.00343595
0.00513209
0.000555434
-0.00312406
-0.00971593
-0.0139025
-0.00970722
-0.0321373
-0.0260423
-0.0211597
-0.0172161
-0.0153021
-0.016559
-0.0217035
-0.0303504
-0.03883
-0.046071
-0.0468317
-0.0438936
-0.0358188
-0.0255463
-0.0177728
-0.00777823
-0.00257782
0.00614792
0.00131345
-0.00278076
-0.00970549
-0.0143314
-0.0100452
-0.0317609
-0.0253465
-0.0202464
-0.0161559
-0.0142353
-0.0156425
-0.0211321
-0.0302682
-0.0392332
-0.0468808
-0.0477941
-0.044849
-0.0364873
-0.0257958
-0.0176033
-0.00708425
-0.00172863
0.00715423
0.00206951
-0.00243734
-0.00969028
-0.014754
-0.0103811
-0.0313963
-0.0246706
-0.0193571
-0.0151169
-0.0131807
-0.014728
-0.0205535
-0.0301749
-0.039627
-0.0476832
-0.0487498
-0.0457974
-0.0371514
-0.0260458
-0.0174396
-0.00639872
-0.000888793
0.00815059
0.00282352
-0.00209384
-0.00967012
-0.0151703
-0.0107148
-0.0310436
-0.0240145
-0.0184919
-0.0140994
-0.0121388
-0.0138157
-0.0199675
-0.03007
-0.0400108
-0.0484779
-0.0496983
-0.0467386
-0.0378109
-0.0262963
-0.017282
-0.00572213
-5.87117e-05
0.00913658
0.00357542
-0.00175033
-0.00964483
-0.0155799
-0.0110461
-0.0307028
-0.0233782
-0.0176509
-0.0131039
-0.0111099
-0.0129058
-0.0193741
-0.0299532
-0.0403842
-0.0492643
-0.0506394
-0.0476722
-0.0384655
-0.0265473
-0.0171307
-0.00505496
0.00076123
0.0101118
0.00432511
-0.00140685
-0.00961426
-0.0159826
-0.0113747
-0.0303739
-0.0227618
-0.0168343
-0.0121306
-0.0100945
-0.0119988
-0.0187733
-0.029824
-0.0407467
-0.0500422
-0.0515726
-0.0485979
-0.0391149
-0.0267988
-0.016986
-0.00439769
0.00157066
0.0110758
0.00507252
-0.00106348
-0.00957826
-0.0163782
-0.0117005
-0.0300571
-0.0221651
-0.0160421
-0.01118
-0.00909311
-0.011095
-0.0181649
-0.0296822
-0.0410979
-0.0508111
-0.0524976
-0.0495153
-0.039759
-0.0270507
-0.016848
-0.00375077
0.00236921
0.0120282
0.00581757
-0.000720283
-0.00953671
-0.0167665
-0.0120233
-0.0297522
-0.021588
-0.0152743
-0.0102524
-0.00810607
-0.0101946
-0.017549
-0.0295274
-0.0414372
-0.0515707
-0.0534142
-0.0504241
-0.0403976
-0.027303
-0.0167169
-0.00311466
0.00315652
0.0129685
0.00656017
-0.000377332
-0.00948948
-0.0171472
-0.0123428
-0.0294592
-0.0210305
-0.014531
-0.009348
-0.00713386
-0.00929802
-0.0169254
-0.0293592
-0.0417642
-0.0523205
-0.0543221
-0.051324
-0.0410303
-0.0275557
-0.0165928
-0.00248978
0.00393227
0.0138965
0.00730025
-3.47044e-05
-0.00943646
-0.0175203
-0.0126589
-0.0291782
-0.0204922
-0.0138121
-0.00846718
-0.00617689
-0.00840565
-0.0162943
-0.0291774
-0.0420784
-0.0530602
-0.0552208
-0.0522148
-0.041657
-0.0278087
-0.016476
-0.00187656
0.00469612
0.0148117
0.00803771
0.000307518
-0.00937757
-0.0178854
-0.0129713
-0.0289089
-0.019973
-0.0131175
-0.0076102
-0.00523561
-0.00751784
-0.0156556
-0.0289816
-0.0423795
-0.0537895
-0.0561102
-0.053096
-0.0422773
-0.0280618
-0.0163664
-0.00127539
0.00544774
0.0157136
0.00877248
0.00064925
-0.00931273
-0.0182424
-0.0132799
-0.0286514
-0.0194726
-0.0124473
-0.00677729
-0.00431044
-0.00663499
-0.0150093
-0.0287716
-0.0426668
-0.0545079
-0.05699
-0.0539675
-0.0428912
-0.0283151
-0.0162642
-0.000686671
0.00618685
0.016602
0.00950446
0.000990402
-0.00924186
-0.0185912
-0.0135844
-0.0284055
-0.0189907
-0.0118012
-0.00596867
-0.00340181
-0.00575751
-0.0143556
-0.0285471
-0.0429402
-0.0552152
-0.0578599
-0.054829
-0.0434982
-0.0285683
-0.0161694
-0.000110762
0.00691313
0.0174764
0.0102336
0.00133088
-0.00916493
-0.0189315
-0.0138847
-0.0281712
-0.0185271
-0.0111792
-0.00518458
-0.00251018
-0.00488583
-0.0136945
-0.0283078
-0.043199
-0.0559109
-0.0587196
-0.0556802
-0.0440982
-0.0288214
-0.016082
0.00045196
0.00762631
0.0183364
0.0109597
0.0016706
-0.0090819
-0.0192631
-0.0141804
-0.0279485
-0.0180816
-0.0105812
-0.00442537
-0.00163607
-0.00402044
-0.0130261
-0.0280536
-0.0434429
-0.0565947
-0.0595688
-0.0565207
-0.0446909
-0.0290742
-0.0160023
0.0010011
0.00832606
0.0191817
0.0116827
0.00200945
-0.00899276
-0.0195861
-0.0144715
-0.0277375
-0.0176537
-0.0100071
-0.00369123
-0.000780004
-0.00316185
-0.0123507
-0.0277842
-0.0436715
-0.0572662
-0.0604073
-0.0573505
-0.0452761
-0.0293266
-0.0159301
0.00153638
0.00901214
0.0200119
0.0124026
0.00234733
-0.00889748
-0.0199001
-0.0147577
-0.0275364
-0.0172416
-0.00945491
-0.002981
5.83192e-05
-0.00231031
-0.0116683
-0.0274995
-0.0438844
-0.0579254
-0.0612353
-0.0581696
-0.0458539
-0.0295785
-0.0158647
0.00205799
0.00968472
0.0208268
0.0131192
0.00268414
-0.00879612
-0.020205
-0.0150389
-0.0273432
-0.016843
-0.00892245
-0.00229253
0.000880174
-0.00146544
-0.010979
-0.0271995
-0.0440819
-0.0585728
-0.0620534
-0.0589783
-0.0464236
-0.0298288
-0.0158055
0.0025663
0.0103442
0.0216264
0.0138325
0.00301974
-0.00868876
-0.0205009
-0.0153149
-0.027164
-0.0164652
-0.0084186
-0.00163405
0.00168021
-0.000629997
-0.0102836
-0.0268843
-0.0442631
-0.0592064
-0.0628582
-0.0597729
-0.0469826
-0.0300771
-0.015755
0.00305825
0.0109874
0.0224091
0.014542
0.00335401
-0.00857534
-0.0207874
-0.0155853
-0.0270249
-0.0161332
-0.00797367
-0.00103855
0.00243241
0.000181159
-0.00958626
-0.0265503
-0.0444183
-0.0598116
-0.063634
-0.0605442
-0.0475298
-0.0303277
-0.0157243
0.00352343
0.0116041
0.0231686
0.0152461
0.00368725
-0.00845503
-0.0210631
-0.0158494
-0.0269231
-0.0158337
-0.00756688
-0.000489671
0.00314315
0.000969426
-0.00888447
-0.0261903
-0.0445381
-0.0603838
-0.0643875
-0.0613061
-0.0480821
-0.0305921
-0.0157129
0.00396529
0.0122008
0.0239063
0.0159464
0.00402035
-0.00832743
-0.021328
-0.0161077
-0.0266697
-0.0153599
-0.00692785
0.000322463
0.0040768
0.00189976
-0.00812354
-0.0258389
-0.0447323
-0.061083
-0.0652841
-0.0621655
-0.0486772
-0.0308565
-0.0156374
0.00447093
0.0128796
0.0246851
0.016663
0.00435013
-0.00820338
-0.0215961
-0.016366
-0.0256663
-0.0137927
-0.00472026
0.0031945
0.00724991
0.00477439
-0.00610027
-0.0252308
-0.0457411
-0.0633773
-0.0679147
-0.0644139
-0.0500885
-0.0313885
-0.015246
0.00579871
0.0146522
0.0265816
0.0182668
0.0050332
-0.00797851
-0.0222026
-0.0169167
-0.0241479
-0.0119933
-0.00278652
0.00527778
0.0092629
0.00699054
-0.00438525
-0.0246974
-0.0466786
-0.0656482
-0.070432
-0.0664436
-0.0513897
-0.0317008
-0.0146681
0.00740773
0.0166371
0.0288226
0.0202038
0.00597401
-0.0075334
-0.0229033
-0.0176433
-0.0225861
-0.010221
-0.000894063
0.00736504
0.0114628
0.00903455
-0.00283532
-0.024182
-0.0474804
-0.0678135
-0.0729117
-0.0684175
-0.0525585
-0.0319134
-0.0141067
0.00894835
0.0185066
0.0309689
0.0220297
0.00690037
-0.00701557
-0.0234823
-0.0183066
-0.0209463
-0.00845141
0.000955117
0.00942458
0.0136762
0.0111696
-0.00115991
-0.0235732
-0.048303
-0.0701008
-0.0754728
-0.070309
-0.053583
-0.0320007
-0.0135323
0.0104233
0.020283
0.0330232
0.0238276
0.00783191
-0.00645739
-0.0239451
-0.0189004
-0.0192324
-0.00669091
0.00271944
0.0113479
0.0157607
0.0132656
0.000555276
-0.0229112
-0.04913
-0.0723971
-0.0779763
-0.0720255
-0.0544111
-0.0319393
-0.0129349
0.0118085
0.021926
0.0349323
0.0255656
0.00875394
-0.00586762
-0.0242735
-0.0194087
-0.0174509
-0.00494762
0.00438869
0.013126
0.0176849
0.0152312
0.00222569
-0.022211
-0.049876
-0.0745889
-0.08037
-0.0735303
-0.0550161
-0.0317153
-0.0123058
0.0130877
0.0234204
0.0366662
0.0272122
0.00965269
-0.00524258
-0.0244554
-0.0198196
-0.0156106
-0.00322875
0.00596098
0.0147531
0.0194369
0.0170402
0.00383272
-0.0214513
-0.0504786
-0.0766241
-0.0826135
-0.0747908
-0.0553716
-0.0313142
-0.0116345
0.0142481
0.024757
0.0382058
0.0287524
0.0105205
-0.00458251
-0.0244859
-0.0201235
-0.0137222
-0.00154248
0.00743242
0.0162175
0.0210052
0.0186826
0.00537659
-0.0206135
-0.0509007
-0.0784474
-0.0846441
-0.0757647
-0.0554492
-0.0307223
-0.0109104
0.0152789
0.0259257
0.0395328
0.0301741
0.0113503
-0.00389424
-0.0243629
-0.0203121
-0.0117988
0.000101229
0.00879824
0.0175091
0.0223771
0.0201427
0.00684731
-0.019691
-0.0510996
-0.0799746
-0.0863791
-0.0764021
-0.0552208
-0.0299277
-0.010123
0.0161716
0.0269175
0.0406284
0.0314623
0.0121333
-0.00318702
-0.0240855
-0.0203786
-0.00985514
0.00169118
0.0100537
0.0186193
0.023538
0.0213988
0.00822501
-0.0186787
-0.051016
-0.0810999
-0.0877186
-0.076646
-0.0546589
-0.0289209
-0.00926309
0.0169211
0.0277247
0.0414741
0.0325986
0.0128602
-0.00247018
-0.0236546
-0.0203187
-0.00790703
0.00321568
0.0111942
0.0195405
0.0244724
0.0224269
0.00948757
-0.0175676
-0.0505818
-0.081704
-0.088546
-0.0764331
-0.0537375
-0.0276961
-0.00832325
0.0175267
0.028341
0.0420519
0.0335625
0.0135218
-0.00175305
-0.0230734
-0.0201308
-0.00597079
0.0046633
0.0122156
0.0202671
0.0251655
0.0232048
0.0106136
-0.0163483
-0.0497286
-0.081659
-0.088732
-0.0756956
-0.0524336
-0.0262523
-0.007299
0.0179924
0.0287625
0.042345
0.0343315
0.014109
-0.00104493
-0.0223472
-0.0198159
-0.00406225
0.00602397
0.013115
0.0207969
0.0256049
0.0237127
0.011582
-0.0150146
-0.0483917
-0.0808356
-0.0881419
-0.0743642
-0.0507284
-0.0245937
-0.00618953
0.0183275
0.0289875
0.0423382
0.0348812
0.0146123
-0.00035428
-0.0214827
-0.0193776
-0.00219584
0.00728997
0.0138919
0.0211327
0.025783
0.0239348
0.0123716
-0.0135646
-0.0465161
-0.0791149
-0.0866462
-0.0723733
-0.048609
-0.022731
-0.00499825
0.0185465
0.029018
0.0420184
0.0351859
0.0150222
0.000312327
-0.0204876
-0.0188214
-0.000383797
0.0084569
0.0145491
0.0212832
0.0256983
0.0238613
0.0129634
-0.0120011
-0.0440625
-0.0764015
-0.0841345
-0.0696675
-0.0460704
-0.0206813
-0.003733
0.0186683
0.0288597
0.0413753
0.0352197
0.0153291
0.000951301
-0.0193693
-0.0181541
0.0013646
0.00952425
0.0150942
0.0212638
0.0253586
0.0234908
0.0133427
-0.010332
-0.0410147
-0.0726367
-0.0805288
-0.06621
-0.0431173
-0.0184683
-0.00240576
0.018715
0.0285233
0.0404034
0.0349586
0.0155234
0.00156304
-0.0181342
-0.0173826
0.00304356
0.0104956
0.0155394
0.021098
0.0247828
0.0228338
0.0135015
-0.0085718
-0.0373859
-0.0678126
-0.0757989
-0.0619899
-0.0397664
-0.0161213
-0.00103175
0.0187097
0.0280255
0.0391038
0.0343829
0.0155967
0.00215291
-0.0167864
-0.0165124
0.00465091
0.0113787
0.0159019
0.0208164
0.0240027
0.0219152
0.0134408
-0.00674083
-0.0332224
-0.0619796
-0.069973
-0.0570305
-0.0360483
-0.0136743
0.000371836
0.0186741
0.0273896
0.0374875
0.0334811
0.0155432
0.0027321
-0.0153271
-0.0155462
0.00618778
0.012185
0.0162022
0.0204572
0.0230637
0.0207769
0.0131742
-0.00486402
-0.0286035
-0.0552516
-0.0631449
-0.0513935
-0.0320084
-0.0111642
0.00178733
0.0186261
0.0266456
0.0355787
0.0322539
0.0153624
0.00331828
-0.0137539
-0.0144825
0.00765799
0.0129284
0.0164636
0.0200642
0.0220255
0.0194805
0.0127309
-0.00296741
-0.0236387
-0.0478042
-0.0554737
-0.0451801
-0.0277076
-0.00862875
0.00319784
0.018578
0.0258298
0.0334202
0.0307193
0.0150624
0.00393561
-0.0120606
-0.0133159
0.00906697
0.013625
0.0167092
0.0196843
0.0209605
0.0181094
0.0121611
-0.00107402
-0.0184612
-0.0398626
-0.0471774
-0.0385329
-0.023222
-0.00610469
0.00458821
0.018536
0.0249821
0.0310771
0.0289178
0.0146647
0.00461397
-0.0102394
-0.0120376
0.01042
0.0142916
0.0169602
0.0193634
0.0199503
0.0167678
0.0115395
0.000800981
-0.0132175
-0.0316879
-0.0385224
-0.0316275
-0.0186409
-0.00362603
0.0059456
0.0185012
0.0241429
0.0286403
0.0269148
0.0142075
0.00538637
-0.00828361
-0.0106391
0.0117203
0.0149435
0.0172347
0.019142
0.0190785
0.015575
0.0109661
0.00265512
-0.00805629
-0.0235592
-0.0298039
-0.0246633
-0.0140631
-0.00122307
0.00725915
0.0184717
0.0233485
0.0262259
0.0248011
0.0137477
0.00628383
-0.00619378
-0.00911712
0.0129681
0.0155917
0.0175442
0.0190492
0.0184222
0.0146364
0.01056
0.00450043
-0.00311912
-0.0157483
-0.0213241
-0.0178533
-0.00959283
0.00107802
0.00851936
0.0184447
0.0226269
0.0239671
0.0226884
0.0133579
0.00732729
-0.00398453
-0.00747978
0.0141602
0.0162416
0.0178922
0.0190926
0.0180407
0.0141259
0.0104436
0.00635883
0.00146963
-0.00850033
-0.0133684
-0.0114047
-0.00533217
0.00325527
0.00971767
0.018417
0.0219948
0.0219992
0.0206985
0.0131172
0.00851696
-0.00169279
-0.00575312
0.0152909
0.0168937
0.018276
0.0192591
0.0179541
0.0140711
0.0107086
0.0082504
0.00561101
-0.00201495
-0.00618059
-0.00550092
-0.0013734
0.00529083
0.0108461
0.0183862
0.0214549
0.0204346
0.0189453
0.0130943
0.00982217
0.000616719
-0.00398427
0.0163526
0.0175439
0.0186875
0.019521
0.0181415
0.0144714
0.0113931
0.0101801
0.00923846
0.0035731
6.20245e-05
-0.000285523
0.00220879
0.00717068
0.0118972
0.0183513
0.0210001
0.0193327
0.0175198
0.013326
0.0111758
0.00285287
-0.00223992
0.0173375
0.018184
0.0191142
0.0198428
0.0185413
0.0152536
0.0124696
0.0121281
0.012321
0.00820147
0.00526252
0.00415985
0.00536704
0.00888468
0.0128638
0.0183124
0.020618
0.0186847
0.0164708
0.0137971
0.0124786
0.00490874
-0.000598832
0.0182391
0.0188037
0.0195415
0.0201874
0.019068
0.0162892
0.0138483
0.014051
0.0148676
0.011886
0.00941259
0.00782365
0.0080844
0.0104263
0.0137395
0.0182693
0.0202899
0.0184177
0.0157907
0.0144327
0.0136152
0.00667877
0.00086037
0.0190529
0.0193925
0.0199556
0.0205243
0.0196341
0.0174258
0.0153899
0.0158816
0.0169175
0.0147129
0.0125963
0.0107511
0.0103696
0.0117928
0.0145179
0.0182214
0.0199924
0.0184135
0.0154245
0.0151101
0.0144815
0.00807797
0.00207283
0.0197774
0.0199409
0.0203463
0.0208346
0.0201693
0.0185223
0.0169268
0.0175311
0.018517
0.0168085
0.0149599
0.0130306
0.0122533
0.0129856
0.0151927
0.0181669
0.0197031
0.0185356
0.0153083
0.015702
0.0150115
0.00905949
0.00299804
0.0204135
0.0204411
0.0207063
0.0211099
0.020633
0.0194775
0.0183057
0.0189095
0.0197092
0.0183087
0.0166703
0.0147718
0.0137808
0.0140094
0.01576
0.0181029
0.0194067
0.0186588
0.0153179
0.0161143
0.0151948
0.00962737
0.00362535
0.0209639
0.0208871
0.0210303
0.0213468
0.0210092
0.0202445
0.0194263
0.0199633
0.0205413
0.0193401
0.0178817
0.0160802
0.0150008
0.0148712
0.0162197
0.0180257
0.0190955
0.0186959
0.0154163
0.0163063
0.0150803
0.00983567
0.00397588
0.0214326
0.0212755
0.0213145
0.0215442
0.0212965
0.0208177
0.0202559
0.0206955
0.0210723
0.020013
0.018719
0.0170454
0.0159596
0.0155788
0.0165759
0.0179315
0.0187664
0.0186033
0.0155382
0.0162891
0.0147502
0.00976806
0.00409613
0.0218245
0.0216057
0.0215572
0.0217036
0.0215055
0.0212125
0.0208215
0.0211536
0.0213689
0.0204198
0.0192759
0.0177379
0.0166998
0.0161417
0.0168357
0.0178168
0.0184188
0.0183757
0.0156234
0.0160925
0.0142822
0.00951195
0.00404616
0.0218796
0.0217584
0.0218279
0.0216499
0.0214478
0.0211763
0.0214026
0.0214945
0.0206346
0.019623
0.0182121
0.0171054
0.0165697
0.0170081
0.0176783
0.0180532
0.0180308
0.0156204
0.0157457
0.01373
0.00913983
0.00388628
0.0221003
0.0219203
0.0219205
0.0217436
0.0215926
0.0213779
0.0215041
0.0215011
0.0207145
0.0198146
0.0185279
0.0175127
0.0168886
0.0171031
0.0175128
0.0176716
0.0175956
0.0154982
0.0152763
0.0131244
0.0087031
0.00366652
0.0222726
0.0220456
0.0219844
0.0217967
0.0216655
0.0214724
0.0215063
0.0214282
0.0207014
0.0198925
0.0187199
0.0177846
0.0171084
0.0171299
0.017319
0.0172767
0.0170987
0.0152529
0.0147137
0.0124846
0.00823538
0.00342228
0.0224014
0.0221374
0.0220229
0.0218181
0.0216848
0.0214925
0.0214439
0.021304
0.0206254
0.0198883
0.0188157
0.0179469
0.0172408
0.0170974
0.0170973
0.0168723
0.0165672
0.0149031
0.0140891
0.0118267
0.00775875
0.00317533
0.0224918
0.0221994
0.022039
0.0218148
0.0216651
0.0214614
0.0213409
0.0211484
0.0205079
0.0198253
0.0188376
0.0180217
0.0172986
0.0170144
0.0168502
0.0164633
0.0160222
0.0144779
0.0134328
0.0111671
0.00728838
0.00293758
0.0225488
0.0222352
0.0220358
0.0217916
0.0216175
0.0213955
0.0212133
0.0209748
0.0203635
0.0197208
0.0188029
0.0180271
0.0172944
0.0168892
0.0165821
0.0160543
0.0154777
0.0139625
0.0127705
0.010521
0.00683488
0.00271482
0.0225773
0.0222483
0.0220162
0.0217525
0.02155
0.0213063
0.0210716
0.0207925
0.0202025
0.0195877
0.0187257
0.0179775
0.0172401
0.0167296
0.0162982
0.0156497
0.014948
0.0134667
0.0121256
0.00990129
0.00640542
0.00250953
0.0225817
0.0222419
0.0219826
0.0217005
0.0214687
0.0212018
0.0209229
0.0206075
0.0200322
0.0194352
0.0186167
0.0178842
0.017113
0.0165424
0.0160039
0.015253
0.0144388
0.0129701
0.0115119
0.00931695
0.00600437
0.00232242
0.0225657
0.022219
0.0219372
0.0216371
0.0213781
0.021088
0.0207717
0.0204238
0.0198575
0.0192704
0.0184851
0.0177611
0.0169877
0.0163376
0.0157049
0.0148672
0.0139535
0.0124854
0.0109375
0.00877364
0.00563396
0.00215327
0.0225332
0.0221824
0.0218824
0.0215673
0.0212817
0.0209689
0.0206209
0.0202439
0.019682
0.0190985
0.0183377
0.0176161
0.016836
0.0161212
0.0154058
0.0144947
0.0134944
0.0120207
0.0104061
0.00827408
0.00529491
0.00200133
0.0224871
0.0221346
0.02182
0.0214918
0.021182
0.0208478
0.0204726
0.0200695
0.0195083
0.0189236
0.0181801
0.0174557
0.0166658
0.0158975
0.0151106
0.0141375
0.0130628
0.0115809
0.00991889
0.0078189
0.00498687
0.00186561
0.0224305
0.0220778
0.0217516
0.0214119
0.0210808
0.0207266
0.020328
0.0199015
0.0193384
0.0187487
0.0180165
0.0172855
0.0164839
0.0156708
0.0148223
0.0137974
0.0126599
0.0111694
0.0094754
0.00740727
0.00470877
0.00174494
0.022366
0.0220143
0.0216787
0.0213293
0.0209796
0.0206071
0.0201883
0.0197407
0.0191736
0.0185764
0.0178507
0.0171105
0.0162957
0.0154449
0.0145438
0.0134755
0.0122859
0.0107878
0.00907404
0.00703746
0.00445914
0.0016381
0.0222958
0.0219461
0.0216032
0.0212452
0.0208795
0.0204906
0.0200542
0.0195876
0.0190152
0.0184087
0.0176856
0.0169346
0.0161059
0.0152235
0.0142775
0.0131732
0.0119408
0.0104366
0.00871273
0.00670722
0.0042363
0.00154391
0.0222223
0.0218749
0.0215265
0.0211611
0.0207818
0.0203782
0.0199265
0.0194429
0.0188641
0.0182474
0.0175238
0.0167613
0.0159186
0.0150095
0.0140256
0.0128914
0.0116244
0.0101158
0.00838917
0.00641405
0.00403849
0.0014612
0.0221474
0.0218024
0.0214499
0.0210783
0.0206874
0.0202708
0.0198059
0.019307
0.0187213
0.0180941
0.0173678
0.0165936
0.0157371
0.0148054
0.0137898
0.012631
0.0113364
0.00982505
0.00810109
0.00615538
0.00386395
0.00138893
0.0220731
0.0217306
0.0213749
0.0209981
0.0205975
0.0201695
0.019693
0.0191805
0.0185879
0.0179501
0.0172195
0.0164341
0.0155643
0.0146136
0.0135715
0.0123928
0.0110763
0.00956382
0.00784633
0.00592876
0.00371101
0.00132614
0.0220008
0.0216611
0.021303
0.0209218
0.020513
0.0200752
0.0195887
0.0190642
0.0184646
0.0178168
0.0170809
0.016285
0.0154029
0.0144361
0.0133722
0.0121773
0.0108441
0.00933156
0.00762296
0.00573191
0.00357818
0.001272
0.0219327
0.0215952
0.0212354
0.0208506
0.0204351
0.0199889
0.0194937
0.0189588
0.0183526
0.0176955
0.0169539
0.0161483
0.0152552
0.0142748
0.0131931
0.0119852
0.0106393
0.0091278
0.00742934
0.00556282
0.00346411
0.00122579
0.02187
0.0215346
0.0211737
0.0207859
0.0203649
0.0199115
0.0194091
0.0188652
0.0182528
0.0175874
0.0168402
0.016026
0.015123
0.0141314
0.0130354
0.0118173
0.0104621
0.00895216
0.00726417
0.00541979
0.00336767
0.00118691
0.0218143
0.0214808
0.0211191
0.0207288
0.0203035
0.0198442
0.0193358
0.0187844
0.0181666
0.017494
0.0167414
0.0159197
0.0150084
0.0140076
0.0129004
0.0116744
0.0103125
0.00880447
0.00712649
0.00530147
0.00328796
0.00115489
0.0217671
0.0214352
0.0210729
0.0206808
0.020252
0.019788
0.0192748
0.0187174
0.0180949
0.0174163
0.0166591
0.0158313
0.0149132
0.0139051
0.0127893
0.0115573
0.0101908
0.00868479
0.00701572
0.00520691
0.00322433
0.00112937
0.0217299
0.0213991
0.0210365
0.020643
0.0202117
0.0197441
0.0192273
0.0186652
0.0180392
0.0173559
0.0165949
0.0157624
0.0148391
0.0138256
0.0127035
0.0114673
0.0100977
0.00859347
0.00693171
0.00513557
0.00317641
0.00111014
0.0217038
0.0213738
0.021011
0.0206166
0.0201837
0.0197137
0.0191945
0.0186292
0.0180007
0.0173142
0.0165505
0.0157147
0.0147879
0.0137706
0.0126445
0.0114055
0.0100342
0.00853122
0.00687475
0.00508733
0.00314418
0.00109707
0.0216903
0.0213606
0.0209978
0.0206028
0.0201691
0.0196979
0.0191775
0.0186105
0.0179807
0.0172925
0.0165276
0.0156899
0.0147614
0.0137421
0.0126142
0.0113735
0.0100016
0.0084991
0.00684574
0.00506254
0.003128
0.00109026
0.0192855
0.0189402
0.0185521
0.0181157
0.0176352
0.017106
0.016533
0.0159126
0.0152486
0.0145374
0.013782
0.012976
0.0121244
0.0112151
0.0102594
0.0092382
0.00817187
0.00703936
0.00586657
0.00463694
0.003372
0.00205892
0.000708026
0.0193057
0.01896
0.0185714
0.0181341
0.0176527
0.0171223
0.0165483
0.015927
0.0152624
0.0145506
0.013795
0.0129887
0.0121372
0.0112273
0.0102715
0.00924889
0.00818184
0.00704711
0.00587308
0.00464132
0.0033752
0.00206041
0.000708679
0.0193448
0.0189982
0.0186087
0.0181696
0.0176864
0.0171539
0.0165779
0.0159548
0.0152887
0.0145762
0.0138199
0.0130134
0.0121617
0.0112511
0.0102947
0.00926979
0.00820093
0.00706232
0.00588531
0.0046501
0.00338103
0.00206399
0.000709655
0.0194016
0.0190539
0.0186629
0.0182212
0.0177352
0.0171996
0.0166205
0.015995
0.0153267
0.0146132
0.0138559
0.0130493
0.0121972
0.0112856
0.0103286
0.00930024
0.00822867
0.00708436
0.0059029
0.00466281
0.00338935
0.0020695
0.000710928
0.0194751
0.019126
0.0187331
0.0182879
0.0177982
0.0172582
0.016675
0.0160463
0.0153752
0.0146607
0.0139021
0.0130955
0.0122431
0.0113304
0.0103726
0.00933973
0.00826463
0.00711268
0.0059254
0.00467899
0.00339991
0.00207688
0.000712534
0.0195644
0.0192135
0.0188183
0.0183686
0.0178742
0.0173286
0.0167404
0.0161077
0.0154332
0.0147176
0.0139576
0.0131515
0.0122987
0.0113849
0.0104264
0.00938783
0.00830842
0.00714674
0.00595232
0.00469812
0.0034124
0.00208623
0.000714493
0.0196687
0.0193158
0.0189178
0.0184626
0.0179624
0.0174098
0.0168154
0.016178
0.0154995
0.0147831
0.0140217
0.0132166
0.0123634
0.0114488
0.0104896
0.00944415
0.00835969
0.00718597
0.0059831
0.00471958
0.00342653
0.00209772
0.00071682
0.0197873
0.0194324
0.019031
0.0185689
0.0180616
0.0175006
0.0168988
0.016256
0.0155732
0.0148562
0.0140934
0.0132903
0.0124366
0.0115216
0.0105621
0.00950834
0.00841813
0.00722974
0.0060171
0.00474262
0.00344201
0.00211167
0.000719538
0.0199198
0.0195626
0.0191574
0.0186869
0.018171
0.0175997
0.0169893
0.0163402
0.0156528
0.014936
0.014172
0.013372
0.012518
0.0116031
0.0106436
0.00958009
0.00848344
0.00727737
0.00605354
0.00476627
0.00345855
0.00212854
0.000722683
0.0200658
0.0197062
0.0192965
0.0188158
0.0182895
0.0177059
0.0170854
0.0164293
0.0157372
0.0150215
0.0142567
0.0134614
0.0126068
0.0116932
0.0107341
0.00965907
0.0085553
0.00732805
0.00609144
0.00478933
0.00347593
0.00214896
0.000726314
0.0202252
0.0198629
0.019448
0.0189549
0.018416
0.0178175
0.0171855
0.0165215
0.0158249
0.0151115
0.0143468
0.0135579
0.0127025
0.0117916
0.0108334
0.00974494
0.00863339
0.00738084
0.00612954
0.00481025
0.00349394
0.00217381
0.000730519
0.0203978
0.0200328
0.0196115
0.0191032
0.0185492
0.017933
0.0172877
0.0166151
0.0159144
0.015205
0.0144415
0.0136613
0.0128046
0.0118982
0.0109414
0.00983732
0.00871727
0.0074346
0.00616621
0.00482707
0.00351243
0.00220419
0.000735435
0.0205838
0.0202157
0.0197867
0.0192599
0.0186876
0.0180503
0.0173897
0.0167082
0.016004
0.0153008
0.0145401
0.0137711
0.0129123
0.012013
0.0110577
0.00993572
0.00880642
0.00748792
0.00619929
0.00483729
0.00353131
0.00224148
0.000741281
0.0207834
0.020412
0.0199733
0.019424
0.0188294
0.0181671
0.0174888
0.0167977
0.0160917
0.0153978
0.0146421
0.0138869
0.0130249
0.0121356
0.0111818
0.0100395
0.0089001
0.00753905
0.00622596
0.00483778
0.00355046
0.00228739
0.000748467
0.0209969
0.0206217
0.020171
0.019594
0.0189723
0.0182805
0.0175819
0.016881
0.0161752
0.0154946
0.0147462
0.0140081
0.0131411
0.0122654
0.0113127
0.0101479
0.00899729
0.00758578
0.00624254
0.00482458
0.00356978
0.00234351
0.000757567
0.0212248
0.0208452
0.0203792
0.0197682
0.0191134
0.0183869
0.0176657
0.0169548
0.0162519
0.0155896
0.0148517
0.014134
0.0132594
0.0124015
0.011449
0.0102596
0.00909651
0.00762536
0.00624433
0.00479282
0.00358922
0.00241296
0.000769291
0.0214674
0.0210824
0.0205969
0.0199444
0.0192492
0.0184821
0.0177372
0.0170153
0.0163188
0.015681
0.0149579
0.014264
0.0133776
0.0125422
0.0115884
0.0103729
0.00919554
0.00765422
0.00622535
0.00473652
0.00360832
0.00249767
0.000784664
0.0217251
0.0213334
0.0208227
0.0201193
0.0193752
0.0185605
0.0177885
0.0170574
0.0163723
0.015767
0.0150635
0.0143961
0.0134928
0.0126845
0.0117272
0.010485
0.00929119
0.00766776
0.00617798
0.00464875
0.003626
0.00259972
0.000805304
0.0219978
0.0215977
0.0210545
0.0202888
0.0194854
0.0186159
0.0178142
0.0170756
0.0164085
0.015845
0.0151671
0.0145292
0.0136009
0.0128237
0.0118604
0.0105919
0.00937881
0.00765987
0.00609291
0.00452142
0.00363997
0.00272073
0.000833603
0.0222849
0.021874
0.0212889
0.0204469
0.0195726
0.0186401
0.0178071
0.0170636
0.0164227
0.0159125
0.0152674
0.0146609
0.013696
0.0129527
0.0119806
0.0106871
0.00945166
0.00762241
0.00595891
0.00434524
0.0036465
0.00286158
0.000870917
0.022585
0.0221602
0.0215209
0.0205857
0.0196274
0.0186246
0.0177589
0.0170143
0.0164099
0.0159665
0.0153627
0.014788
0.013771
0.0130605
0.0120773
0.0107609
0.00950019
0.0075445
0.00576246
0.00411032
0.00364004
0.0030216
0.000925134
0.0228948
0.0224523
0.0217431
0.0206944
0.0196377
0.0185708
0.0176603
0.0169196
0.0163646
0.0160036
0.015451
0.0149062
0.0138183
0.0131306
0.012136
0.0107981
0.00951103
0.00741165