/*--------------------------------*- C++ -*----------------------------------*\
  =========                 |
  \\      /  F ield         | OpenFOAM: The Open Source CFD Toolbox
   \\    /   O peration     | Website:  https://openfoam.org
    \\  /    A nd           | Version:  7
     \\/     M anipulation  |
\*---------------------------------------------------------------------------*/
FoamFile
{
    version     2.0;
    format      ascii;
    class       volScalarField;
    location    "220";
    object      p;
}
// * * * * * * * * * * * * * * * * * * * * * * * * * * * * * * * * * * * * * //

dimensions      [0 2 -2 0 0 0 0];

internalField   nonuniform List<scalar> 
7158
(
-0.071485
-0.0634002
-0.0561176
-0.0509698
-0.048623
-0.0491934
-0.0518256
-0.0542782
-0.0549348
-0.0525903
-0.0482808
-0.0434139
-0.0393976
-0.0374708
-0.0376072
-0.0387733
-0.0396966
-0.0386961
-0.035488
-0.0317775
-0.027305
-0.026019
-0.0252356
-0.0256894
-0.0236229
-0.0215452
-0.0135165
-0.0102089
-0.00302144
-0.0729274
-0.0645115
-0.0568495
-0.0513116
-0.0485638
-0.0487366
-0.0509945
-0.0531645
-0.0536642
-0.0513442
-0.0472003
-0.0426163
-0.0389507
-0.0374078
-0.0379489
-0.0394305
-0.0406277
-0.0396968
-0.0364699
-0.032524
-0.027729
-0.0260775
-0.0248481
-0.0250689
-0.022694
-0.0206706
-0.0127198
-0.00966263
-0.00300213
-0.0743708
-0.0656199
-0.0575749
-0.0516452
-0.0484973
-0.0482755
-0.0501634
-0.052055
-0.0524
-0.0501035
-0.0461215
-0.0418165
-0.0384993
-0.03734
-0.0382871
-0.0400871
-0.0415605
-0.0406995
-0.0374527
-0.0332691
-0.0281506
-0.0261332
-0.0244585
-0.0244479
-0.0217663
-0.0197972
-0.011925
-0.00911656
-0.00298229
-0.0758146
-0.0667254
-0.0582937
-0.0519709
-0.0484239
-0.0478108
-0.049333
-0.0509505
-0.051143
-0.0488686
-0.0450447
-0.0410146
-0.0380433
-0.0372672
-0.0386216
-0.0407426
-0.0424944
-0.0417039
-0.0384361
-0.0340127
-0.0285698
-0.026186
-0.024067
-0.0238267
-0.0208403
-0.018925
-0.0111324
-0.0085708
-0.00296184
-0.0772583
-0.0678276
-0.059006
-0.052289
-0.0483441
-0.047343
-0.048504
-0.0498517
-0.0498935
-0.04764
-0.0439703
-0.0402109
-0.0375827
-0.037189
-0.0389519
-0.0413967
-0.0434291
-0.0427096
-0.0394198
-0.0347547
-0.0289864
-0.0262361
-0.0236739
-0.0232054
-0.0199163
-0.0180545
-0.010342
-0.00802543
-0.00294072
-0.0787011
-0.0689263
-0.0597118
-0.0525996
-0.0482584
-0.0468728
-0.0476771
-0.0487591
-0.0486522
-0.0464181
-0.0428985
-0.0394053
-0.0371174
-0.0371054
-0.0392777
-0.042049
-0.0443643
-0.0437164
-0.0404034
-0.0354947
-0.0294005
-0.0262837
-0.0232794
-0.0225844
-0.0189946
-0.0171857
-0.00955426
-0.00748058
-0.00291887
-0.0801424
-0.0700211
-0.0604112
-0.0529032
-0.0481672
-0.0464007
-0.0468529
-0.0476734
-0.0474196
-0.0452033
-0.0418296
-0.0385981
-0.0366474
-0.0370161
-0.0395987
-0.0426991
-0.0452994
-0.0447238
-0.0413867
-0.0362328
-0.029812
-0.0263287
-0.0228837
-0.0219639
-0.0180755
-0.016319
-0.00876928
-0.00693634
-0.00289621
-0.0815817
-0.071112
-0.0611041
-0.0531998
-0.048071
-0.0459274
-0.046032
-0.0465951
-0.0461962
-0.043996
-0.0407639
-0.0377895
-0.0361726
-0.0369208
-0.0399144
-0.0433466
-0.0462342
-0.0457316
-0.0423694
-0.0369686
-0.0302209
-0.0263712
-0.022487
-0.0213441
-0.0171593
-0.0154546
-0.0079873
-0.00639282
-0.00287268
-0.0830183
-0.0721986
-0.0617906
-0.0534898
-0.0479701
-0.0454532
-0.0452149
-0.0455249
-0.0449824
-0.0427965
-0.0397017
-0.0369795
-0.0356931
-0.0368194
-0.0402247
-0.043991
-0.0471682
-0.0467393
-0.0433511
-0.037702
-0.030627
-0.0264114
-0.0220895
-0.0207253
-0.0162465
-0.0145926
-0.00720854
-0.00585011
-0.00284823
-0.0844515
-0.0732807
-0.0624708
-0.0537734
-0.0478649
-0.0449789
-0.0444024
-0.0444632
-0.0437787
-0.0416053
-0.0386433
-0.0361683
-0.0352088
-0.0367116
-0.040529
-0.044632
-0.048101
-0.0477466
-0.0443316
-0.0384328
-0.0310303
-0.0264494
-0.0216914
-0.0201077
-0.0153372
-0.0137334
-0.00643323
-0.00530831
-0.00282278
-0.0858807
-0.0743581
-0.0631447
-0.0540508
-0.047756
-0.0445048
-0.0435949
-0.0434106
-0.0425856
-0.0404227
-0.037589
-0.0353561
-0.0347197
-0.0365971
-0.040827
-0.0452691
-0.0490322
-0.0487532
-0.0453105
-0.0391608
-0.0314307
-0.0264851
-0.0212929
-0.0194915
-0.0144318
-0.0128771
-0.00566157
-0.00476752
-0.00279628
-0.0873052
-0.0754305
-0.0638124
-0.0543224
-0.0476436
-0.0440315
-0.0427929
-0.0423676
-0.0414036
-0.0392491
-0.0365391
-0.034543
-0.0342258
-0.0364759
-0.0411184
-0.0459019
-0.0499614
-0.0497586
-0.0462876
-0.0398859
-0.0318282
-0.0265188
-0.0208942
-0.018877
-0.0135306
-0.0120241
-0.00489377
-0.00422783
-0.00276866
-0.0887242
-0.0764977
-0.0644739
-0.0545883
-0.0475282
-0.0435595
-0.041997
-0.0413347
-0.0402329
-0.0380849
-0.0354938
-0.0337293
-0.033727
-0.0363477
-0.0414028
-0.0465301
-0.0508882
-0.0507626
-0.0472625
-0.0406077
-0.0322228
-0.0265504
-0.0204956
-0.0182645
-0.0126339
-0.0111743
-0.00413003
-0.00368932
-0.00273987
-0.0901373
-0.0775593
-0.0651293
-0.0548489
-0.0474102
-0.0430892
-0.0412076
-0.0403122
-0.0390741
-0.0369303
-0.0344535
-0.0329149
-0.0332234
-0.0362121
-0.0416798
-0.0471531
-0.0518121
-0.0517648
-0.0482349
-0.0413262
-0.0326142
-0.0265801
-0.0200972
-0.0176541
-0.0117421
-0.0103282
-0.00337056
-0.0031521
-0.00270984
-0.0915435
-0.0786153
-0.0657786
-0.0551043
-0.0472899
-0.042621
-0.0404253
-0.0393007
-0.0379275
-0.0357858
-0.0334185
-0.0321002
-0.032715
-0.0360692
-0.0419492
-0.0477705
-0.0527328
-0.0527648
-0.0492045
-0.0420412
-0.0330026
-0.0266078
-0.0196992
-0.017046
-0.0108553
-0.00948589
-0.00261557
-0.00261623
-0.00267852
-0.0929423
-0.0796653
-0.066422
-0.0553548
-0.0471676
-0.0421555
-0.0396503
-0.0383006
-0.0367935
-0.0346516
-0.0323889
-0.0312852
-0.0322016
-0.0359186
-0.0422104
-0.0483819
-0.0536497
-0.0537623
-0.0501711
-0.0427524
-0.0333877
-0.0266338
-0.0193019
-0.0164406
-0.00997404
-0.00864756
-0.00186523
-0.00208181
-0.00264585
-0.094333
-0.0807092
-0.0670595
-0.0556007
-0.0470438
-0.0416929
-0.0388832
-0.0373122
-0.0356725
-0.033528
-0.0313652
-0.0304702
-0.0316834
-0.0357601
-0.0424633
-0.048987
-0.0545626
-0.0547568
-0.0511342
-0.0434596
-0.0337695
-0.0266579
-0.0189054
-0.0158379
-0.00909847
-0.00781343
-0.00111976
-0.00154891
-0.00261178
-0.0957147
-0.0817465
-0.0676911
-0.0558421
-0.0469187
-0.0412336
-0.0381244
-0.0363358
-0.0345647
-0.0324155
-0.0303475
-0.0296553
-0.0311604
-0.0355935
-0.0427074
-0.0495851
-0.0554709
-0.0557481
-0.0520936
-0.0441627
-0.0341479
-0.0266803
-0.0185098
-0.0152383
-0.00822891
-0.0069837
-0.000379336
-0.00101763
-0.00257626
-0.0970868
-0.0827771
-0.068317
-0.0560794
-0.0467928
-0.0407781
-0.0373742
-0.035372
-0.0334706
-0.0313143
-0.0293362
-0.0288407
-0.0306326
-0.0354188
-0.0429423
-0.050176
-0.0563742
-0.0567357
-0.053049
-0.0448614
-0.0345229
-0.0267011
-0.0181155
-0.0146419
-0.00736565
-0.00615854
0.000355848
-0.000488031
-0.00253922
-0.0984486
-0.0838007
-0.0689371
-0.0563128
-0.0466662
-0.0403267
-0.0366329
-0.0344209
-0.0323903
-0.0302246
-0.0283315
-0.0280265
-0.0300999
-0.0352355
-0.0431678
-0.0507592
-0.0572721
-0.0577194
-0.0540001
-0.0455556
-0.0348943
-0.0267202
-0.0177225
-0.0140489
-0.00650897
-0.00533816
0.00108561
3.98078e-05
-0.00250061
-0.0997992
-0.0848171
-0.0695516
-0.0565424
-0.0465394
-0.0398796
-0.0359008
-0.0334829
-0.0313243
-0.0291468
-0.0273337
-0.0272129
-0.0295625
-0.0350437
-0.0433834
-0.0513342
-0.0581642
-0.0586986
-0.0549466
-0.0462451
-0.0352621
-0.0267378
-0.017331
-0.0134596
-0.00565915
-0.00452272
0.00180976
0.000565805
-0.00246039
-0.101138
-0.0858259
-0.0701605
-0.0567685
-0.0464125
-0.0394372
-0.0351784
-0.0325582
-0.0302727
-0.0280812
-0.0263431
-0.0264002
-0.0290203
-0.0348431
-0.0435889
-0.0519007
-0.05905
-0.0596731
-0.0558881
-0.0469296
-0.0356262
-0.0267538
-0.0169413
-0.0128741
-0.00481646
-0.00371241
0.00252813
0.00108989
-0.00241851
-0.102464
-0.0868269
-0.0707639
-0.0569914
-0.0462859
-0.0389998
-0.0344658
-0.0316471
-0.0292359
-0.0270279
-0.0253599
-0.0255884
-0.0284735
-0.0346335
-0.043784
-0.0524581
-0.059929
-0.0606425
-0.0568243
-0.047609
-0.0359865
-0.0267684
-0.0165534
-0.0122927
-0.00398117
-0.0029074
0.00324054
0.001612
-0.00237491
-0.103777
-0.0878198
-0.0713619
-0.0572112
-0.0461598
-0.0385677
-0.0337632
-0.0307499
-0.0282141
-0.0259874
-0.0243844
-0.0247778
-0.0279219
-0.0344149
-0.0439681
-0.0530061
-0.0608009
-0.0616064
-0.057755
-0.048283
-0.0363428
-0.0267814
-0.0161676
-0.0117154
-0.00315354
-0.00210786
0.0039468
0.00213204
-0.00232956
-0.105076
-0.0888043
-0.0719544
-0.0574281
-0.0460346
-0.0381411
-0.033071
-0.0298667
-0.0272075
-0.0249598
-0.0234169
-0.0239686
-0.0273658
-0.0341869
-0.0441412
-0.0535442
-0.0616653
-0.0625645
-0.0586799
-0.0489516
-0.0366952
-0.026793
-0.015784
-0.0111426
-0.00233384
-0.00131395
0.00464676
0.00264997
-0.00228239
-0.10636
-0.0897801
-0.0725415
-0.0576424
-0.0459104
-0.0377202
-0.0323894
-0.0289978
-0.0262163
-0.0239453
-0.0224576
-0.023161
-0.0268052
-0.0339496
-0.0443027
-0.054072
-0.0625215
-0.0635163
-0.0595986
-0.0496144
-0.0370434
-0.0268032
-0.0154027
-0.0105743
-0.00152231
-0.000525825
0.00534024
0.0031657
-0.00223338
-0.107628
-0.0907468
-0.0731233
-0.0578542
-0.0457874
-0.0373052
-0.0317185
-0.0281434
-0.0252408
-0.0229442
-0.0215068
-0.022355
-0.0262401
-0.0337028
-0.0444525
-0.0545891
-0.0633693
-0.0644615
-0.0605109
-0.0502713
-0.0373874
-0.0268119
-0.015024
-0.0100107
-0.00071921
0.000256351
0.00602707
0.00367916
-0.00218246
-0.10888
-0.0917042
-0.0736999
-0.0580637
-0.045666
-0.0368965
-0.0310584
-0.0273035
-0.024281
-0.0219568
-0.0205647
-0.0215511
-0.0256706
-0.0334463
-0.0445902
-0.055095
-0.0642081
-0.0653997
-0.0614164
-0.0509221
-0.0377271
-0.0268193
-0.0146479
-0.0094521
7.5227e-05
0.00103243
0.0067071
0.00419031
-0.00212961
-0.110114
-0.0926518
-0.0742711
-0.0582712
-0.0455463
-0.036494
-0.0304095
-0.0264783
-0.0233372
-0.0209831
-0.0196316
-0.0207492
-0.0250968
-0.0331801
-0.0447156
-0.0555893
-0.0650376
-0.0663306
-0.0623148
-0.0515666
-0.0380624
-0.0268253
-0.0142746
-0.00889854
0.00086076
0.00180226
0.00738014
0.00469906
-0.00207477
-0.111331
-0.0935894
-0.0748371
-0.0584767
-0.0454285
-0.036098
-0.0297717
-0.0256679
-0.0224096
-0.0200235
-0.0187077
-0.0199497
-0.0245188
-0.032904
-0.0448282
-0.0560717
-0.0658572
-0.0672537
-0.0632059
-0.0522045
-0.0383932
-0.0268299
-0.0139043
-0.00835021
0.00163716
0.00256571
0.00804606
0.00520535
-0.00201791
-0.112529
-0.0945167
-0.0753979
-0.0586806
-0.0453128
-0.0357087
-0.0291452
-0.0248725
-0.0214982
-0.0190782
-0.0177932
-0.0191528
-0.0239367
-0.0326179
-0.0449279
-0.0565416
-0.0666665
-0.0681688
-0.0640893
-0.0528358
-0.0387193
-0.0268331
-0.013537
-0.00780726
0.0024042
0.00332264
0.00870469
0.00570912
-0.00195899
-0.113707
-0.0954332
-0.0759534
-0.0588828
-0.0451994
-0.0353262
-0.02853
-0.0240921
-0.0206032
-0.0181473
-0.0168885
-0.0183585
-0.0233506
-0.0323218
-0.0450144
-0.0569988
-0.0674651
-0.0690753
-0.0649647
-0.0534602
-0.0390407
-0.0268349
-0.0131729
-0.00726983
0.00316166
0.00407291
0.00935588
0.0062103
-0.00189797
-0.114865
-0.0963385
-0.0765037
-0.0590837
-0.0450885
-0.0349506
-0.0279263
-0.0233267
-0.0197246
-0.0172309
-0.0159937
-0.0175673
-0.0227606
-0.0320157
-0.0450875
-0.0574428
-0.0682526
-0.069973
-0.0658319
-0.0540775
-0.0393572
-0.0268354
-0.0128121
-0.00673806
0.00390933
0.00481639
0.00999947
0.00670884
-0.0018348
-0.116002
-0.0972324
-0.0770488
-0.0592833
-0.0449802
-0.034582
-0.0273341
-0.0225765
-0.0188627
-0.0163294
-0.015109
-0.0167792
-0.0221669
-0.0316993
-0.0451467
-0.0578731
-0.0690284
-0.0708614
-0.0666905
-0.0546876
-0.0396688
-0.0268344
-0.0124547
-0.0062121
0.004647
0.00555296
0.0106353
0.00720467
-0.00176946
-0.117117
-0.0981143
-0.0775885
-0.0594818
-0.0448747
-0.0342205
-0.0267535
-0.0218414
-0.0180174
-0.0154428
-0.0142348
-0.0159944
-0.0215696
-0.0313728
-0.0451921
-0.0582895
-0.0697921
-0.0717401
-0.0675402
-0.0552902
-0.0399752
-0.026832
-0.0121008
-0.00569206
0.00537447
0.0062825
0.0112633
0.00769773
-0.00170191
-0.118209
-0.098984
-0.078123
-0.0596793
-0.0447722
-0.0338662
-0.0261843
-0.0211214
-0.0171888
-0.0145713
-0.0133712
-0.0152133
-0.0209689
-0.031036
-0.0452232
-0.0586915
-0.0705433
-0.0726088
-0.0683808
-0.0558851
-0.0402764
-0.0268282
-0.0117506
-0.00517807
0.00609155
0.00700488
0.0118832
0.00818796
-0.0016321
-0.119278
-0.0998409
-0.078652
-0.059876
-0.0446727
-0.0335192
-0.0256268
-0.0204165
-0.0163769
-0.013715
-0.0125184
-0.014436
-0.0203648
-0.030689
-0.0452399
-0.0590787
-0.0712815
-0.0734672
-0.069212
-0.0564723
-0.0405724
-0.0268229
-0.0114041
-0.00467025
0.00679805
0.00772001
0.0124949
0.0086753
-0.00156002
-0.120323
-0.100685
-0.0791757
-0.060072
-0.0445764
-0.0331795
-0.0250807
-0.0197267
-0.0155819
-0.0128742
-0.0116768
-0.0136627
-0.0197576
-0.0303318
-0.045242
-0.0594508
-0.0720064
-0.0743147
-0.0700333
-0.0570514
-0.0408628
-0.0268161
-0.0110613
-0.0041687
0.0074938
0.00842776
0.0130983
0.00915969
-0.00148561
-0.121343
-0.101515
-0.0796938
-0.0602674
-0.0444835
-0.0328472
-0.0245462
-0.019052
-0.0148036
-0.0120475
-0.0108464
-0.0128936
-0.0191474
-0.0299643
-0.0452293
-0.0598075
-0.0727173
-0.075151
-0.0708447
-0.0576222
-0.0411477
-0.0268078
-0.0107225
-0.00367354
0.00817862
0.00912803
0.0136932
0.00964106
-0.00140886
-0.122337
-0.102331
-0.0802064
-0.0604623
-0.044394
-0.0325223
-0.0240231
-0.0183922
-0.0140422
-0.0112351
-0.0100276
-0.0121291
-0.0185345
-0.0295865
-0.0452016
-0.0601483
-0.073414
-0.0759758
-0.0716456
-0.0581848
-0.041427
-0.0267979
-0.0103876
-0.00318486
0.00885235
0.00982072
0.0142795
0.0101194
-0.00132972
-0.123304
-0.103133
-0.0807133
-0.0606568
-0.044308
-0.0322049
-0.0235114
-0.0177474
-0.0132976
-0.0104737
-0.00922048
-0.0113692
-0.0179189
-0.0291986
-0.0451588
-0.0604729
-0.0740959
-0.0767885
-0.072436
-0.0587387
-0.0417004
-0.0267864
-0.0100568
-0.00270276
0.00951483
0.0105057
0.014857
0.0105945
-0.00124816
-0.124245
-0.10392
-0.0812143
-0.0608509
-0.0442257
-0.0318949
-0.023011
-0.0171173
-0.0125697
-0.009692
-0.00842542
-0.0106144
-0.017301
-0.0288006
-0.0451006
-0.0607811
-0.0747627
-0.0775889
-0.0732154
-0.0592839
-0.0419679
-0.0267734
-0.00973001
-0.00222732
0.0101659
0.011183
0.0154257
0.0110665
-0.00116416
-0.125157
-0.104691
-0.0817096
-0.0610451
-0.0441474
-0.0315926
-0.022522
-0.0165021
-0.0118586
-0.00892739
-0.00764272
-0.0098648
-0.0166808
-0.0283924
-0.045027
-0.0610724
-0.0754138
-0.0783765
-0.0739835
-0.0598202
-0.0422294
-0.0267586
-0.00940741
-0.00175868
0.0108054
0.0118523
0.0159853
0.0115352
-0.00107768
-0.126041
-0.105447
-0.0821992
-0.0612395
-0.044073
-0.031298
-0.0220442
-0.0159016
-0.0111642
-0.00818068
-0.00687261
-0.00912077
-0.0160588
-0.0279743
-0.0449379
-0.0613465
-0.0760488
-0.0791509
-0.0747401
-0.0603474
-0.0424848
-0.0267423
-0.00908903
-0.00129686
0.0114333
0.0125137
0.0165358
0.0120006
-0.000988694
-0.126897
-0.106187
-0.0826824
-0.0614329
-0.0440016
-0.0310098
-0.0215764
-0.0153143
-0.0104854
-0.00744983
-0.0061148
-0.00838233
-0.015435
-0.0275463
-0.0448331
-0.0616033
-0.0766676
-0.0799121
-0.0754852
-0.0608655
-0.0427339
-0.0267239
-0.00877466
-0.000841622
0.0120495
0.0131672
0.017077
0.0124626
-0.000897159
-0.127726
-0.10691
-0.0831561
-0.0616226
-0.0439309
-0.0307265
-0.0211172
-0.014739
-0.0098208
-0.00673313
-0.00536845
-0.00764912
-0.0148093
-0.0271085
-0.044713
-0.0618432
-0.0772705
-0.0806605
-0.0762187
-0.0613741
-0.0429761
-0.0267029
-0.00846399
-0.000392693
0.0126542
0.0138128
0.0176089
0.0129212
-0.000803046
-0.128515
-0.107608
-0.0836193
-0.0618122
-0.0438662
-0.030454
-0.020673
-0.0141825
-0.00917717
-0.0060362
-0.00463751
-0.00692346
-0.0141831
-0.0266614
-0.0445772
-0.0620649
-0.0778553
-0.0813924
-0.0769375
-0.0618711
-0.0432109
-0.0266806
-0.00815818
4.77488e-05
0.0132461
0.0144496
0.0181311
0.0133763
-0.000706383
-0.129236
-0.108282
-0.0840931
-0.0620292
-0.0438329
-0.0302138
-0.0202638
-0.0136661
-0.00857718
-0.005383
-0.00393969
-0.00621667
-0.0135617
-0.0262043
-0.0444198
-0.0622577
-0.0784082
-0.0820945
-0.0776348
-0.0623557
-0.0434412
-0.026663
-0.00786217
0.000473098
0.0138205
0.0150746
0.0186418
0.0138275
-0.000607229
-0.12994
-0.108987
-0.084617
-0.062293
-0.0438349
-0.0299992
-0.0198747
-0.0131703
-0.0080016
-0.00475978
-0.00326757
-0.00552529
-0.0129424
-0.025733
-0.0442344
-0.0624162
-0.0789289
-0.0827755
-0.0783235
-0.0628418
-0.0436765
-0.0266526
-0.00757611
0.000888799
0.0143801
0.0156905
0.0191414
0.014275
-0.000505043
-0.130933
-0.1098
-0.0850997
-0.0624337
-0.0436937
-0.0296377
-0.0193278
-0.0124913
-0.00722482
-0.00392552
-0.00243285
-0.00472143
-0.0122602
-0.025251
-0.0440863
-0.0626576
-0.0795613
-0.0835774
-0.0790867
-0.0633604
-0.0439093
-0.0266053
-0.00726158
0.00135888
0.0149698
0.0163328
0.0196473
0.0147214
-0.000397821
-0.111849
-0.0859174
-0.0622978
-0.0429422
-0.0284357
-0.017691
-0.0104485
-0.00483225
-0.00125737
0.000136704
-0.00238715
-0.0104258
-0.0241759
-0.0440568
-0.0637022
-0.0815221
-0.0858236
-0.0809885
-0.0645585
-0.044373
-0.0263787
-0.00649308
0.00253384
0.0163446
0.017791
0.0207673
0.0156654
-0.000164549
-0.112435
-0.085773
-0.0615103
-0.0416855
-0.026843
-0.0158362
-0.00843757
-0.00272934
0.000840015
0.00230501
-0.000326411
-0.00869024
-0.0230114
-0.0438512
-0.0645022
-0.0833401
-0.0879795
-0.0828283
-0.0656819
-0.04463
-0.0258986
-0.00541719
0.00401543
0.0180762
0.0195844
0.0222762
0.0170022
0.000172549
-0.112663
-0.0853916
-0.0605666
-0.0403356
-0.0252208
-0.0140084
-0.0065024
-0.000734967
0.00285227
0.00429456
0.0015347
-0.00709723
-0.0218639
-0.0435358
-0.0650617
-0.084906
-0.089925
-0.0844791
-0.0666487
-0.0447591
-0.025357
-0.00433624
0.00544328
0.0197206
0.0212657
0.0237213
0.0183139
0.000512401
-0.112553
-0.0847312
-0.0594301
-0.0388698
-0.023546
-0.0121717
-0.00457848
0.00126101
0.00487059
0.00631871
0.00347501
-0.00540607
-0.0206048
-0.0431144
-0.0655407
-0.086409
-0.091798
-0.086003
-0.0674781
-0.044761
-0.0247416
-0.00324266
0.00683742
0.0212918
0.0228854
0.0251169
0.0195884
0.000875067
-0.111985
-0.0837465
-0.0580882
-0.0372885
-0.0218253
-0.0103424
-0.0027021
0.00318055
0.00678214
0.00828509
0.00541044
-0.00367418
-0.0192655
-0.0425838
-0.0659011
-0.0877504
-0.0934819
-0.0873191
-0.0681245
-0.0446137
-0.0240445
-0.0021416
0.00818519
0.0227665
0.0244191
0.0264457
0.0208074
0.00126305
-0.11093
-0.0824232
-0.0565368
-0.0355939
-0.0200634
-0.00852679
-0.00088322
0.00500396
0.00858184
0.0101422
0.00727105
-0.00196217
-0.0178748
-0.0419248
-0.0660707
-0.0888354
-0.0949138
-0.0883846
-0.0685646
-0.0443074
-0.0232614
-0.00103639
0.00948118
0.0241329
0.0258494
0.0276945
0.0219635
0.00167334
-0.109364
-0.0807478
-0.0547723
-0.0337888
-0.0182649
-0.0067288
0.000876586
0.00673301
0.0102724
0.0118827
0.00904381
-0.000282745
-0.016433
-0.0411175
-0.066009
-0.0896218
-0.0960582
-0.08917
-0.0687785
-0.0438337
-0.0223882
7.04771e-05
0.0107227
0.0253844
0.0271696
0.0288559
0.0230523
0.00210337
-0.107267
-0.0787098
-0.0527933
-0.0318771
-0.0164349
-0.00495259
0.00257588
0.00836792
0.0118523
0.0135073
0.0107302
0.00136597
-0.0149351
-0.0401503
-0.0656959
-0.0900783
-0.0968734
-0.0896421
-0.0687446
-0.0431849
-0.0214217
0.00117644
0.0119073
0.0265146
0.0283745
0.029923
0.0240679
0.00255101
-0.104624
-0.0763034
-0.050601
-0.0298646
-0.0145795
-0.00320291
0.00421272
0.00990786
0.01332
0.015014
0.0123279
0.00298173
-0.0133816
-0.0390164
-0.0651121
-0.0901659
-0.0973126
-0.0897655
-0.0684413
-0.0423543
-0.0203598
0.00227873
0.0130325
0.0275178
0.0294587
0.0308879
0.025003
0.00301387
-0.101429
-0.0735283
-0.0481994
-0.0277582
-0.0127057
-0.00148507
0.00578503
0.0113526
0.0146746
0.0163998
0.0138311
0.00455812
-0.0117764
-0.0377096
-0.0642345
-0.0898431
-0.0973284
-0.0895051
-0.0678476
-0.041337
-0.0192021
0.00337438
0.0140959
0.0283897
0.030417
0.0317425
0.0258498
0.00348917
-0.0976865
-0.0703901
-0.045596
-0.0255665
-0.0108213
0.000195161
0.00729061
0.0127025
0.0159166
0.0176623
0.0152341
0.00608783
-0.0101246
-0.0362238
-0.0630411
-0.0890709
-0.0968755
-0.0888271
-0.0669438
-0.0401298
-0.0179498
0.00446004
0.0150953
0.0291271
0.0312448
0.0324784
0.0266006
0.0039738
-0.0934083
-0.0669017
-0.0428015
-0.0232995
-0.00893459
0.00183159
0.00872704
0.0139582
0.0170471
0.0188
0.0165321
0.00756369
-0.00843176
-0.034555
-0.0615138
-0.0878154
-0.0959121
-0.0877005
-0.0657122
-0.0387319
-0.0166061
0.00553195
0.0160288
0.0297284
0.0319385
0.0330871
0.0272478
0.00446425
-0.0886197
-0.0630832
-0.0398309
-0.0209687
-0.00705455
0.00341771
0.0100916
0.0151208
0.0180682
0.0198128
0.0177207
0.00897846
-0.00670545
-0.0327026
-0.0596397
-0.086049
-0.0944019
-0.0860985
-0.0641384
-0.0371446
-0.0151763
0.00658581
0.0168942
0.0301936
0.0324951
0.0335602
0.0277836
0.00495662
-0.0833569
-0.0589624
-0.0367027
-0.0185869
-0.00519041
0.00494682
0.0113811
0.0161914
0.0189827
0.0207013
0.0187961
0.0103245
-0.00495514
-0.0306697
-0.0574121
-0.0837522
-0.0923167
-0.0840004
-0.0622119
-0.035372
-0.0136678
0.00761663
0.0176897
0.0305244
0.032913
0.0338898
0.028201
0.0054466
-0.0776687
-0.0545753
-0.0334398
-0.0161682
-0.00335153
0.00641227
0.0125922
0.0171711
0.0197938
0.0214669
0.0197551
0.0115938
-0.00319246
-0.0284637
-0.0548309
-0.0809158
-0.0896386
-0.0813938
-0.0599276
-0.0334212
-0.0120903
0.00861867
0.0184133
0.030724
0.0331913
0.0340683
0.0284931
0.00592944
-0.0716155
-0.0499651
-0.0300689
-0.0137278
-0.00154717
0.00780769
0.0137211
0.0180606
0.0205051
0.0221119
0.0205951
0.012778
-0.00143108
-0.0260963
-0.0519044
-0.077543
-0.086362
-0.078276
-0.0572868
-0.0313021
-0.0104556
0.00958545
0.0190631
0.0307971
0.0333308
0.034089
0.0286541
0.00639998
-0.0652697
-0.0451819
-0.02662
-0.0112819
0.000213744
0.00912721
0.0147642
0.0188605
0.0211203
0.0226397
0.0213138
0.0138688
0.000313334
-0.0235842
-0.0486492
-0.0736499
-0.0824961
-0.0746557
-0.0542985
-0.0290279
-0.00877735
0.0105097
0.0196371
0.0307499
0.0333334
0.0339465
0.0286793
0.00685265
-0.0587129
-0.0402816
-0.0231263
-0.00884746
0.00192282
0.0103658
0.0157178
0.0195705
0.021643
0.0230539
0.0219101
0.0148581
0.00202332
-0.0209488
-0.0450909
-0.0692669
-0.0780653
-0.0705544
-0.0509799
-0.0266148
-0.00707098
0.0113836
0.0201332
0.0305894
0.0332022
0.0336375
0.0285658
0.00728152
-0.0520344
-0.0353242
-0.0196228
-0.00644177
0.00357237
0.0115197
0.0165791
0.0201905
0.0220767
0.0233595
0.0223834
0.0157379
0.00367992
-0.0182165
-0.0412642
-0.0644387
-0.0731108
-0.0660073
-0.0473578
-0.0240824
-0.00535308
0.012199
0.0205495
0.0303236
0.032942
0.0331613
0.0283122
0.00768038
-0.0453292
-0.0303718
-0.0161459
-0.00408236
0.00515558
0.0125861
0.0173459
0.0207198
0.0224242
0.0235617
0.0227338
0.0165013
0.00526326
-0.015418
-0.0372123
-0.0592239
-0.0676899
-0.0610633
-0.0434681
-0.0214531
-0.003641
0.0129477
0.0208843
0.0299606
0.0325587
0.0325208
0.0279194
0.00804293
-0.0386934
-0.0254867
-0.0127316
-0.00178647
0.00666653
0.0135639
0.0180177
0.0211582
0.0226882
0.0236665
0.0229626
0.0171425
0.00675336
-0.0125878
-0.0329863
-0.0536938
-0.0618755
-0.0557845
-0.0393565
-0.0187527
-0.00195232
0.0136219
0.0211358
0.029509
0.0320593
0.0317233
0.0273908
0.00836293
-0.0322215
-0.0207287
-0.00941445
0.000429323
0.00810026
0.0144535
0.0185955
0.0215059
0.0228709
0.0236812
0.0230724
0.0176578
0.0081312
-0.00976308
-0.0286441
-0.0479314
-0.0557545
-0.0502456
-0.035077
-0.0160093
-0.000304277
0.0142149
0.0213031
0.0289769
0.0314522
0.0307814
0.0267321
0.00863454
-0.0260015
-0.0161525
-0.00622617
0.00254962
0.00945272
0.0152568
0.0190822
0.0217648
0.0229748
0.0236135
0.0230674
0.0180461
0.00938003
-0.00698272
-0.0242495
-0.042028
-0.0494257
-0.0445325
-0.030692
-0.0132537
0.00128683
0.0147215
0.0213858
0.0283725
0.0307462
0.0297135
0.0259513
0.00885266
-0.0201112
-0.0118058
-0.0031945
0.00456068
0.0107207
0.0159771
0.0194825
0.0219385
0.0230032
0.0234722
0.0229543
0.0183101
0.010487
-0.00428551
-0.0198706
-0.0360818
-0.0429968
-0.0387388
-0.0262694
-0.0105184
0.00280612
0.0151385
0.0213845
0.0277038
0.0299512
0.0285439
0.025059
0.00901324
-0.0146137
-0.00772751
-0.000342217
0.00645089
0.0119019
0.0166186
0.019803
0.0220327
0.022961
0.0232676
0.0227434
0.0184573
0.0114445
-0.00170872
-0.0155775
-0.0301958
-0.0365818
-0.0329624
-0.0218805
-0.00783708
0.00424056
0.015465
0.0213011
0.0269786
0.0290773
0.0273021
0.0240676
0.00911368
-0.00955535
-0.00394613
0.00231353
0.00821115
0.0129947
0.0171865
0.0200516
0.0220553
0.0228546
0.0230113
0.0224491
0.0185005
0.0122521
0.000713753
-0.0114409
-0.024473
-0.0302953
-0.0273032
-0.0175977
-0.00524375
0.00557922
0.0157029
0.0211389
0.026205
0.0281232
0.0259531
0.0229913
0.00915303
-0.00496356
-0.00047975
0.00476141
0.00983513
0.0139981
0.0176864
0.0202372
0.0220164
0.022693
0.022716
0.0220902
0.0184585
0.0129167
0.00295303
-0.00752892
-0.0190117
-0.0242494
-0.0218583
-0.0134909
-0.00277131
0.00681349
0.0158567
0.0209028
0.025392
0.0271282
0.0246649
0.0218483
0.00913206
-0.000847468
0.00266371
0.00699572
0.0113194
0.0149121
0.018124
0.0203691
0.0219274
0.0224868
0.0223952
0.021689
0.0183547
0.0134527
0.00498654
-0.00390354
-0.0139016
-0.0185487
-0.0167017
-0.00962396
-0.000450263
0.00793708
0.0159331
0.020599
0.0245485
0.0260921
0.0234018
0.0206558
0.00905307
0.00279982
0.00548524
0.00901589
0.0126634
0.0157373
0.018505
0.0204562
0.0218001
0.022248
0.0220618
0.0212695
0.0182148
0.0138801
0.00679907
-0.000616473
-0.00921953
-0.013285
-0.0119478
-0.00605141
0.00169284
0.00894601
0.0159408
0.0202351
0.0236833
0.0250268
0.0221908
0.0194326
0.00891945
0.00599761
0.00799309
0.0108257
0.013869
0.0164754
0.0188344
0.020507
0.0216461
0.0219886
0.0217278
0.0208536
0.0180635
0.0142219
0.00838366
0.00229497
-0.0050229
-0.00852882
-0.00763609
-0.00281416
0.00363702
0.00983849
0.0158895
0.0198194
0.0228054
0.0239435
0.021051
0.0181982
0.00873508
0.00877446
0.010201
0.0124325
0.0149408
0.0171289
0.0191169
0.020529
0.0214754
0.0217195
0.0214027
0.0204616
0.0179212
0.0145011
0.00974219
0.00481167
-0.00134543
-0.00432628
-0.00380586
6.1856e-05
0.00536817
0.0106148
0.0157894
0.019361
0.0219235
0.0228528
0.0199908
0.0169717
0.00850368
0.0111639
0.0121267
0.0138464
0.0158851
0.0177014
0.0193566
0.0205284
0.0212967
0.0214498
0.0210933
0.0201068
0.0178013
0.014739
0.0108862
0.00693552
0.00180573
-0.000696548
-0.000474788
0.00256709
0.00688006
0.0112772
0.0156504
0.0188687
0.0210451
0.0217637
0.0190072
0.0157712
0.00822766
0.013199
0.01379
0.0150794
0.0167095
0.0181973
0.0195571
0.0205102
0.0211167
0.0211862
0.0208034
0.0197943
0.0177103
0.014954
0.0118371
0.00868978
0.00444964
0.00236908
0.00236256
0.0047078
0.00817448
0.0118296
0.0154811
0.0183511
0.0201765
0.0206843
0.0180878
0.0146119
0.0079074
0.0149145
0.015213
0.0161451
0.0174228
0.0186217
0.0197217
0.0204783
0.0209399
0.0209333
0.0205342
0.0195244
0.0176486
0.0151613
0.0126246
0.0101154
0.00662765
0.00490435
0.00473228
0.00650419
0.00926074
0.0122777
0.015289
0.0178159
0.0193227
0.0196212
0.0172139
0.0135049
0.00754204
0.0163454
0.0164184
0.0170578
0.0180345
0.0189806
0.0198536
0.0204357
0.0207692
0.0206938
0.0202852
0.0192935
0.0176129
0.0153714
0.0132818
0.0112638
0.00839631
0.00696225
0.00667619
0.00798716
0.0101545
0.0126286
0.0150795
0.01727
0.0184878
0.0185802
0.0163651
0.0124571
0.00713115
0.0175256
0.0174295
0.017832
0.0185538
0.0192801
0.0199558
0.0203846
0.0206062
0.0204692
0.0200551
0.0190955
0.0175969
0.0155878
0.0138384
0.0121869
0.0098183
0.00860773
0.0082454
0.00918406
0.0108764
0.0128903
0.0148568
0.016719
0.0176749
0.0175662
0.0155254
0.0114726
0.00667692
0.0184886
0.0182689
0.0184821
0.0189901
0.0195262
0.0200313
0.0203264
0.0204511
0.0202597
0.0198422
0.0189241
0.0175927
0.0158057
0.014315
0.0129301
0.0109539
0.00990939
0.00949663
0.0101569
0.0114486
0.0130718
0.0146233
0.0161681
0.0168865
0.0165839
0.014686
0.0105538
0.00618613
0.0192652
0.0189582
0.019022
0.0193521
0.0197249
0.020083
0.0202626
0.0203038
0.0200647
0.0196449
0.0187732
0.0175922
0.0160139
0.0147217
0.0135275
0.0118555
0.0109317
0.0104857
0.01093
0.011891
0.0131818
0.0143806
0.0156214
0.0161247
0.0156379
0.0138467
0.00970336
0.0056708
0.019884
0.0195177
0.0194649
0.0196483
0.0198817
0.0201137
0.0201939
0.0201636
0.0198834
0.0194616
0.0186371
0.0175878
0.0161991
0.015061
0.0140038
0.0125663
0.0117304
0.0112616
0.0115363
0.0122233
0.0132292
0.0141297
0.0150828
0.0153911
0.0147251
0.0130144
0.00892309
0.00514697
0.0203705
0.0199657
0.0198228
0.0198862
0.0200018
0.0201259
0.0201211
0.0200295
0.0197146
0.0192906
0.0185113
0.0175739
0.0163505
0.0153335
0.0143769
0.013121
0.012351
0.0118648
0.0120043
0.0124637
0.0132226
0.013871
0.0145555
0.0146876
0.0138647
0.0121999
0.00821362
0.0046321
0.0207466
0.0203184
0.0201068
0.0200729
0.0200897
0.020122
0.0200448
0.0199006
0.0195567
0.0191303
0.0183925
0.0175476
0.0164627
0.0155416
0.0146618
0.0135477
0.0128294
0.0123287
0.0123578
0.0126273
0.0131702
0.013605
0.0140424
0.0140151
0.0130529
0.0114143
0.00757308
0.00414209
0.0210304
0.0205899
0.0203269
0.0202149
0.0201494
0.0201041
0.0199654
0.0197761
0.0194083
0.0189792
0.0182774
0.0175077
0.0165358
0.0156908
0.0148722
0.0138701
0.0131933
0.0126796
0.012616
0.0127268
0.0130796
0.0133322
0.0135457
0.013374
0.012292
0.010667
0.00699709
0.00368902
0.0212379
0.0207928
0.0204921
0.0203179
0.0201847
0.0200738
0.0198832
0.0196552
0.0192677
0.0188358
0.0181658
0.0174552
0.0165737
0.0157891
0.0150206
0.0141074
0.0134642
0.0129384
0.0127947
0.0127728
0.0129577
0.0130538
0.0130673
0.0127649
0.0115832
0.00996412
0.00647965
0.00328028
0.0213829
0.0209378
0.0206104
0.0203872
0.0201986
0.020033
0.0197986
0.0195373
0.0191338
0.0186988
0.0180561
0.0173918
0.016582
0.0158453
0.0151184
0.0142758
0.013659
0.0131218
0.0129073
0.0127731
0.0128109
0.0127709
0.0126084
0.0121877
0.0109262
0.0093092
0.00601413
0.00291876
0.0214596
0.0210342
0.0206889
0.0204276
0.020194
0.0199828
0.0197119
0.0194219
0.0190055
0.0185671
0.0179479
0.0173194
0.0165664
0.0158676
0.0151752
0.0143887
0.0137914
0.0132433
0.0129658
0.0127379
0.0126446
0.0124854
0.01217
0.0116423
0.0103196
0.00870343
0.00559425
0.00260392
0.0215124
0.0210918
0.0207339
0.0204432
0.0201736
0.0199246
0.0196232
0.0193087
0.0188819
0.01844
0.0178408
0.0172399
0.0165321
0.0158632
0.0151991
0.0144569
0.0138729
0.0133143
0.0129797
0.0126722
0.0124632
0.012199
0.0117523
0.0111285
0.00976099
0.00814636
0.0052148
0.0023328