/*--------------------------------*- C++ -*----------------------------------*\
  =========                 |
  \\      /  F ield         | OpenFOAM: The Open Source CFD Toolbox
   \\    /   O peration     | Website:  https://openfoam.org
    \\  /    A nd           | Version:  7
     \\/     M anipulation  |
\*---------------------------------------------------------------------------*/
FoamFile
{
    version     2.0;
    format      ascii;
    class       volVectorField;
    location    "220";
    object      U;
}
// * * * * * * * * * * * * * * * * * * * * * * * * * * * * * * * * * * * * * //

dimensions      [0 1 -1 0 0 0 0];

internalField   nonuniform List<vector> 
7158
(
(0.771915 -0.158224 -4.96245e-23)
(0.792471 -0.257306 -4.20529e-23)
(0.807005 -0.325695 -6.51624e-23)
(0.809909 -0.369964 -3.20614e-23)
(0.800648 -0.386564 3.77318e-23)
(0.785062 -0.370469 -5.27125e-24)
(0.768217 -0.311736 -6.29031e-23)
(0.756627 -0.214372 -4.44983e-23)
(0.752994 -0.0906582 -1.68149e-23)
(0.759807 0.0413203 7.41315e-23)
(0.770512 0.157629 -4.92804e-23)
(0.780051 0.2565 2.35877e-23)
(0.780984 0.316352 2.92805e-23)
(0.77784 0.348015 6.89374e-23)
(0.769371 0.323045 2.26827e-24)
(0.762739 0.261833 6.37573e-23)
(0.755451 0.156794 6.65431e-23)
(0.755071 0.027 1.56058e-23)
(0.754609 -0.0921316 -1.09087e-23)
(0.75779 -0.221085 -3.8907e-23)
(0.754801 -0.274307 -2.59376e-23)
(0.756068 -0.328131 -1.41268e-23)
(0.748984 -0.275927 2.51972e-23)
(0.746384 -0.211329 -3.86166e-23)
(0.736041 -0.102844 2.36828e-23)
(0.731818 0.0617618 2.84398e-23)
(0.722236 0.114751 2.32576e-23)
(0.723018 0.279558 -9.74578e-25)
(0.714506 0.205983 7.58808e-24)
(0.772567 -0.159324 4.64897e-24)
(0.792988 -0.258353 -2.13489e-22)
(0.807425 -0.326203 7.11007e-23)
(0.81018 -0.369761 1.27288e-22)
(0.800716 -0.38583 2.73763e-23)
(0.784942 -0.369539 -3.15887e-24)
(0.76802 -0.310949 1.74182e-22)
(0.756461 -0.213979 2.12245e-22)
(0.752921 -0.0907838 1.62863e-22)
(0.759746 0.0408077 -9.64245e-23)
(0.7704 0.157057 -1.16844e-22)
(0.779914 0.256199 1.41894e-22)
(0.780953 0.316393 -4.14913e-23)
(0.77799 0.348306 1.96642e-23)
(0.769605 0.323433 -1.22746e-22)
(0.762978 0.262195 -8.85661e-23)
(0.755612 0.157005 -6.98464e-23)
(0.75524 0.0270405 -6.18953e-23)
(0.754799 -0.0921775 1.78551e-22)
(0.757888 -0.221074 -5.92615e-23)
(0.75473 -0.274259 2.72558e-23)
(0.755733 -0.327996 1.43242e-22)
(0.748598 -0.275717 -7.79846e-23)
(0.745997 -0.211052 1.40697e-22)
(0.735675 -0.102544 5.56558e-23)
(0.731741 0.0620514 5.17478e-23)
(0.722063 0.114921 2.47779e-23)
(0.72346 0.279714 5.11619e-23)
(0.714633 0.206159 6.07595e-24)
(0.773292 -0.160361 1.10641e-22)
(0.793571 -0.259356 2.36032e-22)
(0.807909 -0.32668 5.45139e-23)
(0.81052 -0.369537 -1.45407e-22)
(0.800855 -0.385085 2.90172e-22)
(0.784894 -0.368616 1.4199e-22)
(0.767894 -0.310187 -7.98256e-23)
(0.756363 -0.213626 -4.60978e-22)
(0.752909 -0.0909513 -2.27247e-22)
(0.759742 0.0402601 -1.03275e-22)
(0.770346 0.156457 1.66492e-22)
(0.779838 0.255875 -4.05112e-22)
(0.780985 0.316415 1.70637e-22)
(0.778199 0.34859 -1.28108e-22)
(0.769895 0.323829 3.6586e-22)
(0.763268 0.262575 -1.07013e-23)
(0.755822 0.157239 1.71629e-22)
(0.755458 0.0271004 9.98858e-23)
(0.755045 -0.0922035 -1.59925e-22)
(0.758047 -0.221045 -2.6732e-23)
(0.754718 -0.274194 -1.02996e-22)
(0.755453 -0.327853 -8.62881e-23)
(0.748262 -0.275512 9.05632e-23)
(0.745658 -0.210781 5.22683e-24)
(0.735362 -0.102259 -8.94502e-23)
(0.731721 0.0623314 -8.19622e-23)
(0.721951 0.115077 -3.38321e-23)
(0.723962 0.279862 -6.57876e-23)
(0.714812 0.206341 -1.75083e-23)
(0.774092 -0.161334 1.38751e-22)
(0.794219 -0.260315 -2.17189e-22)
(0.808459 -0.327128 2.70608e-22)
(0.810928 -0.369292 1.72619e-22)
(0.801065 -0.384329 -4.31333e-22)
(0.784919 -0.367699 -7.57782e-23)
(0.76784 -0.30945 1.67243e-22)
(0.756331 -0.213312 4.91347e-22)
(0.752959 -0.0911601 -5.40721e-23)
(0.759794 0.0396782 1.32513e-22)
(0.770348 0.155829 1.34008e-22)
(0.779823 0.255529 1.97985e-22)
(0.78108 0.316419 6.44579e-23)
(0.778469 0.348866 7.53516e-23)
(0.770241 0.324232 -2.54277e-22)
(0.763609 0.262972 -5.6633e-23)
(0.756081 0.157495 1.41392e-22)
(0.755726 0.0271795 -9.78524e-23)
(0.755348 -0.0922102 9.01379e-23)
(0.758266 -0.220998 -1.79645e-22)
(0.754768 -0.274114 6.67427e-23)
(0.755228 -0.327702 1.402e-22)
(0.747975 -0.27531 1.06496e-22)
(0.745366 -0.210516 -3.85699e-22)
(0.7351 -0.10199 -1.51318e-22)
(0.731757 0.0626017 -3.34048e-23)
(0.7219 0.115219 -1.76977e-23)
(0.724521 0.280002 -3.21655e-23)
(0.715046 0.206531 -2.98727e-23)
(0.774968 -0.162241 -4.23766e-22)
(0.794933 -0.261231 1.27124e-22)
(0.809073 -0.327547 -4.14692e-22)
(0.811404 -0.369027 2.37411e-22)
(0.801346 -0.383563 6.94684e-23)
(0.785015 -0.366789 -8.34962e-23)
(0.767854 -0.308738 -1.66112e-22)
(0.756364 -0.213035 6.62308e-24)
(0.753068 -0.0914097 1.54531e-22)
(0.759901 0.039062 -2.1588e-22)
(0.770406 0.155174 -1.50223e-22)
(0.779867 0.255159 -1.35611e-22)
(0.781237 0.316404 6.02366e-24)
(0.7788 0.349134 -5.49065e-23)
(0.770643 0.324642 5.53027e-22)
(0.764003 0.263388 -1.40047e-22)
(0.756391 0.157775 2.43644e-23)
(0.756045 0.0272777 1.70823e-22)
(0.755707 -0.0921975 -3.67502e-22)
(0.758547 -0.220933 -6.84163e-23)
(0.754878 -0.274017 3.51676e-22)
(0.755059 -0.327544 3.51697e-23)
(0.747738 -0.275113 1.15929e-22)
(0.745123 -0.210259 4.97431e-22)
(0.734889 -0.101735 1.57746e-22)
(0.73185 0.0628621 9.70642e-23)
(0.721909 0.115347 7.30923e-23)
(0.725138 0.280134 7.19121e-23)
(0.715332 0.206728 4.8546e-23)
(0.77592 -0.163083 1.72697e-22)
(0.795713 -0.262103 5.81103e-22)
(0.809753 -0.327938 -5.31943e-23)
(0.811948 -0.368742 -4.6414e-22)
(0.801696 -0.382788 6.5153e-22)
(0.785182 -0.365885 -6.7926e-22)
(0.767938 -0.30805 1.91419e-22)
(0.75646 -0.212796 -5.02826e-22)
(0.753235 -0.0916993 -2.94799e-22)
(0.760062 0.0384119 -7.70083e-23)
(0.770519 0.154491 -1.85908e-22)
(0.779971 0.254765 -3.78939e-22)
(0.781456 0.316369 -5.53765e-22)
(0.77919 0.349395 -2.78337e-22)
(0.771101 0.325059 -4.31257e-22)
(0.764448 0.263821 4.49281e-22)
(0.756751 0.158077 -5.06481e-22)
(0.756413 0.0273948 -1.60215e-22)
(0.756123 -0.092166 4.03037e-22)
(0.758888 -0.22085 -7.20828e-23)
(0.755051 -0.273903 -4.10412e-22)
(0.754946 -0.327376 -2.14474e-23)
(0.74755 -0.274919 -3.51661e-22)
(0.744928 -0.210008 -2.57777e-22)
(0.734729 -0.101497 -1.56711e-22)
(0.732 0.0631124 -3.80053e-23)
(0.721978 0.115461 -7.46143e-23)
(0.725812 0.280258 -2.20009e-24)
(0.715672 0.206933 -1.65554e-23)
(0.77695 -0.163858 -3.33192e-23)
(0.796561 -0.262931 -6.6514e-22)
(0.810497 -0.328301 -6.01408e-22)
(0.812561 -0.368438 7.25317e-22)
(0.802117 -0.382004 -1.10339e-21)
(0.785419 -0.364987 1.02597e-21)
(0.768089 -0.307387 -4.19629e-22)
(0.756619 -0.212593 6.02926e-22)
(0.753458 -0.0920285 -7.87031e-24)
(0.760275 0.0377281 6.78919e-23)
(0.770687 0.15378 -3.31831e-22)
(0.780134 0.254348 -5.78557e-23)
(0.781737 0.316316 -9.35936e-23)
(0.77964 0.349648 1.52577e-22)
(0.771616 0.325483 -4.96759e-22)
(0.764946 0.264273 -6.19357e-22)
(0.757162 0.158402 2.51278e-22)
(0.756833 0.0275307 4.15881e-23)
(0.756596 -0.0921158 -1.68279e-22)
(0.759291 -0.22075 3.79751e-22)
(0.755285 -0.273774 -2.30311e-22)
(0.754889 -0.3272 -2.33989e-22)
(0.747412 -0.274729 1.62645e-22)
(0.744781 -0.209763 2.01041e-22)
(0.73462 -0.101274 4.15383e-22)
(0.732204 0.0633523 -1.47575e-22)
(0.722106 0.115561 1.59251e-22)
(0.726542 0.280375 -1.36493e-24)
(0.716065 0.207146 1.67759e-23)
(0.778058 -0.164565 -2.17594e-23)
(0.797475 -0.263714 2.30055e-22)
(0.811307 -0.328637 4.52848e-22)
(0.813242 -0.368116 -7.74378e-22)
(0.802608 -0.381211 7.86021e-22)
(0.785725 -0.364095 -5.49772e-22)
(0.768306 -0.306747 2.69501e-22)
(0.756838 -0.212427 -5.20944e-22)
(0.753737 -0.0923967 6.59689e-22)
(0.760541 0.0370108 5.75567e-22)
(0.770908 0.15304 9.71883e-22)
(0.780355 0.253906 2.50988e-22)
(0.782078 0.316243 6.27363e-22)
(0.78015 0.349893 3.78394e-22)
(0.772187 0.325915 6.89513e-22)
(0.765497 0.264744 5.11789e-22)
(0.757625 0.15875 -1.78724e-22)
(0.757303 0.0276853 1.71506e-22)
(0.757125 -0.0920472 -6.36743e-23)
(0.759756 -0.220632 -8.49e-22)
(0.755581 -0.273627 4.28653e-22)
(0.754888 -0.327016 -3.43523e-22)
(0.747323 -0.274542 -3.92126e-22)
(0.744682 -0.209526 -4.56985e-22)
(0.734561 -0.101067 -2.93753e-22)
(0.732465 0.0635818 2.21525e-22)
(0.722293 0.115647 -2.20858e-22)
(0.727327 0.280484 2.0443e-23)
(0.716511 0.207366 4.41654e-23)
(0.779245 -0.165202 -6.27469e-22)
(0.798457 -0.264453 -4.94903e-22)
(0.812182 -0.328945 -8.33648e-23)
(0.813991 -0.367776 3.34944e-22)
(0.803168 -0.38041 -1.61111e-22)
(0.7861 -0.36321 2.5831e-22)
(0.768589 -0.30613 -5.92758e-22)
(0.757118 -0.212295 6.70922e-22)
(0.754069 -0.0928032 9.20139e-23)
(0.760857 0.0362604 -3.47409e-22)
(0.771183 0.152273 -5.9986e-22)
(0.780634 0.25344 1.32872e-22)
(0.78248 0.31615 -4.87037e-22)
(0.780719 0.350131 -2.54278e-22)
(0.772815 0.326354 -8.0097e-22)
(0.766101 0.265232 1.55304e-22)
(0.75814 0.159121 -9.52677e-23)
(0.757824 0.0278584 3.40523e-23)
(0.757712 -0.0919605 -3.61816e-22)
(0.760283 -0.220497 7.09278e-22)
(0.75594 -0.273464 2.70538e-22)
(0.754944 -0.326821 4.15204e-23)
(0.747283 -0.274359 4.24134e-22)
(0.74463 -0.209295 1.80903e-22)
(0.734552 -0.100876 1.2047e-22)
(0.73278 0.0638006 -1.79746e-22)
(0.722539 0.115719 2.5897e-23)
(0.728167 0.280585 -6.6957e-23)
(0.71701 0.207593 -8.76595e-23)
(0.780513 -0.165769 -5.96638e-22)
(0.799508 -0.265146 -2.97853e-23)
(0.813121 -0.329227 3.53551e-22)
(0.814808 -0.36742 2.23816e-22)
(0.803796 -0.3796 -3.24431e-22)
(0.786542 -0.36233 1.62112e-22)
(0.768936 -0.305536 6.97055e-22)
(0.757456 -0.212199 -4.31794e-22)
(0.754455 -0.0932474 -2.72576e-22)
(0.761223 0.035477 -1.93365e-22)
(0.77151 0.151477 6.12724e-22)
(0.780969 0.252949 -2.37918e-22)
(0.782942 0.316038 3.43941e-22)
(0.781347 0.350362 1.11779e-22)
(0.7735 0.326801 -6.86857e-22)
(0.76676 0.26574 9.71233e-22)
(0.758707 0.159516 3.6438e-22)
(0.758397 0.0280499 -5.61826e-23)
(0.758356 -0.0918561 4.51892e-22)
(0.760872 -0.220345 -4.13891e-22)
(0.756361 -0.273285 -7.14967e-22)
(0.755057 -0.326618 6.97637e-22)
(0.747292 -0.274178 -1.94744e-22)
(0.744626 -0.209071 3.42645e-22)
(0.734592 -0.100702 1.25046e-22)
(0.733149 0.0640086 1.30274e-22)
(0.722842 0.115777 3.5137e-23)
(0.729062 0.280679 -5.95846e-24)
(0.717563 0.207829 -3.5954e-24)
(0.781861 -0.166264 -7.17118e-22)
(0.800627 -0.265793 6.22266e-22)
(0.814125 -0.329483 7.45781e-22)
(0.815692 -0.367047 1.35788e-22)
(0.804493 -0.378783 -6.888e-22)
(0.787051 -0.361456 -1.67951e-22)
(0.769347 -0.304964 -1.03947e-22)
(0.75785 -0.212136 1.5793e-22)
(0.754891 -0.0937287 -4.88069e-22)
(0.761637 0.0346608 7.01528e-22)
(0.771889 0.150652 1.56183e-22)
(0.781361 0.252433 1.26029e-21)
(0.783463 0.315906 5.27928e-22)
(0.782034 0.350584 1.09227e-22)
(0.774243 0.327256 5.04695e-22)
(0.767472 0.266265 -5.25212e-22)
(0.759327 0.159933 -1.05251e-21)
(0.759021 0.0282597 2.8438e-22)
(0.759057 -0.0917342 5.89919e-22)
(0.761523 -0.220177 1.24217e-21)
(0.756846 -0.273088 3.89495e-23)
(0.755227 -0.326405 -5.47804e-22)
(0.74735 -0.274 2.82975e-22)
(0.74467 -0.208854 -6.49884e-22)
(0.734681 -0.100544 -2.47659e-22)
(0.733572 0.0642055 7.33135e-23)
(0.723203 0.11582 -1.085e-22)
(0.73001 0.280766 2.57022e-23)
(0.718169 0.208072 4.86017e-23)
(0.783291 -0.166687 1.12569e-21)
(0.801814 -0.266394 -1.03027e-21)
(0.815192 -0.329713 -3.82958e-22)
(0.816643 -0.366659 -1.09945e-21)
(0.805258 -0.377958 1.11688e-21)
(0.787626 -0.360588 -4.41168e-22)
(0.769819 -0.304414 -4.24574e-22)
(0.758301 -0.212107 2.13165e-22)
(0.755377 -0.0942465 4.17813e-22)
(0.762099 0.0338121 -1.26802e-22)
(0.772318 0.149798 -2.89511e-22)
(0.781808 0.251891 -1.22175e-21)
(0.784043 0.315754 -1.33107e-21)
(0.782779 0.350798 -5.34364e-22)
(0.775042 0.327717 -5.57135e-22)
(0.768239 0.266809 -1.89765e-22)
(0.76 0.160373 -7.44048e-22)
(0.759697 0.0284877 1.09184e-21)
(0.759816 -0.0915951 6.5643e-23)
(0.762237 -0.219991 -2.6883e-22)
(0.757393 -0.272875 4.04119e-22)
(0.755454 -0.326181 2.19316e-22)
(0.747456 -0.273825 3.69494e-23)
(0.744761 -0.208643 4.87794e-22)
(0.734819 -0.100402 3.03801e-23)
(0.734049 0.0643912 -1.58476e-23)
(0.723621 0.11585 1.22507e-22)
(0.731012 0.280846 -1.67299e-23)
(0.718827 0.208322 -5.93813e-23)
(0.784803 -0.167037 6.09713e-22)
(0.803071 -0.266948 -3.47126e-22)
(0.816324 -0.329917 1.42752e-21)
(0.817661 -0.366255 3.59582e-22)
(0.80609 -0.377125 -3.05098e-22)
(0.788265 -0.359726 9.58026e-22)
(0.770352 -0.303884 1.42366e-21)
(0.758806 -0.21211 -2.64395e-22)
(0.755912 -0.0948003 -7.33071e-22)
(0.762607 0.0329311 -4.55877e-22)
(0.772796 0.148916 -6.63376e-22)
(0.78231 0.251323 9.83597e-22)
(0.784682 0.315581 1.27927e-21)
(0.783583 0.351005 -8.21085e-22)
(0.775899 0.328187 1.30244e-21)
(0.769062 0.267372 -2.51355e-22)
(0.760727 0.160837 6.74267e-22)
(0.760425 0.0287338 -1.13485e-21)
(0.760631 -0.0914391 -7.80139e-22)
(0.763012 -0.219789 -4.27402e-22)
(0.758004 -0.272645 -6.58478e-22)
(0.755739 -0.325947 -3.73484e-22)
(0.747611 -0.273652 -1.50009e-22)
(0.744899 -0.20844 -1.49424e-22)
(0.735005 -0.100277 1.84726e-22)
(0.734578 0.0645655 -1.302e-22)
(0.724096 0.115866 3.5205e-23)
(0.732065 0.280919 9.32789e-23)
(0.719539 0.208581 5.2306e-23)
(0.786397 -0.167311 -1.64377e-21)
(0.804396 -0.267455 1.89819e-23)
(0.817519 -0.330096 -1.56917e-21)
(0.818744 -0.365836 -2.34374e-22)
(0.806989 -0.376285 5.90174e-22)
(0.788968 -0.358868 -1.67961e-21)
(0.770945 -0.303375 -1.61055e-21)
(0.759364 -0.212144 -1.50645e-22)
(0.756494 -0.0953892 3.23909e-22)
(0.76316 0.0320179 6.59539e-22)
(0.773323 0.148004 4.6124e-22)
(0.782865 0.250729 -5.54832e-22)
(0.785377 0.315387 -5.35473e-23)
(0.784445 0.351203 1.2222e-21)
(0.776814 0.328663 -1.05877e-21)
(0.769939 0.267953 -3.68935e-22)
(0.761508 0.161324 2.98921e-22)
(0.761206 0.028998 1.4377e-21)
(0.761503 -0.0912664 1.91729e-22)
(0.76385 -0.219571 8.61229e-22)
(0.758678 -0.272398 1.1202e-22)
(0.756081 -0.325703 2.24025e-22)
(0.747815 -0.273481 -2.31055e-22)
(0.745084 -0.208243 -1.2762e-22)
(0.735239 -0.100168 -2.77657e-22)
(0.735159 0.0647283 1.89715e-22)
(0.724626 0.115867 -9.22395e-23)
(0.73317 0.280984 -1.84012e-22)
(0.720303 0.208846 -1.08991e-22)
(0.788074 -0.16751 -9.60839e-22)
(0.805792 -0.267913 -1.06973e-21)
(0.818777 -0.33025 -1.75636e-21)
(0.819893 -0.365403 -1.96541e-22)
(0.807954 -0.375438 7.10553e-22)
(0.789734 -0.358016 9.87424e-22)
(0.771596 -0.302885 2.57797e-22)
(0.759973 -0.212209 -7.55329e-23)
(0.757121 -0.0960129 -2.84893e-23)
(0.763758 0.0310728 -6.21342e-22)
(0.773897 0.147063 -5.53281e-22)
(0.783474 0.250109 7.06538e-22)
(0.786129 0.315172 -7.04586e-22)
(0.785364 0.351392 -2.8924e-22)
(0.777785 0.329146 4.59872e-22)
(0.770872 0.268552 1.52272e-21)
(0.762344 0.161834 3.13495e-22)
(0.762039 0.02928 -1.80689e-21)
(0.762433 -0.0910775 -2.10154e-22)
(0.764751 -0.219336 -5.68464e-22)
(0.759415 -0.272134 -3.76102e-22)
(0.756481 -0.325447 3.39889e-23)
(0.748066 -0.273313 -1.23674e-22)
(0.745316 -0.208053 2.09196e-22)
(0.735519 -0.100077 2.87495e-22)
(0.735793 0.0648794 2.24238e-22)
(0.725211 0.115855 7.37127e-24)
(0.734326 0.281043 2.07543e-22)
(0.72112 0.20912 2.26095e-23)
(0.789834 -0.167631 3.01276e-21)
(0.807256 -0.268323 1.60381e-21)
(0.820097 -0.33038 2.23692e-21)
(0.821107 -0.364957 1.06277e-21)
(0.808985 -0.374584 7.58237e-23)
(0.790563 -0.357168 7.29678e-22)
(0.772304 -0.302414 -6.52381e-23)
(0.760633 -0.212305 6.14435e-23)
(0.757793 -0.0966705 9.12308e-22)
(0.764398 0.030096 9.83471e-22)
(0.774518 0.146092 4.68108e-22)
(0.784134 0.249462 -2.4823e-22)
(0.786938 0.314936 4.7928e-22)
(0.78634 0.351573 1.44417e-22)
(0.778815 0.329637 7.86876e-22)
(0.771861 0.26917 -6.49176e-22)
(0.763234 0.162367 4.6139e-22)
(0.762924 0.02958 2.28356e-22)
(0.763419 -0.0908726 -1.9716e-22)
(0.765713 -0.219086 4.87197e-22)
(0.760216 -0.271853 1.50254e-21)
(0.756938 -0.32518 4.31168e-22)
(0.748366 -0.273145 -3.17825e-22)
(0.745594 -0.207869 -3.80942e-22)
(0.735846 -0.100002 -9.07353e-23)
(0.736476 0.0650186 -7.17447e-22)
(0.725851 0.115829 6.34005e-23)
(0.735531 0.281095 -1.45365e-22)
(0.721989 0.2094 1.09977e-22)
(0.791678 -0.167675 4.66502e-22)
(0.808791 -0.268683 -2.62392e-21)
(0.82148 -0.330484 -3.49644e-22)
(0.822385 -0.364498 -3.93074e-21)
(0.810081 -0.373724 -1.13157e-21)
(0.791452 -0.356324 -4.62659e-23)
(0.773068 -0.301961 6.35479e-22)
(0.761342 -0.212429 -1.02796e-21)
(0.758508 -0.0973614 -8.51888e-22)
(0.765079 0.0290877 -7.85051e-23)
(0.775184 0.145092 -4.27418e-22)
(0.784845 0.248788 -1.19315e-21)
(0.787801 0.314678 -2.59814e-22)
(0.787373 0.351745 5.1857e-22)
(0.779901 0.330134 -5.14596e-22)
(0.772907 0.269806 2.34712e-22)
(0.76418 0.162924 -9.04737e-22)
(0.763862 0.0298977 1.56907e-21)
(0.764462 -0.0906519 -4.42699e-22)
(0.766738 -0.21882 -1.67139e-21)
(0.761081 -0.271554 -1.25787e-22)
(0.757453 -0.324902 -4.41611e-22)
(0.748713 -0.272979 2.30805e-22)
(0.745918 -0.207692 -2.5634e-22)
(0.736219 -0.0999438 -7.41787e-23)
(0.737211 0.0651457 4.0168e-22)
(0.726545 0.115789 -4.69899e-23)
(0.736787 0.281139 5.36923e-23)
(0.722911 0.209688 -5.80383e-23)
(0.793605 -0.167639 -8.2974e-22)
(0.810395 -0.268993 3.04781e-21)
(0.822923 -0.330564 3.81447e-23)
(0.823726 -0.364026 8.38413e-22)
(0.811242 -0.372856 7.21735e-22)
(0.792401 -0.355483 -1.27887e-21)
(0.773886 -0.301526 1.05731e-22)
(0.762099 -0.212581 4.39417e-22)
(0.759265 -0.098085 -5.67911e-22)
(0.765801 0.0280481 -9.27197e-22)
(0.775895 0.144061 1.17015e-21)
(0.785606 0.248086 1.83877e-22)
(0.788719 0.314399 -7.03336e-22)
(0.788462 0.351907 4.96466e-23)
(0.781045 0.330638 -8.63387e-22)
(0.774009 0.27046 -5.3185e-22)
(0.765181 0.163504 3.58029e-22)
(0.764854 0.0302332 2.17522e-22)
(0.765561 -0.0904157 -1.10619e-22)
(0.767825 -0.218539 2.52703e-21)
(0.762009 -0.271239 1.17769e-22)
(0.758027 -0.324611 -2.85688e-22)
(0.749107 -0.272814 2.06518e-22)
(0.746289 -0.207522 7.94196e-22)
(0.736638 -0.0999026 -3.4786e-23)
(0.737995 0.0652607 -5.71865e-23)
(0.727292 0.115736 3.07886e-23)
(0.738091 0.281177 -1.85332e-23)
(0.723884 0.209984 1.40546e-23)
(0.795615 -0.167523 -1.01137e-21)
(0.81207 -0.269252 -1.65785e-21)
(0.824428 -0.330618 6.71072e-22)
(0.82513 -0.363542 1.74532e-21)
(0.812467 -0.371982 1.29627e-21)
(0.793409 -0.354646 -6.8588e-23)
(0.774757 -0.301107 1.14858e-21)
(0.762902 -0.212761 -3.23048e-22)
(0.760062 -0.0988407 9.07232e-22)
(0.766562 0.0269774 -4.26945e-22)
(0.776649 0.143001 -1.89235e-22)
(0.786416 0.247357 -2.46009e-22)
(0.78969 0.314097 1.26963e-21)
(0.789606 0.35206 9.59411e-23)
(0.782247 0.331148 7.08891e-22)
(0.775167 0.271133 1.14072e-21)
(0.766238 0.164107 -9.26286e-22)
(0.765898 0.0305863 -7.53032e-22)
(0.766717 -0.0901644 -1.21853e-21)
(0.768973 -0.218243 -4.99104e-22)
(0.763001 -0.270906 -2.34293e-21)
(0.758658 -0.324308 1.15177e-21)
(0.749549 -0.27265 -6.67243e-23)
(0.746705 -0.207358 -6.59356e-22)
(0.7371 -0.0998783 -1.71781e-22)
(0.738828 0.0653634 -6.9299e-23)
(0.728093 0.115668 8.06355e-24)
(0.739442 0.281208 2.01722e-24)
(0.72491 0.210286 2.1452e-23)
(0.797709 -0.167326 3.51446e-22)
(0.813814 -0.269459 -7.17579e-22)
(0.825993 -0.330649 3.06585e-22)
(0.826595 -0.363047 -3.04569e-21)
(0.813755 -0.371102 -1.20007e-21)
(0.794475 -0.353812 7.76826e-22)
(0.775681 -0.300705 -1.2343e-21)
(0.763751 -0.212967 3.75124e-22)
(0.760898 -0.0996277 -3.73733e-22)
(0.767361 0.0258759 1.77965e-21)
(0.777444 0.14191 -9.01668e-22)
(0.787274 0.246599 1.1126e-21)
(0.790715 0.313772 -1.14451e-21)
(0.790806 0.352203 -3.00201e-22)
(0.783506 0.331664 5.24446e-22)
(0.776383 0.271823 -2.59141e-22)
(0.767351 0.164733 1.28988e-21)
(0.766996 0.0309572 -2.31037e-21)
(0.767928 -0.0898981 1.73405e-21)
(0.770184 -0.217932 -1.08928e-21)
(0.764056 -0.270556 2.81376e-21)
(0.759348 -0.323992 -2.75549e-22)
(0.750037 -0.272486 1.63063e-22)
(0.747167 -0.207201 1.10948e-21)
(0.737607 -0.0998709 2.4761e-22)
(0.739709 0.0654536 1.31748e-22)
(0.728945 0.115587 3.85215e-23)
(0.740842 0.281233 5.08263e-24)
(0.725988 0.210596 -3.17597e-23)
(0.799886 -0.167046 2.903e-21)
(0.815628 -0.269612 6.54224e-22)
(0.827617 -0.330654 -1.34512e-21)
(0.82812 -0.36254 1.81739e-21)
(0.815105 -0.370216 1.00039e-21)
(0.795598 -0.35298 2.55873e-22)
(0.776655 -0.300317 2.73523e-22)
(0.764643 -0.213199 -2.48022e-22)
(0.761772 -0.100445 -7.22362e-22)
(0.768196 0.0247437 -1.21181e-21)
(0.778281 0.140789 1.26815e-22)
(0.788178 0.245813 2.24833e-22)
(0.791791 0.313425 -6.56149e-22)
(0.79206 0.352336 -2.75653e-22)
(0.784822 0.332186 -1.00452e-21)
(0.777656 0.272531 -1.64267e-21)
(0.768521 0.165383 -3.24527e-21)
(0.768148 0.0313457 2.36187e-21)
(0.769195 -0.0896172 -3.11415e-21)
(0.771456 -0.217607 -8.21777e-22)
(0.765175 -0.270189 1.75759e-22)
(0.760095 -0.323663 -1.15448e-21)
(0.750572 -0.272322 1.87552e-22)
(0.747674 -0.207049 -9.60158e-22)
(0.738158 -0.0998804 -1.70802e-22)
(0.740638 0.0655312 3.24134e-23)
(0.729849 0.115492 -9.97943e-23)
(0.742287 0.28125 3.3846e-23)
(0.727117 0.210913 6.44476e-23)
(0.802146 -0.166683 -1.39616e-21)
(0.817513 -0.269712 -1.1142e-21)
(0.8293 -0.330635 5.18897e-22)
(0.829705 -0.362023 -1.39586e-21)
(0.816517 -0.369323 -1.4053e-21)
(0.796778 -0.35215 -2.43596e-22)
(0.777678 -0.299944 4.92201e-22)
(0.765578 -0.213456 -2.95723e-22)
(0.762683 -0.101293 8.77751e-22)
(0.769066 0.0235811 1.32283e-21)
(0.779157 0.139638 4.40794e-22)
(0.789129 0.244998 -3.56387e-22)
(0.792917 0.313054 6.83355e-22)
(0.793368 0.352458 9.10908e-23)
(0.786194 0.332713 -3.79278e-22)
(0.778987 0.273256 1.17137e-21)
(0.769748 0.166056 8.61598e-22)
(0.769354 0.0317519 2.60818e-21)
(0.770518 -0.0893219 2.5396e-21)
(0.772789 -0.217267 8.89789e-22)
(0.766357 -0.269805 -1.56472e-21)
(0.760901 -0.32332 1.44925e-21)
(0.751153 -0.272158 2.61524e-23)
(0.748227 -0.206904 6.115e-22)
(0.738751 -0.0999068 3.65799e-23)
(0.741613 0.065596 -2.47205e-22)
(0.730805 0.115383 7.66649e-23)
(0.743778 0.281261 -8.76794e-23)
(0.728297 0.211236 -3.19173e-23)
(0.804488 -0.166236 2.34066e-21)
(0.819467 -0.269758 1.01525e-21)
(0.831042 -0.330591 -2.24233e-21)
(0.831347 -0.361495 1.35095e-21)
(0.817991 -0.368424 1.26148e-22)
(0.798012 -0.351321 -1.20574e-21)
(0.778748 -0.299584 1.28255e-21)
(0.766555 -0.213736 -5.90256e-22)
(0.763629 -0.10217 -1.75163e-22)
(0.769971 0.0223884 -8.72626e-22)
(0.780071 0.138456 -1.20629e-21)
(0.790123 0.244155 1.21871e-22)
(0.794094 0.31266 -1.53249e-24)
(0.794729 0.352569 8.0227e-22)
(0.787624 0.333245 3.44475e-22)
(0.780375 0.273999 -2.22642e-21)
(0.771032 0.166753 3.266e-21)
(0.770613 0.0321757 -7.25448e-22)
(0.771896 -0.0890125 1.86682e-21)
(0.774183 -0.216913 -1.00094e-21)
(0.767602 -0.269403 1.23811e-21)
(0.761765 -0.322963 -1.36646e-21)
(0.751779 -0.271993 -3.44194e-22)
(0.748823 -0.206765 -5.27832e-22)
(0.739386 -0.09995 4.39924e-23)
(0.742635 0.065648 1.89753e-22)
(0.73181 0.115261 -3.79061e-23)
(0.745315 0.281265 -3.17661e-23)
(0.729528 0.211566 1.44063e-23)
(0.806913 -0.165704 -3.03227e-21)
(0.821491 -0.269747 -2.53758e-21)
(0.832841 -0.330521 1.73965e-21)
(0.833047 -0.360958 1.18762e-21)
(0.819524 -0.367519 9.48788e-23)
(0.799302 -0.350493 3.82093e-22)
(0.779866 -0.299236 -5.99233e-22)
(0.767572 -0.214039 5.55383e-22)
(0.764609 -0.103076 -1.17795e-23)
(0.770909 0.0211657 3.52139e-22)
(0.781023 0.137243 4.96037e-22)
(0.791161 0.243281 -5.52916e-22)
(0.79532 0.312242 4.56818e-22)
(0.796143 0.352668 -1.21696e-21)
(0.78911 0.333782 -3.62358e-22)
(0.781822 0.274759 4.60713e-21)
(0.772373 0.167472 -2.34985e-21)
(0.771927 0.0326172 -2.29166e-21)
(0.773328 -0.0886891 -2.93692e-21)
(0.775638 -0.216546 2.48031e-21)
(0.76891 -0.268984 -1.88894e-21)
(0.762688 -0.322592 5.5588e-22)
(0.752452 -0.271827 -3.09088e-22)
(0.749464 -0.206632 4.25078e-22)
(0.740063 -0.10001 -6.49901e-23)
(0.743701 0.0656868 -5.73608e-24)
(0.732865 0.115126 8.07539e-23)
(0.746895 0.281262 1.18729e-22)
(0.73081 0.211903 -9.25453e-23)
(0.809419 -0.165086 5.1994e-21)
(0.823584 -0.26968 2.4277e-21)
(0.834697 -0.330426 6.66995e-22)
(0.834803 -0.360412 1.51813e-21)
(0.821117 -0.366608 -1.40767e-21)
(0.800645 -0.349665 -1.36168e-21)
(0.781028 -0.298901 -7.27928e-23)
(0.768627 -0.214364 8.52523e-22)
(0.765622 -0.104009 6.51334e-22)
(0.771878 0.0199135 -3.14431e-22)
(0.78201 0.135999 2.82866e-22)
(0.792241 0.242378 9.70984e-23)
(0.796593 0.311799 -7.94329e-22)
(0.797608 0.352756 3.09302e-22)
(0.790653 0.334324 1.7534e-21)
(0.783326 0.275536 -3.2882e-21)
(0.773772 0.168215 2.11273e-21)
(0.773296 0.0330764 -1.22822e-21)
(0.774815 -0.088352 -1.45945e-21)
(0.777154 -0.216165 -1.07103e-21)
(0.770281 -0.268548 1.41595e-21)
(0.763668 -0.322207 4.92159e-22)
(0.753169 -0.27166 6.258e-22)
(0.750149 -0.206505 1.48029e-23)
(0.74078 -0.100087 9.8763e-23)
(0.744813 0.0657125 -3.21806e-23)
(0.733969 0.114977 -1.83961e-22)
(0.748519 0.281252 7.51041e-23)
(0.732143 0.212246 1.84325e-23)
(0.812005 -0.164382 -1.19488e-21)
(0.825746 -0.269555 -1.03605e-21)
(0.83661 -0.330304 -8.22266e-22)
(0.836614 -0.359856 3.55071e-22)
(0.822768 -0.365692 5.40097e-22)
(0.802042 -0.348836 -5.29799e-22)
(0.782234 -0.298576 -1.19509e-21)
(0.76972 -0.21471 -8.09605e-22)
(0.766667 -0.104969 -9.96451e-22)
(0.772877 0.018632 -1.81343e-22)
(0.783032 0.134724 -3.90996e-22)
(0.793362 0.241445 1.12826e-22)
(0.797913 0.311332 1.43816e-21)
(0.799125 0.352831 7.8301e-22)
(0.792252 0.334869 -1.59511e-21)
(0.784888 0.276329 1.0889e-22)
(0.775229 0.168982 -1.7555e-21)
(0.774719 0.0335533 4.24596e-21)
(0.776357 -0.0880015 2.31487e-21)
(0.778729 -0.215771 1.60999e-21)
(0.771715 -0.268095 9.13396e-22)
(0.764707 -0.321806 -1.06076e-21)
(0.753932 -0.271491 -6.6149e-23)
(0.750877 -0.206383 -5.46281e-22)
(0.741537 -0.10018 -9.92242e-23)
(0.745968 0.0657249 -7.87719e-24)
(0.735122 0.114814 3.81092e-23)
(0.750186 0.281235 -1.65347e-22)
(0.733526 0.212595 6.99641e-24)
(0.814672 -0.16359 2.40646e-22)
(0.827978 -0.269371 2.42142e-21)
(0.838578 -0.330157 1.81955e-21)
(0.838477 -0.359292 -4.40121e-23)
(0.824477 -0.36477 1.85872e-21)
(0.80349 -0.348007 1.67713e-22)
(0.783482 -0.298261 1.86945e-21)
(0.770849 -0.215076 1.66202e-22)
(0.767742 -0.105956 5.02978e-23)
(0.773906 0.0173215 1.01077e-21)
(0.784087 0.133419 8.29424e-22)
(0.794522 0.240482 -2.27761e-22)
(0.799279 0.310839 -1.6585e-21)
(0.800692 0.352893 -1.52186e-21)
(0.793906 0.335417 -1.26904e-21)
(0.786508 0.277139 -1.89099e-21)
(0.776744 0.169771 2.68809e-22)
(0.776196 0.0340481 1.06576e-21)
(0.777952 -0.0876376 1.50283e-23)
(0.780364 -0.215364 -6.3627e-23)
(0.77321 -0.267625 -1.19729e-21)
(0.765805 -0.32139 8.70978e-22)
(0.754738 -0.27132 5.1932e-22)
(0.751649 -0.206267 5.45314e-23)
(0.742334 -0.10029 3.78797e-23)
(0.747166 0.0657239 -1.30805e-25)
(0.736322 0.114638 -8.48967e-23)
(0.751894 0.281212 -4.14451e-23)
(0.734958 0.21295 6.64055e-23)
(0.817418 -0.16271 -8.89838e-22)
(0.830278 -0.269128 -5.17075e-22)
(0.840601 -0.329982 2.68849e-22)
(0.840393 -0.358719 5.33508e-22)
(0.826242 -0.363843 6.69134e-22)
(0.804991 -0.347176 -1.27588e-22)
(0.784772 -0.297955 -2.45982e-22)
(0.772014 -0.215462 4.83931e-22)
(0.768848 -0.106969 -2.37684e-22)
(0.774962 0.0159823 -1.02288e-21)
(0.785174 0.132082 -7.97755e-22)
(0.79572 0.239488 2.96218e-22)
(0.80069 0.310321 5.12433e-22)
(0.802309 0.352942 3.19175e-21)
(0.795616 0.335969 1.98184e-21)
(0.788187 0.277965 -3.72647e-22)
(0.778317 0.170583 -1.01945e-21)
(0.77773 0.0345606 -4.60853e-21)
(0.779601 -0.0872607 -8.77318e-22)
(0.782057 -0.214944 -3.59949e-21)
(0.774767 -0.267138 7.75222e-22)
(0.76696 -0.320958 5.46628e-22)
(0.755589 -0.271147 -5.75835e-22)
(0.752463 -0.206155 4.28064e-22)
(0.743169 -0.100416 -2.39901e-23)
(0.748405 0.0657092 -6.8856e-23)
(0.737569 0.11445 1.58722e-22)
(0.753644 0.281181 1.08432e-22)
(0.73644 0.213311 4.08128e-23)
(0.820243 -0.161741 4.22215e-21)
(0.832646 -0.268823 -2.10557e-21)
(0.842678 -0.32978 -6.30734e-22)
(0.84236 -0.358139 -5.51372e-23)
(0.828063 -0.362911 -1.72156e-21)
(0.806543 -0.346342 2.94675e-22)
(0.786101 -0.297656 -1.13309e-21)
(0.773211 -0.215865 -2.43436e-22)
(0.769982 -0.108006 -8.61109e-22)
(0.776046 0.0146147 5.93292e-22)
(0.786291 0.130714 2.49351e-22)
(0.796955 0.238463 -5.88108e-22)
(0.802144 0.309777 -5.63177e-22)
(0.803974 0.352977 -6.21565e-22)
(0.79738 0.336522 -6.08258e-22)
(0.789923 0.278807 -8.08462e-22)
(0.779949 0.171419 2.86106e-23)
(0.779318 0.0350911 1.36765e-22)
(0.781303 -0.0868708 1.31491e-21)
(0.78381 -0.214512 4.42417e-21)
(0.776385 -0.266634 3.3665e-22)
(0.768174 -0.32051 -1.47012e-21)
(0.756484 -0.27097 4.75013e-23)
(0.75332 -0.206049 -4.58025e-22)
(0.744042 -0.100559 -2.88649e-24)
(0.749686 0.0656809 9.83177e-23)
(0.738863 0.114247 2.95625e-22)
(0.755434 0.281144 1.68919e-22)
(0.737972 0.213678 -5.60888e-23)
(0.823144 -0.160684 -3.1695e-21)
(0.835081 -0.268457 5.24087e-21)
(0.844809 -0.329551 -7.14287e-22)
(0.844376 -0.35755 1.99795e-21)
(0.829937 -0.361973 -3.17872e-22)
(0.808145 -0.345506 7.47198e-22)
(0.787469 -0.297365 6.1145e-22)
(0.774441 -0.216285 7.13047e-22)
(0.771143 -0.109068 3.24785e-22)
(0.777155 0.0132193 3.72541e-22)
(0.787438 0.129315 3.47631e-23)
(0.798226 0.237406 7.28583e-22)
(0.80364 0.309206 5.56597e-22)
(0.805687 0.352998 -1.28479e-21)
(0.799199 0.337078 -9.03684e-22)
(0.791718 0.279664 1.13947e-21)
(0.78164 0.172277 9.04268e-22)
(0.780962 0.0356396 3.16043e-21)
(0.783057 -0.0864681 -2.94654e-21)
(0.785621 -0.214068 -1.16933e-21)
(0.778064 -0.266113 -8.92348e-23)
(0.769446 -0.320046 8.64998e-22)