/*--------------------------------*- C++ -*----------------------------------*\
  =========                 |
  \\      /  F ield         | OpenFOAM: The Open Source CFD Toolbox
   \\    /   O peration     | Website:  https://openfoam.org
    \\  /    A nd           | Version:  7
     \\/     M anipulation  |
\*---------------------------------------------------------------------------*/
FoamFile
{
    version     2.0;
    format      ascii;
    class       surfaceScalarField;
    location    "160";
    object      phi;
}
// * * * * * * * * * * * * * * * * * * * * * * * * * * * * * * * * * * * * * //

dimensions      [0 3 -1 0 0 0 0];

internalField   nonuniform List<scalar> 
14029
(
0.000423225
-0.00723173
0.00719961
0.000428953
-0.00744582
0.0074401
0.000412735
-0.00757181
0.00758802
0.000391024
-0.0076107
0.00763241
0.00039092
-0.0074062
0.0074063
0.000435214
-0.00669289
0.0066486
0.000524751
-0.0053054
0.00521587
0.000642538
-0.00332514
0.00320735
0.000770795
-0.000998548
0.00087029
0.000896915
0.00138637
-0.00151249
0.00101092
0.00354845
-0.00366245
0.0011047
0.0052717
-0.00536548
0.00117384
0.00646731
-0.00653646
0.00121835
0.00717565
-0.00722015
0.00124104
0.00751843
-0.00754112
0.00124644
0.00763435
-0.00763975
0.00123924
0.00762681
-0.00761961
0.00122077
0.00758051
-0.00756204
0.00118807
0.00760742
-0.00757472
0.00114007
0.00777591
-0.00772791
0.00108532
0.00793615
-0.0078814
0.00104155
0.00767426
-0.00763048
0.00102507
0.00654969
-0.00653322
0.00104145
0.00443655
-0.00445293
0.0010858
0.00163211
-0.00167646
0.00114737
-0.00132262
0.00126105
0.00121314
-0.00390606
0.0038403
0.00127109
-0.00581281
0.00575486
0.00131335
-0.00701223
0.00696997
-0.00765531
0.00763037
0.000432792
-0.00726052
0.000435459
-0.00744849
0.000415424
-0.00755177
0.000387918
-0.00758319
0.000380013
-0.00739829
0.000416713
-0.00672959
0.000501682
-0.00539037
0.000618749
-0.00344221
0.000749209
-0.00112901
0.000879247
0.00125633
0.000997949
0.00342974
0.00109655
0.0051731
0.00117019
0.00639367
0.00121852
0.00712731
0.00124429
0.00749266
0.00125213
0.00762652
0.00124684
0.00763209
0.00122982
0.00759754
0.00119828
0.00763896
0.00115144
0.00782274
0.00109795
0.00798963
0.0010551
0.00771711
0.00103845
0.00656634
0.0010532
0.0044218
0.0010948
0.00159051
0.00115312
-0.00138094
0.00121565
-0.00396859
0.00127075
-0.00586791
0.00131067
-0.00705215
-0.00767835
0.000442623
-0.00728597
0.000442402
-0.00744827
0.000418904
-0.00752827
0.000386021
-0.00755031
0.000370522
-0.00738279
0.000399424
-0.0067585
0.000479364
-0.00547031
0.000595269
-0.00355811
0.000727608
-0.00126135
0.000861356
0.00112258
0.000984639
0.00330646
0.00108802
0.00506972
0.00116615
0.00631554
0.00121836
0.0070751
0.00124727
0.00746375
0.0012576
0.00761619
0.0012543
0.00763539
0.0012388
0.00761305
0.0012085
0.00766925
0.00116293
0.00786832
0.00111076
0.0080418
0.00106881
0.00775907
0.0010519
0.00658325
0.00106492
0.00440877
0.00110367
0.00155176
0.00115866
-0.00143592
0.00121791
-0.00402784
0.00127015
-0.00592015
0.00130774
-0.00708974
-0.00769952
0.000452692
-0.00730811
0.000449736
-0.00744531
0.000423123
-0.00750166
0.000385303
-0.00751249
0.000362473
-0.00735996
0.000383424
-0.00677945
0.000457882
-0.00554477
0.000572168
-0.0036724
0.000706041
-0.00139522
0.000843271
0.000985353
0.000971003
0.00317873
0.0010791
0.00496162
0.00116172
0.00623292
0.00121784
0.00701898
0.00124994
0.00743164
0.00126286
0.00760327
0.00126161
0.00763664
0.00124769
0.00762696
0.00121874
0.00769821
0.00117452
0.00791253
0.00112373
0.00809259
0.00108266
0.00780014
0.00106541
0.00660051
0.00107659
0.00439759
0.0011124
0.00151594
0.00116399
-0.0014875
0.00121992
-0.00408378
0.00126929
-0.00596951
0.00130457
-0.00712502
-0.00771884
0.000462972
-0.00732693
0.000457419
-0.00743976
0.000428024
-0.00747226
0.000385724
-0.00747019
0.000355881
-0.00733012
0.000368783
-0.00679235
0.000437321
-0.00561331
0.000549513
-0.00378459
0.000684557
-0.00153026
0.000825022
0.000844889
0.000957055
0.0030467
0.00106981
0.00484887
0.00115691
0.00614582
0.00121696
0.00695893
0.00125232
0.00739628
0.00126788
0.00758771
0.00126874
0.00763578
0.00125649
0.00763922
0.00122896
0.00772573
0.0011862
0.0079553
0.00113685
0.00814194
0.00109664
0.00784035
0.00107896
0.00661819
0.0010882
0.00438835
0.00112099
0.00148316
0.00116911
-0.00153563
0.0012217
-0.00413637
0.00126818
-0.006016
0.00130117
-0.00715801
-0.00773635
0.000473434
-0.00734243
0.000465404
-0.00743173
0.000433547
-0.00744041
0.000387234
-0.00742388
0.000350748
-0.00729363
0.000355566
-0.00679717
0.000417763
-0.00567551
0.000527374
-0.0038942
0.000663205
-0.0016661
0.000806639
0.000701454
0.000942811
0.00291052
0.00106014
0.00473155
0.0011517
0.00605426
0.00121571
0.00689492
0.00125438
0.00735761
0.00127265
0.00756944
0.00127569
0.00763274
0.00126517
0.00764973
0.00123916
0.00775174
0.00119794
0.00799652
0.00115008
0.0081898
0.00111072
0.0078797
0.00109254
0.00663637
0.00109975
0.00438114
0.00112943
0.00145348
0.00117403
-0.00158023
0.00122324
-0.00418557
0.00126683
-0.00605959
0.00129754
-0.00718872
-0.00775207
0.000484053
-0.0073546
0.00047365
-0.00742133
0.000439629
-0.00740639
0.000389778
-0.00737403
0.000347065
-0.00725092
0.000343824
-0.00679393
0.000399288
-0.00573097
0.000505817
-0.00400073
0.000642032
-0.00180231
0.000788151
0.000555335
0.000928285
0.00277039
0.00105009
0.00460974
0.00114609
0.00595826
0.00121408
0.00682693
0.00125611
0.00731558
0.00127715
0.0075484
0.00128244
0.00762746
0.00127373
0.00765845
0.00124932
0.00777615
0.00120973
0.00803611
0.00116341
0.00823612
0.00112489
0.00791822
0.00110614
0.00665512
0.00111123
0.00437605
0.00113772
0.00142699
0.00117875
-0.00162126
0.00122455
-0.00423137
0.00126525
-0.00610029
0.00129369
-0.00721716
-0.00776605
0.0004948
-0.00736344
0.000482112
-0.00740864
0.000446208
-0.00737048
0.000393291
-0.00732111
0.000344809
-0.00720244
0.000333603
-0.00678272
0.000381973
-0.00577934
0.000484911
-0.00410366
0.000621087
-0.00193849
0.000769591
0.000406831
0.000913492
0.00262649
0.00103968
0.00448356
0.00114007
0.00585787
0.00121205
0.00675494
0.0012575
0.00727013
0.00128138
0.00752452
0.00128897
0.00761986
0.00128214
0.00766528
0.00125942
0.00779887
0.00122155
0.00807398
0.00117682
0.00828085
0.00113912
0.00795592
0.00111973
0.00667451
0.00112263
0.00437316
0.00114586
0.00140375
0.00118327
-0.00165867
0.00122563
-0.00427373
0.00126343
-0.00613808
0.00128962
-0.00724336
-0.00777832
0.000505649
-0.00736894
0.000490751
-0.00739374
0.000453218
-0.00733295
0.000397701
-0.00726559
0.000343944
-0.00714868
0.000324934
-0.00676371
0.000365891
-0.0058203
0.000464721
-0.0042025
0.000600419
-0.00207418
0.000750987
0.000256262
0.000898449
0.00247903
0.00102889
0.00435311
0.00113364
0.00575312
0.00120963
0.00667895
0.00125853
0.00722123
0.00128531
0.00749774
0.00129527
0.0076099
0.00129039
0.00767016
0.00126945
0.00781981
0.00123338
0.00811006
0.00119028
0.00832394
0.00115339
0.00799281
0.00113331
0.00669459
0.00113393
0.00437254
0.00115385
0.00138384
0.00118759
-0.00169242
0.00122649
-0.00431263
0.00126138
-0.00617297
0.00128535
-0.00726733
-0.0077889
0.000516569
-0.0073711
0.000499524
-0.0073767
0.000460594
-0.00729402
0.000402931
-0.00720793
0.000344425
-0.00709017
0.000317839
-0.00673713
0.000351111
-0.00585357
0.000445316
-0.0042967
0.000580076
-0.00220894
0.000732374
0.000103963
0.000883172
0.00232823
0.00101775
0.00421853
0.0011268
0.00564407
0.0012068
0.00659896
0.0012592
0.00716883
0.00128893
0.00746801
0.00130133
0.00759751
0.00129846
0.00767303
0.00127938
0.00783889
0.00124519
0.00814425
0.00120378
0.00836536
0.00116768
0.00802891
0.00114685
0.00671541
0.00114513
0.00437426
0.00116167
0.0013673
0.00119171
-0.00172246
0.00122713
-0.00434805
0.00125911
-0.00620495
0.00128086
-0.00728908
-0.00779782
0.000527532
-0.00736993
0.000508394
-0.00735756
0.000468272
-0.0072539
0.000408899
-0.00714856
0.000346191
-0.00702747
0.000312327
-0.00670326
0.000337696
-0.00587894
0.000426761
-0.00438576
0.000560106
-0.00234229
0.000713785
-4.97148e-05
0.000867679
0.00217434
0.00100625
0.00407996
0.00111954
0.00553079
0.00120354
0.00651495
0.00125948
0.00711289
0.00129223
0.00743526
0.00130711
0.00758262
0.00130634
0.0076738
0.00128919
0.00785603
0.00125696
0.00817648
0.00121728
0.00840504
0.00118196
0.00806423
0.00116034
0.00673703
0.00115623
0.00437837
0.00116933
0.0013542
0.00119563
-0.00174876
0.00122756
-0.00437997
0.00125662
-0.00623402
0.00127618
-0.00730864
-0.00780513
0.000538507
-0.00736542
0.00051732
-0.00733637
0.000476188
-0.00721277
0.000415521
-0.00708789
0.000349173
-0.00696112
0.000308392
-0.00666248
0.000325704
-0.00589625
0.000409123
-0.00446918
0.000540559
-0.00247373
0.000695246
-0.000204402
0.000851986
0.0020176
0.000994402
0.00393754
0.00111186
0.00541333
0.00119986
0.00642695
0.00125937
0.00705338
0.00129518
0.00739945
0.00131262
0.00756519
0.00131399
0.00767242
0.00129887
0.00787115
0.00126868
0.00820667
0.00123076
0.00844296
0.00119622
0.00809876
0.00117377
0.00675949
0.00116721
0.00438493
0.00117683
0.00134457
0.00119936
-0.00177129
0.00122777
-0.00440837
0.00125392
-0.00626017
0.00127129
-0.00732601
-0.00781085
0.000549465
-0.00735759
0.000526266
-0.00731317
0.00048428
-0.00717078
0.000422708
-0.00702632
0.000353292
-0.0068917
0.000306016
-0.0066152
0.000315182
-0.00590542
0.000392465
-0.00454647
0.000521494
-0.00260275
0.000676783
-0.00035969
0.000836113
0.00185827
0.000982208
0.00379145
0.00110375
0.00529179
0.00119574
0.00633496
0.00125885
0.00699027
0.00129777
0.00736053
0.00131781
0.00754514
0.00132142
0.00766882
0.00130839
0.00788418
0.0012803
0.00823476
0.00124419
0.00847908
0.00121043
0.00813253
0.0011871
0.00678281
0.00117805
0.00439398
0.00118416
0.00133846
0.00120289
-0.00179002
0.00122777
-0.00443326
0.00125101
-0.00628341
0.00126622
-0.00734122
-0.00781501
0.000560372
-0.00734647
0.000535196
-0.007288
0.000492489
-0.00712807
0.000430371
-0.0069642
0.000358458
-0.00681979
0.000305166
-0.00656191
0.000306173
-0.00590642
0.000376855
-0.00461715
0.000502936
-0.00272884
0.000658449
-0.000515203
0.000820076
0.00169664
0.000969675
0.00364185
0.00109521
0.00516625
0.00119116
0.00623902
0.0012579
0.00692353
0.00129999
0.00731844
0.00132269
0.00752244
0.00132858
0.00766294
0.00131772
0.00789504
0.00129182
0.00826067
0.00125755
0.00851335
0.00122456
0.00816552
0.00120034
0.00680703
0.00118876
0.00440556
0.00119131
0.00133591
0.00120622
-0.00180492
0.00122757
-0.00445461
0.0012479
-0.00630374
0.00126096
-0.00735428
-0.00781764
0.000571197
-0.00733207
0.000544075
-0.00726088
0.000500756
-0.00708475
0.000438421
-0.00690187
0.000364576
-0.00674594
0.000305796
-0.00650313
0.000298707
-0.00589934
0.000362353
-0.00468079
0.000484947
-0.00285143
0.000640265
-0.000670521
0.000803899
0.00153301
0.000956811
0.00348894
0.00108625
0.00503681
0.00118613
0.00613913
0.00125652
0.00685314
0.00130181
0.00727315
0.00132723
0.00749702
0.00133547
0.0076547
0.00132685
0.00790365
0.00130319
0.00828433
0.00127081
0.00854573
0.0012386
0.00819773
0.00121346
0.00683217
0.00119932
0.0044197
0.00119829
0.00133693
0.00120936
-0.00181599
0.00122717
-0.00447242
0.00124459
-0.00632116
0.00125551
-0.0073652
-0.00781878
0.000581906
-0.00731443
0.000552868
-0.00723184
0.000509027
-0.00704091
0.000446767
-0.00683961
0.000371542
-0.00667072
0.000307845
-0.00643944
0.000292803
-0.00588429
0.000349021
-0.00473701
0.000467581
-0.00296999
0.000622267
-0.000825207
0.000787599
0.00136767
0.000943624
0.00333291
0.00107685
0.00490359
0.00118063
0.00603535
0.00125468
0.00677908
0.00130322
0.00722461
0.00133141
0.00746883
0.00134205
0.00764406
0.00133575
0.00790995
0.0013144
0.00830568
0.00128394
0.00857618
0.00125251
0.00822917
0.00122644
0.00685824
0.00120972
0.00443643
0.00120509
0.00134156
0.0012123
-0.0018232
0.00122656
-0.00448669
0.00124108
-0.00633567
0.00124988
-0.00737399
-0.00781846
0.000592467
-0.00729359
0.000561543
-0.00720091
0.000517251
-0.00699662
0.000455324
-0.00677768
0.000379248
-0.00659464
0.000311241
-0.00637143
0.00028847
-0.00586152
0.000336919
-0.00478546
0.000450891
-0.00308396
0.000604489
-0.000978804
0.000771197
0.00120097
0.000930124
0.00317399
0.00106702
0.00476669
0.00117465
0.00592772
0.00125238
0.00670135
0.00130421
0.00717279
0.00133521
0.00743783
0.00134832
0.00763095
0.0013444
0.00791387
0.00132542
0.00832466
0.00129692
0.00860467
0.00126628
0.00825981
0.00123927
0.00688526
0.00121994
0.00445575
0.00121169
0.00134981
0.00121504
-0.00182654
0.00122576
-0.00449741
0.00123738
-0.00634729
0.00124407
-0.00738069
-0.0078167
0.000602845
-0.00726959
0.000570067
-0.00716814
0.000525379
-0.00695193
0.000464006
-0.00671631
0.000387583
-0.00651822
0.000315895
-0.00629974
0.000285701
-0.00583133
0.000326101
-0.00482586
0.00043493
-0.00319279
0.000586966
-0.00113084
0.000754714
0.00103322
0.000916318
0.00301238
0.00105675
0.00462626
0.0011682
0.00581627
0.00124961
0.00661994
0.00130475
0.00711765
0.00133861
0.00740396
0.00135424
0.00761532
0.00135276
0.00791536
0.00133621
0.00834121
0.00130972
0.00863117
0.00127988
0.00828965
0.00125193
0.00691321
0.00123
0.00447768
0.00121811
0.00136169
0.00121759
-0.00182602
0.00122477
-0.00450459
0.00123348
-0.00635601
0.00123808
-0.00738528
-0.00781353
0.000613006
-0.00724248
0.000578408
-0.00713354
0.000533366
-0.00690689
0.000472733
-0.00665567
0.000396433
-0.00644192
0.000321713
-0.00622502
0.000284477
-0.00579409
0.000316616
-0.004858
0.000419754
-0.00329593
0.000569736
-0.00128082
0.000738173
0.00086478
0.000902218
0.00284834
0.00104606
0.00448242
0.00116125
0.00570108
0.00124634
0.00653485
0.00130483
0.00705916
0.0013416
0.0073672
0.00135981
0.00759711
0.00136083
0.00791434
0.00134676
0.00835527
0.00132231
0.00865562
0.00129329
0.00831866
0.0012644
0.00694211
0.00123986
0.00450222
0.00122434
0.00137721
0.00121994
-0.00182162
0.00122358
-0.00450823
0.00122941
-0.00636184
0.00123193
-0.0073878
-0.00780898
0.000622918
-0.00721233
0.000586536
-0.00709716
0.000541169
-0.00686152
0.000481427
-0.00659593
0.000405685
-0.00636618
0.000328585
-0.00614792
0.000284764
-0.00575027
0.000308508
-0.00488174
0.000405421
-0.00339284
0.000552837
-0.00142824
0.000721596
0.00069602
0.000887835
0.0026821
0.00103493
0.00433533
0.00115381
0.0055822
0.00124257
0.00644609
0.00130443
0.0069973
0.00134414
0.00732748
0.00136498
0.00757627
0.00136856
0.00791076
0.00135704
0.00836679
0.00133466
0.008678
0.00130649
0.00834684
0.00127666
0.00697193
0.00124952
0.00452937
0.00123036
0.00139636
0.00122209
-0.00181334
0.0012222
-0.00450833
0.00122515
-0.00636479
0.0012256
-0.00738825
-0.00780308
0.000632549
-0.00717918
0.000594422
-0.00705903
0.000548751
-0.00681585
0.000490017
-0.0065372
0.000415225
-0.00629138
0.000336396
-0.00606909
0.000286512
-0.00570039
0.000301812
-0.00489704
0.000391988
-0.00348302
0.00053631
-0.00157256
0.000705008
0.000527323
0.00087318
0.00251393
0.00102337
0.00418514
0.00114586
0.00545971
0.00123828
0.00635366
0.00130354
0.00693205
0.00134624
0.00728478
0.00136975
0.00755275
0.00137594
0.00790456
0.00136701
0.00837572
0.00134675
0.00869826
0.00131944
0.00837414
0.00128871
0.00700267
0.00125897
0.00455911
0.00123619
0.00141914
0.00122405
-0.00180121
0.00122063
-0.00450491
0.00122071
-0.00636486
0.0012191
-0.00738665
-0.00779585
0.000641864
0.000602036
-0.0070192
0.000556076
-0.00676989
0.000498435
-0.00647956
0.000424942
-0.00621789
0.000345023
-0.00598917
0.000289657
-0.00564502
0.000296551
-0.00490394
0.000379515
-0.00356598
0.000520198
-0.00171324
0.000688433
0.000359088
0.000858268
0.00234409
0.00101139
0.00403202
0.00113741
0.00533369
0.00123347
0.0062576
0.00130214
0.00686339
0.00134785
0.00723907
0.00137409
0.00752652
0.00138295
0.0078957
0.00137665
0.00838201
0.00135854
0.00871637
0.00133214
0.00840055
0.00130052
0.00703428
0.0012682
0.00459143
0.0012418
0.00144554
0.00122581
-0.00178522
0.00121887
-0.00449797
0.00121609
-0.00636208
0.00121244
-0.00738301
-0.00778733
0.00060935
-0.00697772
0.00056311
-0.00672365
0.000506621
-0.00642307
0.000434728
-0.006146
0.000354337
-0.00590878
0.000294121
-0.00558481
0.00029274
-0.00490256
0.000368061
-0.0036413
0.000504549
-0.00184973
0.000671901
0.000191736
0.000843112
0.00217288
0.000998984
0.00387615
0.00112845
0.00520422
0.00122813
0.00615792
0.00130021
0.00679131
0.00134898
0.0071903
0.00137798
0.00749752
0.00138955
0.00788413
0.00138594
0.00838562
0.00137002
0.00873229
0.00134454
0.00842602
0.00131207
0.00706676
0.0012772
0.0046263
0.0012472
0.00147554
0.00122737
-0.00176539
0.00121693
-0.00448753
0.00121129
-0.00635644
0.00120562
-0.00737734
-0.00777752
0.000616338
-0.00693463
0.000569824
-0.00667714
0.000514518
-0.00636776
0.000444481
-0.00607596
0.000364207
-0.00582851
0.000299811
-0.00552041
0.00029038
-0.00489313
0.000357683
-0.00370861
0.000489413
-0.00198146
0.000655442
2.57073e-05
0.000827729
0.00200059
0.000986166
0.00371771
0.00111897
0.00507142
0.00122224
0.00605466
0.00129775
0.0067158
0.00134959
0.00713846
0.00138139
0.00746572
0.00139572
0.00786981
0.00139484
0.0083865
0.00138115
0.00874598
0.00135665
0.00845053
0.00132335
0.00710005
0.00128596
0.0046637
0.00125239
0.00150911
0.00122873
-0.00174173
0.0012148
-0.0044736
0.00120632
-0.00634797
0.00119863
-0.00736965
-0.00776646
0.000622974
-0.00688999
0.00057619
-0.00663035
0.000522077
-0.00631365
0.000454103
-0.00600799
0.0003745
-0.0057489
0.000306622
-0.00545253
0.000289458
-0.00487596
0.000348434
-0.00376758
0.000474842
-0.00210787
0.000639086
-0.000138536
0.000812136
0.00182754
0.000972941
0.0035569
0.00110899
0.00493537
0.00121579
0.00594785
0.00129473
0.00663686
0.00134967
0.00708351
0.00138431
0.00743107
0.00140144
0.00785268
0.00140333
0.00838461
0.00139191
0.0087574
0.00136842
0.00847402
0.00133435
0.00713412
0.00129447
0.00470358
0.00125735
0.00154622
0.0012299
-0.00171428
0.00121249
-0.00445619
0.00120118
-0.00633666
0.00119148
-0.00735995
-0.00775417
0.000629234
-0.00684385
0.000582184
-0.00658331
0.000529254
-0.00626072
0.000463504
-0.00594224
0.000385082
-0.00567048
0.000314437
-0.00538189
0.000289945
-0.00485147
0.000340363
-0.003818
0.000460898
-0.0022284
0.000622861
-0.000300499
0.000796352
0.00165405
0.000959317
0.00339394
0.00109849
0.0047962
0.00120878
0.00583755
0.00129114
0.0065545
0.00134921
0.00702545
0.00138673
0.00739356
0.00140669
0.00783272
0.00141138
0.00837991
0.00140227
0.00876652
0.00137984
0.00849646
0.00134504
0.00716892
0.00130272
0.0047459
0.00126209
0.00158684
0.00123086
-0.00168305
0.00121
-0.00443532
0.00119587
-0.00632254
0.00118418
-0.00734825
-0.00774067
0.000635093
-0.00679628
0.000587782
-0.00653599
0.000536011
-0.00620895
0.000472601
-0.00587883
0.000395822
-0.0055937
0.000323131
-0.0053092
0.000291797
-0.00482013
0.000333513
-0.00385972
0.000447623
-0.00234252
0.000606817
-0.000459692
0.000780399
0.00148047
0.000945303
0.00322903
0.00108747
0.00465404
0.00120121
0.00572382
0.00128698
0.00646873
0.00134818
0.00696424
0.0013886
0.00735314
0.00141143
0.00780989
0.00141897
0.00837237
0.00141221
0.00877328
0.00139089
0.00851779
0.00135541
0.0072044
0.0013107
0.00479061
0.00126661
0.00163093
0.00123163
-0.00164807
0.00120733
-0.00441102
0.0011904
-0.00630561
0.00117671
-0.00733457
-0.00772597
0.00064053
-0.00674733
0.000592964
-0.00648843
0.000542313
-0.0061583
0.000481317
-0.00581783
0.000406593
-0.00551898
0.000332571
-0.00523517
0.000294955
-0.00478252
0.000327914
-0.00389268
0.000435081
-0.00244968
0.000590991
-0.000615602
0.000764302
0.00130716
0.000930913
0.00306242
0.00107594
0.00450901
0.00119306
0.0056067
0.00128223
0.00637956
0.00134658
0.00689989
0.00138993
0.00730979
0.00141566
0.00778415
0.00142608
0.00836196
0.00142171
0.00877764
0.00140154
0.00853795
0.00136545
0.00724049
0.0013184
0.00483767
0.00127089
0.00167845
0.0012322
-0.00160939
0.00120447
-0.00438329
0.00118475
-0.00628588
0.00116909
-0.00731891
-0.0077101
0.000645525
-0.00669706
0.00059771
-0.00644061
0.000548133
-0.00610872
0.000489586
-0.00575929
0.000417273
-0.00544667
0.000342616
-0.00516052
0.000299345
-0.00473925
0.000323591
-0.00391692
0.000423339
-0.00254943
0.000575431
-0.000767693
0.000748088
0.0011345
0.00091616
0.00289435
0.00106391
0.00436125
0.00118433
0.00548629
0.00127687
0.00628702
0.00134438
0.00683238
0.00139068
0.00726349
0.00141935
0.00775549
0.00143267
0.00834864
0.00143073
0.00877958
0.00141178
0.0085569
0.00137514
0.00727713
0.00132581
0.004887
0.00127493
0.00172933
0.00123257
-0.00156702
0.00120144
-0.00435217
0.00117894
-0.00626338
0.00116132
-0.00730129
-0.00769307
0.000650058
-0.00664553
0.000602003
-0.00639256
0.000553446
-0.00606016
0.000497348
-0.00570319
0.000427746
-0.00537706
0.000353125
-0.0050859
0.000304876
-0.004691
0.000320553
-0.0039326
0.00041246
-0.00264134
0.000560187
-0.00091542
0.000731787
0.0009629
0.00090106
0.00272508
0.00105138
0.00421094
0.00117502
0.00536264
0.00127091
0.00619113
0.00134158
0.00676171
0.00139085
0.00721422
0.00142247
0.00772387
0.00143873
0.00833238
0.00143927
0.00877904
0.00142159
0.00857458
0.00138447
0.00731425
0.00133293
0.00493854
0.00127874
0.00178353
0.00123274
-0.00152102
0.00119824
-0.00431767
0.00117297
-0.00623811
0.00115339
-0.0072817
-0.0076749
0.000654113
-0.00659282
0.000605827
-0.00634427
0.000558234
-0.00601257
0.000504553
-0.00564951
0.000437903
-0.00531042
0.000363954
-0.00501195
0.000311445
-0.00463849
0.000318798
-0.00393995
0.000402503
-0.00272504
0.000545315
-0.00105823
0.000715433
0.000792782
0.000885631
0.00255488
0.00103835
0.00405822
0.00116513
0.00523586
0.00126433
0.00609193
0.00133815
0.00668788
0.00139041
0.00716196
0.001425
0.00768928
0.00144423
0.00831315
0.00144728
0.00877598
0.00143095
0.0085909
0.00139343
0.00735177
0.00133975
0.00499222
0.0012823
0.00184097
0.00123271
-0.00147143
0.00119486
-0.00427982
0.00116683
-0.00621009
0.0011453
-0.00726017
-0.00765559
0.000657673
-0.00653898
0.000609167
-0.00629577
0.00056248
-0.00596588
0.000511157
-0.00559818
0.000447645
-0.0052469
0.000374959
-0.00493926
0.000318937
-0.00458247
0.000318305
-0.00393932
0.000393522
-0.00280026
0.000530873
-0.00119558
0.000699062
0.000624592
0.000869893
0.00238405
0.00102483
0.00390329
0.00115465
0.00510604
0.00125712
0.00598946
0.0013341
0.0066109
0.00138935
0.00710671
0.00142694
0.00765169
0.00144914
0.00829095
0.00145476
0.00877036
0.00143985
0.00860582
0.001402
0.00738962
0.00134625
0.00504796
0.00128563
0.0019016
0.00123249
-0.00141829
0.0011913
-0.00423863
0.00116054
-0.00617933
0.00113706
-0.00723669
-0.00763518
0.000660725
-0.00648407
0.000612012
-0.00624705
0.000566171
-0.00592004
0.000517125
-0.00554914
0.000456881
-0.00518666
0.000386002
-0.00486838
0.000327228
-0.00452369
0.00031904
-0.00393113
0.000385564
-0.00286678
0.000516923
-0.00132694
0.000682717
0.000458798
0.00085387
0.0022129
0.00101084
0.00374632
0.00114359
0.00497329
0.00124928
0.00588377
0.0013294
0.00653079
0.00138765
0.00704845
0.00142825
0.0076111
0.00145346
0.00826573
0.00146169
0.00876214
0.00144825
0.00861926
0.00141016
0.00742771
0.00135244
0.00510568
0.00128871
0.00196533
0.00123207
-0.00136165
0.00118758
-0.00419414
0.00115408
-0.00614583
0.00112867
-0.00721128
0.00110715
-0.00761366
-0.00763866
0.000663256
-0.00642816
0.000614349
-0.00619814
0.000569297
-0.00587499
0.00052243
-0.00550227
0.000465532
-0.00512976
0.000396944
-0.00479979
0.000336182
-0.00446293
0.000320951
-0.0039159
0.000378669
-0.0029245
0.000503529
-0.0014518
0.000666444
0.000295883
0.000837589
0.00204175
0.000996386
0.00358752
0.00113195
0.00483772
0.0012408
0.00577492
0.00132404
0.00644755
0.00138531
0.00698719
0.00142892
0.00756749
0.00145716
0.00823748
0.00146803
0.00875127
0.00145615
0.00863114
0.00141791
0.00746595
0.00135831
0.00516528
0.00129155
0.00203209
0.00123146
-0.00130156
0.00118368
-0.00414635
0.00114747
-0.00610962
0.00112013
-0.00718395
0.00109752
-0.00759105
-0.00761643
0.000665257
-0.00637131
0.000616168
-0.00614906
0.00057185
-0.00583067
0.000527051
-0.00545747
0.000473525
-0.00507624
0.000407658
-0.00473393
0.000345662
-0.00440094
0.000323973
-0.00389421
0.000372864
-0.00297339
0.000490757
-0.00156969
0.000650295
0.000136345
0.000821078
0.00187097
0.000981486
0.00342711
0.00111974
0.00469947
0.00123169
0.00566297
0.00131803
0.00636121
0.0013823
0.00692292
0.00142893
0.00752086
0.00146022
0.00820619
0.00147378
0.00873771
0.00146354
0.00864138
0.00142524
0.00750425
0.00136384
0.00522668
0.00129414
0.00210179
0.00123067
-0.00123809
0.00117961
-0.0040953
0.00114069
-0.0060707
0.00111143
-0.00715469
0.00108774
-0.00756735
-0.00759371
0.000666718
-0.00631358
0.000617461
-0.0060998
0.000573825
-0.00578704
0.000530972
-0.00541462
0.000480801
-0.00502606
0.00041802
-0.00467115
0.000355526
-0.00433844
0.000328023
-0.00386671
0.000368165
-0.00301353
0.000478671
-0.0016802
0.000634327
-1.93118e-05
0.000804373
0.00170092
0.000966156
0.00326533
0.00110696
0.00455866
0.00122194
0.005548
0.00131134
0.00627181
0.00137861
0.00685565
0.00142827
0.0074712
0.00146262
0.00817184
0.00147891
0.00872142
0.00147038
0.00864991
0.00143213
0.00754251
0.00136904
0.00528977
0.00129649
0.00217433
0.00122969
-0.00117129
0.00117538
-0.004041
0.00113376
-0.00602907
0.00110259
-0.00712352
0.00107782
-0.00754258
-0.00757052
0.000667633
-0.00625503
0.000618219
-0.00605039
0.000575218
-0.00574404
0.000534184
-0.00537358
0.00048731
-0.00497919
0.000427917
-0.00461175
0.000365629
-0.00427616
0.000333007
-0.00383409
0.000364573
-0.0030451
0.000467336
-0.00178296
0.000618589
-0.000170565
0.000787511
0.001532
0.000950416
0.00310243
0.00109362
0.00441546
0.00121154
0.00543008
0.00130398
0.00617937
0.00137424
0.00678539
0.00142693
0.00741851
0.00146435
0.00813442
0.00148342
0.00870235
0.00147668
0.00865664
0.00143857
0.00758062
0.0013739
0.00535444
0.0012986
0.00224963
0.00122852
-0.00110121
0.00117099
-0.00398346
0.00112667
-0.00598475
0.00109359
-0.00709044
0.00106775
-0.00751675
-0.00754689
0.000667995
0.000618438
-0.00600083
0.000576026
-0.00570163
0.000536682
-0.00533424
0.000493012
-0.00493552
0.000437243
-0.00455598
0.00037583
-0.00421474
0.000338818
-0.00379707
0.000362074
-0.00306836
0.000456793
-0.00187768
0.00060315
-0.000316922
0.000770535
0.00136462
0.000934291
0.00293867
0.00107973
0.00427002
0.0012005
0.0053093
0.00129594
0.00608393
0.00136917
0.00671216
0.00142488
0.0073628
0.00146538
0.00809392
0.00148727
0.00868046
0.00148242
0.0086615
0.00144456
0.00761848
0.00137842
0.00542058
0.00130048
0.00232756
0.00122719
-0.00102792
0.00116644
-0.00392271
0.00111943
-0.00593774
0.00108444
-0.00705546
0.00105754
-0.00748985
-0.00752282
0.000618112
-0.00595114
0.000576248
-0.00565976
0.000538466
-0.00529646
0.000497874
-0.00489493
0.000445906
-0.00450402
0.000385989
-0.00415482
0.000345341
-0.00375643
0.000360638
-0.00308365
0.000447082
-0.00196413
0.000588074
-0.000457914
0.000753493
0.0011992
0.000917809
0.00277435
0.0010653
0.00412252
0.00118883
0.00518577
0.00128721
0.00598555
0.0013634
0.00663597
0.00142213
0.00730408
0.00146571
0.00805033
0.00149046
0.00865572
0.00148758
0.00866438
0.00145008
0.00765598
0.00138259
0.00548807
0.00130213
0.00240802
0.00122569
-0.000951473
0.00116173
-0.00385875
0.00111203
-0.00588804
0.00107515
-0.00701858
0.00104719
-0.00746189
-0.00749835
0.000617239
-0.00590133
0.000575885
-0.00561841
0.00053954
-0.00526011
0.000501876
-0.00485726
0.000453821
-0.00445596
0.00039597
-0.00409697
0.000352452
-0.00371291
0.000360219
-0.00309142
0.000438243
-0.00204215
0.000573424
-0.000593094
0.000736441
0.00103618
0.000901004
0.00260979
0.00105036
0.00397317
0.00117653
0.0050596
0.0012778
0.00588428
0.00135692
0.00655684
0.00141865
0.00724235
0.00146533
0.00800365
0.00149297
0.00862807
0.00149214
0.00866521
0.00145512
0.007693
0.00138643
0.00555676
0.00130357
0.00249088
0.00122404
-0.00087194
0.00115687
-0.00379158
0.00110447
-0.00583565
0.0010657
-0.0069798
0.00103669
-0.00743288
-0.00747348
0.000615816