/*--------------------------------*- C++ -*----------------------------------*\
  =========                 |
  \\      /  F ield         | OpenFOAM: The Open Source CFD Toolbox
   \\    /   O peration     | Website:  https://openfoam.org
    \\  /    A nd           | Version:  7
     \\/     M anipulation  |
\*---------------------------------------------------------------------------*/
FoamFile
{
    version     2.0;
    format      ascii;
    class       surfaceScalarField;
    location    "280";
    object      phi;
}
// * * * * * * * * * * * * * * * * * * * * * * * * * * * * * * * * * * * * * //

dimensions      [0 3 -1 0 0 0 0];

internalField   nonuniform List<scalar> 
14027
(
-0.00177395
-0.000882259
-0.00172565
-0.000893127
-0.0016769
-0.000903709
-0.000864832
-0.00159638
-0.00162773
-0.000914003
-0.000874415
-0.00154773
-0.00157814
-0.000924004
-0.000883711
-0.00149869
-0.00152815
-0.00093371
-0.00089272
-0.00144925
-0.00147775
-0.000943117
-0.000851622
-0.0013729
-0.000901438
-0.00139943
-0.00142697
-0.000952222
-0.000859679
-0.00132366
-0.000909863
-0.00134925
-0.0013758
-0.000961023
-0.000867451
-0.00127407
-0.000917992
-0.00129871
-0.00132428
-0.000969516
-0.000874938
-0.00122414
-0.000925824
-0.00124782
-0.0012724
-0.0009777
-0.00083188
-0.00115218
-0.000882137
-0.00117388
-0.000933356
-0.0011966
-0.00122019
-0.000985571
-0.000838475
-0.00110254
-0.000889046
-0.00112331
-0.000940585
-0.00114507
-0.00116765
-0.000993128
-0.000844792
-0.0010526
-0.000895665
-0.00107244
-0.000947511
-0.00109322
-0.00111479
-0.00100037
-0.000850828
-0.00100237
-0.00090199
-0.00102127
-0.000954131
-0.00104108
-0.00106164
-0.00100729
-0.000856582
-0.000951876
-0.00090802
-0.000969836
-0.000960443
-0.000988654
-0.00100819
-0.00101389
-0.000811298
-0.000884911
-0.000862054
-0.000901121
-0.000913755
-0.000918134
-0.000966446
-0.000935963
-0.000954474
-0.00102016
-0.00081624
-0.000834818
-0.000867241
-0.00085012
-0.000919192
-0.000866183
-0.000972138
-0.000883017
-0.000900496
-0.00102612
-0.000820909
-0.000784496
-0.000872142
-0.000798886
-0.00092433
-0.000813995
-0.000977517
-0.000829829
-0.000846273
-0.00103174
-0.000825304
-0.000733959
-0.000876756
-0.000747434
-0.000929168
-0.000761583
-0.000982583
-0.000776415
-0.000791817
-0.00103704
-0.000829425
-0.000683219
-0.000881083
-0.000695776
-0.000933704
-0.000708962
-0.000987333
-0.000722786
-0.000737143
-0.00104201
-0.00083327
-0.000632291
-0.000885121
-0.000643925
-0.000937938
-0.000656146
-0.000991766
-0.000668958
-0.000682266
-0.00104664
-0.000836839
-0.000581186
-0.000888869
-0.000591895
-0.000941868
-0.000603147
-0.000995882
-0.000614944
-0.000627199
-0.00105095
-0.000788864
-0.000520615
-0.000840131
-0.000529919
-0.000892326
-0.000539701
-0.000945493
-0.000549979
-0.000999678
-0.000560758
-0.000571957
-0.00105492
-0.000791729
-0.000470085
-0.000843145
-0.000478502
-0.000895491
-0.000487355
-0.000948813
-0.000496658
-0.00100316
-0.000506415
-0.000516554
-0.00105856
-0.000794329
-0.000419421
-0.00084588
-0.000426951
-0.000898364
-0.000434871
-0.000951826
-0.000443196
-0.00100631
-0.00045193
-0.000461006
-0.00106186
-0.000796663
-0.000368638
-0.000848337
-0.000375278
-0.000900944
-0.000382263
-0.000954532
-0.000389608
-0.00100915
-0.000397315
-0.000405327
-0.00106483
-0.000798732
-0.000317749
-0.000850513
-0.000323497
-0.00090323
-0.000329546
-0.00095693
-0.000335909
-0.00101166
-0.000342587
-0.00034953
-0.00106745
-0.000800534
-0.000266767
-0.000852409
-0.000271621
-0.000905222
-0.000276733
-0.00095902
-0.000282111
-0.00101385
-0.000287759
-0.000293633
-0.00106975
-0.000802069
-0.000215705
-0.000854025
-0.000219666
-0.00090692
-0.000223838
-0.0009608
-0.000228231
-0.00101571
-0.000232846
-0.000237648
-0.0010717
-0.000803337
-0.000164578
-0.000855359
-0.000167644
-0.000908322
-0.000170876
-0.000962271
-0.000174281
-0.00101726
-0.000177862
-0.00018159
-0.00107331
-0.000804338
-0.0001134
-0.000856413
-0.000115569
-0.000909429
-0.00011786
-0.000963433
-0.000120277
-0.00101847
-0.000122823
-0.000125475
-0.00107459
-0.000805071
-6.21825e-05
-0.000857184
-6.34552e-05
-0.000910239
-6.48041e-05
-0.000964284
-6.62331e-05
-0.00101936
-6.77431e-05
-6.93182e-05
-0.00107552
-0.000805535
-1.0941e-05
-0.000857674
-1.13167e-05
-0.000910754
-1.17236e-05
-0.000964823
-1.2164e-05
-0.00101993
-1.26388e-05
-1.31432e-05
-0.0010761
-0.000805732
4.03113e-05
-0.000857882
4.08327e-05
-0.000910973
4.1368e-05
-0.000965054
4.19163e-05
-0.00102017
4.24766e-05
4.3045e-05
-0.00107636
-0.000805662
9.15607e-05
-0.000857808
9.29792e-05
-0.000910897
9.44567e-05
-0.000964974
9.59938e-05
-0.00102009
9.75895e-05
9.92326e-05
-0.00107627
-0.000805323
0.000142794
-0.000857452
0.000145109
-0.000910524
0.000147528
-0.000964584
0.000150054
-0.00101968
0.000152685
0.000155403
-0.00107585
-0.000804716
0.000193996
-0.000856815
0.000197208
-0.000909855
0.000200569
-0.000963884
0.000204083
-0.00101895
0.000207749
0.000211541
-0.00107509
-0.000803841
0.000245155
-0.000855896
0.000249263
-0.000908891
0.000253564
-0.000962874
0.000258065
-0.00101789
0.000262765
0.000267631
-0.00107398
-0.000802699
0.000296256
-0.000854695
0.000301259
-0.000907631
0.0003065
-0.000961554
0.000311988
-0.00101651
0.000317721
0.000323659
-0.00107254
-0.00080129
0.000347286
-0.000853214
0.000353183
-0.000906076
0.000359363
-0.000959924
0.000365836
-0.0010148
0.0003726
0.000379609
-0.00107075
-0.000799613
0.000398232
-0.000851451
0.000405021
-0.000904226
0.000412138
-0.000957985
0.000419594
-0.00101277
0.000427389
0.000435466
-0.00106863
-0.00079767
0.000449079
-0.000849408
0.000456759
-0.000902082
0.000464812
-0.000955738
0.00047325
-0.00101042
0.000482073
0.000491217
-0.00106617
-0.00079546
0.000499814
-0.000847085
0.000508384
-0.000899644
0.000517371
-0.000953182
0.000526789
-0.00100775
0.000536637
0.000546845
-0.00106337
-0.000792984
0.000550424
-0.000844482
0.000559882
-0.000896912
0.000569801
-0.000950319
0.000580196
-0.00100475
0.000591067
0.000602337
-0.00106024
-0.000790244
0.000600895
-0.000841601
0.000611239
-0.000893888
0.000622088
-0.000947149
0.000633457
-0.00100143
0.000645349
0.000657677
-0.00105677
-0.000787238
-0.000838441
0.000662442
-0.000890571
0.000674218
-0.000943673
0.000686559
-0.000997793
0.000699468
0.000712852
-0.00105297
-0.000835004
0.000713478
-0.000886963
0.000726178
-0.000939892
0.000739488
-0.000993835
0.000753411
0.000767847
-0.00104883
-0.000831289
0.000764333
-0.000883065
0.000777954
-0.000935807
0.000792229
-0.000989559
0.000807163
0.000822647
-0.00104436
-0.000827299
0.000814993
-0.000878878
0.000829533
-0.000931419
0.00084477
-0.000984966
0.000860711
0.000877238
-0.00103956
-0.000823033
0.000865447
-0.000874402
0.000880901
-0.000926728
0.000897097
-0.000980057
0.00091404
0.000931607
-0.00103443
-0.000818493
0.00091568
-0.000869638
0.000932046
-0.000921737
0.000949196
-0.000974834
0.000967137
0.000985739
-0.00102897
-0.00081368
0.000965679
-0.000864588
0.000982953
-0.000916445
0.00100105
-0.000969297
0.00101999
0.00103962
-0.00102318
-0.000808595
-0.000859253
0.00103361
-0.000910856
0.00105266
-0.000963448
0.00107258
0.00109324
-0.00101707
-0.000853633
0.00108401
-0.000904969
0.00110399
-0.000957289
0.0011249
0.00114658
-0.00101063
-0.000847731
0.00113413
-0.000898787
0.00115505
-0.000950821
0.00117693
0.00119963
-0.00100387
-0.000841547
0.00118396
-0.00089231
0.00120581
-0.000944046
0.00122867
0.00125237
-0.00099679
-0.000835084
0.00123349
-0.000885541
0.00125627
-0.000936966
0.0012801
0.0013048
-0.000989393
-0.000828342
-0.000878481
0.00130641
-0.000929583
0.0013312
0.00135689
-0.00098168
-0.000871132
0.00135622
-0.000921898
0.00138196
0.00140865
-0.000973652
-0.000863495
0.00140569
-0.000913913
0.00143238
0.00146005
-0.000965313
-0.000855573
0.0014548
-0.000905631
0.00148244
0.00151108
-0.000956664
-0.000847367
-0.000897054
0.00153213
0.00156174
-0.000947709
-0.000888183
0.00158143
0.001612
-0.000938449
-0.000879023
0.00163034
0.00166187
-0.000928888
-0.000869573
0.00167885
0.00171132
-0.000919027
-0.000859838
0.00176035
-0.000908871
0.00180896
-0.000898423
0.00185712
-0.000887685
-0.000876661
0.00448236
3.48188e-05
-3.32121e-05
0.00447773
9.30775e-05
-8.84511e-05
0.00447044
0.000141836
-0.00013454
0.00446064
0.00018401
-0.000174214
0.00444855
0.000222593
-0.000210499
0.0044343
0.000259583
-0.000245332
0.00441803
0.000296589
-0.000280322
0.00439988
0.0003348
-0.000316651
0.00437999
0.000375059
-0.000355167
0.00435851
0.000418021
-0.000396546
0.00433563
0.00046407
-0.000441185
0.00431155
0.000513512
-0.000489437
0.00428653
0.000566447
-0.000541427
0.00426089
0.000622947
-0.000597302
0.00423498
0.000682915
-0.000657001
0.00420925
0.000746232
-0.000720512
0.00418423
0.000812634
-0.00078761
0.00416056
0.000881784
-0.00085811
0.0041389
0.000953258
-0.000931605
0.00412016
0.00102641
-0.00100767
0.00410516
0.00110071
-0.00108571
0.0040951
0.00117495
-0.00116489
0.00409081
0.00124892
-0.00124462
0.00409406
0.00131991
-0.00132316
0.00410504
0.00138999
-0.00140097
0.00412752
0.00145069
-0.00147317
0.0015164
-0.00154684
0.00456719
3.63839e-05
0.00456264
9.76315e-05
0.00455546
0.000149018
0.00454582
0.000193651
0.00453393
0.000234484
0.00451994
0.000273567
0.00450402
0.000312509
0.00448632
0.000352498
0.00446701
0.000394374
0.00444627
0.00043876
0.00442431
0.000486028
0.0044014
0.000536426
0.00437781
0.000590032
0.00435392
0.000646833
0.00433014
0.000706701
0.00430698
0.000769395
0.00428498
0.00083463
0.00426487
0.000901896
0.00424733
0.000970798
0.00423331
0.00104042
0.0042236
0.00111043
0.00421945
0.0011791
0.00422149
0.00124687
0.0042316
0.00130981
0.00424959
0.00137199
0.00427907
0.00142121
0.00147761
0.00465363
3.79117e-05
0.00464918
0.00010208
0.00464215
0.000156045
0.00463273
0.000203077
0.00462111
0.000246096
0.00460749
0.000287195
0.00459202
0.000327977
0.00457489
0.000369627
0.00455628
0.000412978
0.00453643
0.000458618
0.00451555
0.000506902
0.00449396
0.000558021
0.00447196
0.000612025
0.00444998
0.000668814
0.00442845
0.000728232
0.00440793
0.000789917
0.00438899
0.000853568
0.00437238
0.000918511
0.00435879
0.00098439
0.00434916
0.00105004
0.00434425
0.00111534
0.00434526
0.0011781
0.00435272
0.00123941
0.00436828
0.00129424
0.00439178
0.00134849
0.00442559
0.0013874
0.00143514
0.0047417
3.93969e-05
0.00473737
0.000106406
0.00473053
0.000162886
0.00472137
0.00021224
0.0047101
0.00025737
0.0046969
0.00030039
0.00468197
0.000342905
0.00466552
0.000386086
0.00464774
0.000430757
0.00462888
0.00047747
0.00460923
0.000526559
0.00458909
0.000578157
0.00456883
0.000632284
0.00454889
0.000688758
0.00452973
0.000747391
0.00451193
0.000807713
0.00449609
0.000869408
0.00448295
0.000931655
0.00447319
0.000994147
0.00446773
0.00105551
0.00446725
0.00111582
0.00447283
0.00117251
0.00448497
0.00122727
0.00450495
0.00127427
0.00453268
0.00132076
0.0045694
0.00135068
0.00139006
0.00483144
4.08344e-05
0.00482726
0.000110593
0.00482063
0.000169512
0.00481177
0.000221103
0.00480088
0.000268253
0.00478818
0.00031309
0.00477387
0.000357218
0.00475817
0.000401789
0.00474131
0.000447616
0.00472357
0.000495211
0.00470524
0.000544888
0.00468668
0.000596719
0.00466826
0.000650696
0.00465046
0.00070656
0.00463376
0.000764091
0.00461875
0.000822723
0.00460603
0.00088213
0.00459632
0.000941368
0.00459028
0.00100019
0.00458875
0.00105703
0.00459238
0.00111219
0.00460208
0.00116281
0.00461828
0.00121108
0.00464189
0.00125065
0.00467293
0.00128971
0.00471194
0.00131168
0.00134305
0.00492289
4.22193e-05
0.00491885
0.000114627
0.00491247
0.000175898
0.00490394
0.000229631
0.00489349
0.000278701
0.00488134
0.000325242
0.0048677
0.000370853
0.00485283
0.000416664
0.00483697
0.000463474
0.00482043
0.000511755
0.00480352
0.000561798
0.00478662
0.000613619
0.00477013
0.000667179
0.00475455
0.000722148
0.00474036
0.000778281
0.00472815
0.000834926
0.00471853
0.000891758
0.00471216
0.000947729
0.00470969
0.00100265
0.00471188
0.00105485
0.00471927
0.0011048
0.00473264
0.00114944
0.00475234
0.00119138
0.00477896
0.00122403
0.0048126
0.00125607
0.0048533
0.00127098
0.00129501
0.00501606
4.35466e-05
0.0050122
0.000118494
0.00500607
0.000182022
0.00499791
0.000237792
0.00498794
0.000288674
0.00497639
0.000336796
0.00496349
0.000383752
0.0049495
0.000430646
0.00493472
0.000478262
0.00491944
0.000527031
0.00490402
0.000577219
0.00488885
0.000628789
0.00487435
0.000681675
0.00486102
0.000735481
0.00484936
0.000789945
0.00483994
0.000844341
0.00483335
0.000898353
0.00483022
0.000950857
0.00483114
0.00100174
0.00483676
0.00104922
0.00484759
0.00109397
0.00486419
0.00113283
0.00488688
0.00116869
0.00491597
0.00119493
0.00495159
0.00122045
0.0049934
0.00122917
0.00124662
0.00511101
4.48111e-05
0.00510732
0.000122179
0.00510148
0.000187858
0.00509372
0.000245556
0.00508426
0.000298132
0.00507335
0.000347707
0.00506124
0.000395864
0.0050482
0.000443681
0.00503454
0.000491922
0.0050206
0.00054098
0.00500672
0.000591095
0.00499333
0.000642182
0.00498085
0.000694149
0.00496979
0.000746545
0.00496064
0.000799096
0.00495396
0.000851016
0.0049503
0.000902011
0.00495026
0.0009509
0.00495435
0.000997648
0.00496314
0.00104043
0.00497704
0.00108007
0.00499648
0.0011134
0.00502169
0.00114349
0.00505277
0.00116386
0.00508982
0.0011834
0.00513227
0.00118672
0.00119834
0.00520775
4.60079e-05
0.00520426
0.00012567
0.00519873
0.000193385
0.0051914
0.000252891
0.00518249
0.000307039
0.00517226
0.000357933
0.00516098
0.000407143
0.00514895
0.000455718
0.00513646
0.000504404
0.00512389
0.000553553
0.0051116
0.000603385
0.00510002
0.000653766
0.00508958
0.000704587
0.00508077
0.000755349
0.0050741
0.000805773
0.00507008
0.00085503
0.00506924
0.000902855
0.0050721
0.000948036
0.00507914
0.000990616
0.0050908
0.00102877
0.00510743
0.00106344
0.00512931
0.00109152
0.0051566
0.0011162
0.00518922
0.00113123
0.00522727
0.00114535
0.00526998
0.00114401
0.00115049
0.00530632
4.7132e-05
0.00530304
0.000128951
0.00529785
0.000198581
0.00529097
0.000259771
0.00528265
0.000315361
0.00527314
0.000367434
0.00526274
0.000417545
0.00525175
0.000466714
0.00524049
0.000515665
0.00522932
0.000564714
0.00521865
0.000614059
0.00520889
0.000663527
0.00520048
0.000712994
0.00519391
0.000761922
0.00518965
0.000810037
0.00518819
0.000856482
0.00519002
0.000901029
0.0051956
0.000942458
0.00520533
0.000980888
0.00521957
0.00101453
0.00523859
0.00104442
0.00526253
0.00106758
0.0052915
0.00108722
0.00532528
0.00109745
0.00536393
0.00110671
0.0054066
0.00110134
0.00110336
0.00540677
4.81786e-05
0.00540371
0.000132011
0.00539886
0.000203424
0.00539247
0.000266166
0.00538477
0.000323065
0.00537603
0.000376174
0.00536654
0.000427033
0.00535662
0.00047663
0.00534662
0.00052567
0.0053369
0.000574433
0.00532786
0.000623099
0.00531992
0.000671462
0.00531353
0.000719387
0.00530914
0.00076631
0.00530721
0.000811968
0.0053082
0.000855492
0.00531253
0.000896693
0.00532062
0.000934373
0.00533279
0.000968716
0.00534931
0.000998002
0.00537039
0.00102335
0.00539604
0.00104192
0.00542633
0.00105694
0.00546093
0.00106285
0.00549985
0.00106778
0.0055422
0.00105899
0.00105715
0.00550911
4.9143e-05
0.00550629
0.000134836
0.00550182
0.000207894
0.00549593
0.000272053
0.00548888
0.00033012
0.00548093
0.00038412
0.00547239
0.000435573
0.00546358
0.000485435
0.00545486
0.000534392
0.0054466
0.000582692
0.0054392
0.0006305
0.00543308
0.000677582
0.00542867
0.000723801
0.0054264
0.000768576
0.00542671
0.00081166
0.00543001
0.000852191
0.00543668
0.000890022
0.00544706
0.000923994
0.00546142
0.000954356
0.00547994
0.00097948
0.00550276
0.00100053
0.0055298
0.00101488
0.00556107
0.00102567
0.00559617
0.00102775
0.00563509
0.00102886
0.00567691
0.00101717
0.00101203
0.0056134
5.00211e-05
0.00561082
0.000137415
0.00560674
0.000211973
0.00560138
0.000277407
0.00559501
0.000336498
0.00558788
0.000391243
0.00558032
0.000443135
0.00557265
0.000493103
0.00556523
0.00054181
0.00555845
0.000589481
0.00555268
0.000636266
0.00554835
0.000681912
0.00554587
0.000726283
0.00554565
0.000768794
0.00554809
0.00080922
0.00555356
0.000846722
0.00556239
0.000881194
0.00557485
0.000911537
0.00559114
0.000938056
0.00561139
0.000959237
0.00563564
0.000976279
0.00566378
0.000986741
0.00569574
0.000993709
0.00573108
0.000992411
0.00576975
0.000990184
0.00581085
0.000976081
0.000968143
0.00571965
5.08086e-05
0.00571733
0.000139736
0.00571366
0.000215644
0.00570886
0.000282205
0.00570318
0.000342177
0.00569691
0.000397517
0.00569035
0.000449696
0.00568384
0.000499613
0.00567774
0.000547914
0.00567242
0.000594799
0.00566827
0.00064041
0.0056657
0.000684484
0.00566509
0.000726889
0.00566684
0.00076705
0.00567129
0.000804766
0.00567878
0.000839234
0.00568958
0.000870392
0.0057039
0.000897216
0.0057219
0.00092006
0.0057436
0.000937532
0.00576903
0.000950854
0.00579798
0.000957787
0.00583037
0.000961323
0.00586571
0.000957068
0.00590395
0.000951946
0.00594418
0.000935855
0.000925573
0.00582792
5.15021e-05
0.00582587
0.000141791
0.00582262
0.000218891
0.0058184
0.000286431
0.00581344
0.000347134
0.00580804
0.000402921
0.0058025
0.000455237
0.00579716
0.000504952
0.00579237
0.000552698
0.00578852
0.000598654
0.00578597
0.000642958
0.00578511
0.000685343
0.00578631
0.00072569
0.00578992
0.00076344
0.00579626
0.000798423
0.00580562
0.000829882
0.00581821
0.000857802
0.00583418
0.000881241
0.00585364
0.000900597
0.00587656
0.000914611
0.00590291
0.000924509
0.00593244
0.000928257
0.00596503
0.000928735
0.00600018
0.000921917
0.00603781
0.00091431
0.00607706
0.00089661
0.000884387
0.00593824
5.20981e-05
0.00593646
0.000143569
0.00593365
0.0002217
0.00593002
0.000290066
0.0059258
0.000351351
0.00592128
0.000407438
0.00591678
0.000459745
0.00591261
0.000509115
0.00590915
0.000556165
0.00590674
0.000601062
0.00590575
0.000643942
0.00590655
0.000684543
0.00590948
0.000722761
0.00591486
0.000758066
0.00592296
0.000790319
0.00593402
0.000818823
0.00594822
0.000843605
0.00596564
0.000863814
0.00598635
0.000879889
0.00601026
0.0008907
0.0060373
0.000897471
0.00606719
0.000898366
0.00609978
0.000896144
0.00613458
0.000887124
0.00617148
0.000877406
0.00620966
0.000858433
0.000844627
0.00605065
5.25939e-05
0.00604915
0.000145063
0.00604679
0.00022406
0.00604376
0.000293097
0.0060403
0.000354815
0.00603668
0.000411057
0.00603321
0.000463212
0.00603023
0.000512102
0.00602806
0.000558327
0.00602708
0.000602048
0.00602761
0.000643405
0.00603001
0.000682147
0.00603458
0.000718188
0.00604161
0.000751037
0.00605134
0.00078059
0.00606395
0.000806213
0.00607958
0.000827979
0.00609826
0.000845129
0.00612001
0.000858139
0.00614471
0.000866005
0.00617223
0.000869943
0.0062023
0.000868303
0.00623473
0.000863716
0.00626902
0.000852827
0.00630509
0.000841337
0.00634214
0.000821385
0.000806311
0.00616518
5.29872e-05
0.00616397
0.000146268
0.00616207
0.000225962
0.00615966
0.000295513
0.00615696
0.000357515
0.00615424
0.00041377
0.00615182
0.000465638
0.00615
0.000513918
0.00614913
0.000559201
0.00614953
0.000601646
0.00615154
0.000641397
0.00615546
0.000678223
0.00616159
0.000712062
0.00617016
0.000742467
0.00618138
0.000769371
0.00619538
0.000792208
0.00621226
0.000811097
0.00623202
0.000825372
0.00625462
0.000835538
0.00627991
0.000840718
0.00630775
0.000842107
0.00633782
0.000838231
0.00636994
0.000831593
0.00640363
0.000819138
0.00643878
0.000806181
0.00647466
0.000785509
0.000769444
0.00628188
5.32759e-05
0.00628097
0.000147177
0.00627953
0.000227398
0.00627774
0.000297307
0.0062758
0.000359446
0.006274
0.000415576
0.00627261
0.000467026
0.00627195
0.000514577
0.00627234
0.000558813
0.00627409
0.000599894
0.00627751
0.000637974
0.00628289
0.000672847
0.00629047
0.00070448
0.00630047
0.000732471
0.00631304
0.000756796
0.00632829
0.000776961
0.00634626
0.000793124
0.00636692
0.000804715
0.00639019
0.000812263
0.0064159
0.000815008
0.00644389
0.000814122
0.00647383
0.000808294
0.00650552
0.000799894
0.00653852
0.000786146
0.0065727
0.000771996
0.00660738
0.000750829
0.000734015
0.00640078
5.34589e-05
0.00640017
0.000147788
0.0063992
0.000228364
0.00639803
0.000298475
0.00639687
0.000360606
0.00639597
0.000416476
0.00639561
0.000467386
0.00639609
0.0005141
0.00639771
0.000557195
0.00640076
0.00059684
0.00640554
0.0006332
0.00641228
0.000666101
0.00642122
0.00069554
0.00643252
0.000721168
0.00644632
0.000743001
0.00646266
0.000760618
0.00648157
0.000774218
0.00650296
0.00078332
0.00652675
0.000788475
0.00655273
0.00078903
0.00658072
0.00078613
0.0066104
0.000778613
0.00664158
0.000768717
0.0066738
0.000753922
0.00670698
0.000738823
0.00674045
0.000717355
0.000700001
0.00652193
5.35354e-05
0.00652162
0.000148099
0.00652112
0.000228858
0.00652058
0.000299016
0.00652019
0.000360997
0.00652019
0.000416479
0.00652084
0.000466733
0.00652243
0.000512512
0.00652524
0.000554385
0.00652954
0.000592535
0.0065356
0.000627143
0.00654363
0.000658071
0.00655382
0.000685346
0.00656632
0.000708676
0.0065812
0.000728118
0.00659849
0.000743324
0.00661818
0.000754529
0.00664017
0.000761338
0.00666432
0.000764319
0.00669043
0.00076292
0.00671831
0.000758252
0.00674763
0.000749289
0.00677821
0.00073814
0.00680961
0.000722519
0.00684175
0.000706686
0.00687402
0.000685085
0.000667373
0.00664537
5.35053e-05
0.00664536
0.000148109
0.00664534
0.00022888
0.00664542
0.000298933
0.00664579
0.000360627
0.00664667
0.000415599
0.00664831
0.00046509
0.00665098
0.000509844
0.00665494
0.000550427
0.00666044
0.000587038
0.0066677
0.000619878
0.00667693
0.000648845
0.00668827
0.000674001
0.00670184
0.000695112
0.00671768
0.000712275
0.00673579
0.000725212
0.00675613
0.000734195
0.00677856
0.000738908
0.00680295
0.000739929
0.00682907
0.000736799
0.00685673
0.000730594
0.00688561
0.000720409
0.00691552
0.000708228
0.00694606
0.000691976
0.00697715
0.0006756
0.00700822
0.000654009
0.000636096
0.00677114
5.33689e-05
0.00677143
0.00014782
0.00677188
0.000228434
0.00677258
0.000298231
0.0067737
0.000359505
0.00677545
0.000413851
0.00677806
0.000462482
0.00678177
0.000506132
0.00678682
0.00054537
0.00679345
0.000580412
0.00680185
0.00061148
0.00681218
0.000638513
0.00682457
0.00066161
0.00683909
0.000680592
0.00685577
0.000695597
0.00687457
0.000706414
0.00689542
0.000713347
0.00691817
0.000716155
0.00694268
0.000715423
0.0069687
0.000710774
0.00699605
0.000703246
0.00702441
0.000692044
0.00705361
0.00067903
0.00708327
0.00066232
0.0071133
0.000645569
0.0071432
0.000624109
0.000606127
0.00689929
5.31272e-05
0.00689987
0.000147234
0.00690078
0.000227524
0.00690209
0.00029692
0.00690395
0.000357647
0.00690654
0.000411258
0.00691009
0.00045894
0.0069148
0.00050142
0.0069209
0.000539268
0.00692859
0.000572723
0.00693804
0.000602029
0.00694938
0.000627169
0.00696272
0.000648275
0.00697808
0.000665228
0.00699548
0.000678201
0.00701484
0.00068705
0.00703608
0.000692106
0.00705904
0.000693195
0.00708356
0.000690907
0.0071094
0.000684937
0.00713636
0.000676285
0.00716415
0.000664252
0.0071926
0.000650582
0.00722135
0.000633568
0.00725033
0.000616586
0.00727908
0.000595361
0.000577424
0.00702985
5.27819e-05
0.00703073
0.000146357
0.0070321
0.00022616
0.007034
0.000295013
0.00703658
0.000355071
0.00703999
0.000407847
0.00704443
0.000454499
0.0070501
0.000495753
0.00705719
0.000532179
0.00706587
0.000564041
0.00707629
0.000591608
0.00708855
0.000614905
0.00710273
0.0006341
0.00711883
0.000649129
0.00713683
0.000660202
0.00715664
0.000667235
0.00717817
0.000670582
0.00720123
0.000670132
0.00722566
0.000666474
0.00725123
0.000659369
0.00727774
0.000649774
0.00730492
0.000637078
0.00733259
0.000622912
0.00736043
0.000605727
0.00738837
0.000588641
0.007416
0.000567737
0.00054994
0.00716289
5.23351e-05
0.00716405
0.000145194
0.00716586
0.000224351
0.00716834
0.000292525
0.00717161
0.000351801
0.00717581
0.000403648
0.00718111
0.000449201
0.00718768
0.00048918
0.0071957
0.000524163
0.0072053
0.000554438
0.00721661
0.000580298
0.00722971
0.000601812
0.00724462
0.000619183
0.00726135
0.0006324
0.00727985
0.000641707
0.00730001
0.000647073
0.00732171
0.000648877
0.00734479
0.000647059
0.00736905
0.000642206
0.00739428
0.000634137
0.00742029
0.000623765
0.00744681
0.000610558
0.00747369
0.000596038
0.00750061
0.000578798
0.00752754
0.000561718
0.00755407
0.000541205
0.00052363
0.00729843
5.17897e-05
0.00729987
0.000143754
0.00730211
0.000222111
0.00730516
0.000289477
0.0073091
0.000347862
0.00731405
0.000398696
0.00732016
0.000443087
0.00732759
0.000481755
0.00733646
0.000515284
0.00734692
0.000543987
0.00735903
0.000568183
0.00737286
0.000587982
0.00738842
0.000603623
0.00740568
0.000615142
0.00742457
0.000622816
0.00744498
0.000626665
0.00746677
0.000627083
0.00748977
0.00062406
0.0075138
0.000618177
0.00753864
0.000609301
0.0075641
0.000598304
0.00758994
0.000584721
0.007616
0.00056997
0.00764203
0.000552777
0.00766795
0.000535795
0.00769342
0.000515732
0.000498445
0.00743653
5.11489e-05
0.00743824
0.000142045
0.00744089
0.000219456
0.00744448
0.000285889
0.00744906
0.000343283
0.00745473
0.000393028
0.00746161
0.000436205
0.00746983
0.000473535
0.0074795
0.000505609
0.00749073
0.000532764
0.00750357
0.000555345
0.00751804
0.000573505
0.00753415
0.000587512
0.00755185
0.00059745
0.00757104
0.000603624
0.0075916
0.000606099
0.0076134
0.000605283
0.00763625
0.000601209
0.00765998
0.000594447
0.00768438
0.000584909
0.00770926
0.000573422
0.00773439
0.000559584
0.00775965
0.000544713
0.00778478
0.000527653
0.00780972
0.000510849
0.00783417
0.000491283
0.000474339
0.00757723
5.04166e-05
0.0075792
0.000140079
0.00758225
0.000216402
0.00758636
0.000281786
0.00759154
0.000338097
0.00759789
0.000386684
0.00760549
0.000428604
0.00761444
0.000464578
0.00762485
0.000495203
0.00763677
0.000520844
0.00765025
0.000541868
0.00766529
0.000558467
0.00768186
0.00057094
0.00769989
0.000579414
0.0077193
0.000584218
0.00773994
0.000585458
0.00776167
0.000583553
0.00778431
0.000578571
0.00780768
0.00057107
0.00783159
0.000561001
0.00785587
0.000549148
0.00788029
0.000535161
0.00790474
0.000520266
0.00792898
0.000503413
0.00795297
0.000486854
0.00797643
0.000467823
0.000451266
0.0077206
4.9597e-05
0.00772281
0.000137867
0.00772624
0.000212969
0.00773083
0.000277196
0.00773659
0.00033234
0.00774356
0.000379708
0.00775183
0.000420336
0.00776146
0.000454944
0.00777253
0.000484136
0.00778507
0.000508301
0.00779911
0.00052783
0.00781463
0.000542952
0.00783157
0.000553993
0.00784987
0.000561119
0.00786941
0.00056468
0.00789005
0.000564818
0.00791164
0.000561959
0.00793401
0.000556202
0.00795699
0.000548093
0.00798038
0.000537612
0.00800403
0.000525502
0.00802773
0.000511459
0.00805137
0.000496624
0.00807474
0.00048004
0.00809781
0.000463783
0.00812032
0.000445315
0.000429181
0.00786666
4.86949e-05
0.0078691
0.000135423
0.00787289
0.000209179
0.00787794
0.000272148
0.00788424
0.000326047
0.0078918
0.000372146
0.00790068
0.000411455
0.00791093
0.000444695
0.00792259
0.000472476
0.00793568
0.00049521
0.0079502
0.000513311
0.00796611
0.000527042
0.00798335
0.000536751
0.00800183
0.000542643
0.00802142
0.000545083
0.008042
0.000544246
0.00806339
0.00054056
0.00808544
0.000534152
0.00810798
0.000525552
0.00813083
0.000514766
0.00815383
0.000502497
0.00817681
0.000488482
0.00819966
0.000473777
0.00822218
0.000457516
0.00824436
0.000441607
0.00826595
0.000423724
0.000408041
0.00801548
4.77155e-05
0.00801814
0.000132761
0.00802227
0.000205055
0.00802774
0.000266673
0.00803453
0.000319259
0.00804263
0.000364044
0.00805207
0.000402015
0.00806288
0.000433891
0.00807506
0.00046029
0.00808863
0.000481644
0.00810355
0.000498386
0.00811978
0.000510812
0.00813724
0.000519292
0.00815583
0.00052406
0.00817541
0.000525497
0.00819586
0.000523803
0.00821701
0.00051941
0.00823869
0.000512465
0.00826077
0.00050348
0.00828305
0.000492486
0.0083054
0.000480143
0.00832765
0.000466227
0.00834972
0.000451715
0.00837141
0.000435821
0.00839272
0.000420298
0.00841343
0.000403014
0.000387804
0.00816711
4.66643e-05
0.00816997