/*--------------------------------*- C++ -*----------------------------------*\
  =========                 |
  \\      /  F ield         | OpenFOAM: The Open Source CFD Toolbox
   \\    /   O peration     | Website:  https://openfoam.org
    \\  /    A nd           | Version:  7
     \\/     M anipulation  |
\*---------------------------------------------------------------------------*/
FoamFile
{
    version     2.0;
    format      ascii;
    class       volVectorField;
    location    "280";
    object      U;
}
// * * * * * * * * * * * * * * * * * * * * * * * * * * * * * * * * * * * * * //

dimensions      [0 1 -1 0 0 0 0];

internalField   nonuniform List<vector> 
7156
(
(0.810532 0.270208 1.30905e-19)
(0.803356 0.264462 -1.42972e-19)
(0.796328 0.25851 7.32385e-20)
(0.777852 0.265043 -2.17475e-19)
(0.789453 0.252355 -6.13206e-21)
(0.770804 0.258379 -2.04228e-19)
(0.782736 0.246 2.21361e-19)
(0.763923 0.251511 3.35508e-19)
(0.776183 0.239449 1.65681e-19)
(0.757216 0.244445 1.84612e-19)
(0.769797 0.232707 -4.21238e-19)
(0.737037 0.249187 -2.87526e-19)
(0.750688 0.237184 -1.81292e-19)
(0.763585 0.225778 2.98132e-19)
(0.730362 0.241381 6.18398e-19)
(0.744344 0.229733 -5.2412e-20)
(0.757552 0.218667 -8.60208e-20)
(0.723887 0.23338 -1.53904e-19)
(0.738191 0.222096 -1.36725e-19)
(0.751701 0.211379 1.829e-19)
(0.717616 0.225191 -2.15214e-19)
(0.732233 0.21428 -3.0875e-20)
(0.74604 0.203918 -4.20991e-19)
(0.696184 0.227824 3.83477e-19)
(0.711557 0.216817 7.54085e-20)
(0.726476 0.206288 1.73344e-19)
(0.740571 0.196291 4.95326e-20)
(0.690016 0.218872 -1.5725e-20)
(0.705715 0.208265 8.55093e-20)
(0.720925 0.198128 -2.0932e-19)
(0.7353 0.188502 7.89053e-20)
(0.684082 0.209738 -1.67242e-19)
(0.700094 0.199541 -1.0012e-19)
(0.715586 0.189804 -5.45996e-20)
(0.730232 0.180557 2.14383e-19)
(0.678386 0.200428 -4.56569e-20)
(0.6947 0.190652 -6.57285e-21)
(0.710462 0.181323 2.60178e-20)
(0.725371 0.172462 -6.88909e-20)
(0.672935 0.190951 1.69015e-19)
(0.689538 0.181604 2.09038e-19)
(0.705559 0.172691 1.32155e-19)
(0.720721 0.164223 1.75547e-19)
(0.650058 0.19071 -1.53811e-19)
(0.667733 0.181312 -1.50344e-19)
(0.684614 0.172403 6.2292e-20)
(0.700881 0.163913 -1.90701e-19)
(0.716286 0.155846 -1.44738e-19)
(0.644833 0.180447 2.47529e-19)
(0.662786 0.171519 8.9904e-20)
(0.67993 0.163057 -3.99192e-20)
(0.696434 0.154998 3.96546e-20)
(0.71207 0.147338 1.36455e-19)
(0.639881 0.17003 -2.9526e-19)
(0.658098 0.16158 -6.31222e-20)
(0.675493 0.153572 -5.88106e-20)
(0.69222 0.145951 -8.10487e-20)
(0.708078 0.138705 -2.32064e-19)
(0.635207 0.159465 -6.68309e-20)
(0.653674 0.151502 -5.51084e-21)
(0.671306 0.143956 2.01113e-19)
(0.688244 0.136779 -2.13321e-20)
(0.704312 0.129954 -6.10103e-22)
(0.630815 0.148762 4.27645e-19)
(0.649518 0.141293 1.58121e-19)
(0.667374 0.134216 -2.50224e-19)
(0.68451 0.127489 2.6108e-19)
(0.700777 0.12109 3.70516e-20)
(0.62671 0.137928 -2.3726e-19)
(0.645634 0.130961 -1.14768e-19)
(0.663699 0.12436 1.66842e-19)
(0.681021 0.118089 -5.89454e-20)
(0.697475 0.112122 6.278e-20)
(0.622897 0.126973 6.79119e-20)
(0.642026 0.120514 1.55196e-19)
(0.660286 0.114395 -1.67825e-19)
(0.677781 0.108585 -7.41333e-20)
(0.694409 0.103056 3.08849e-20)
(0.599125 0.122179 -4.3952e-20)
(0.619377 0.115905 -9.83748e-20)
(0.638697 0.10996 -9.27822e-20)
(0.657138 0.104329 7.03384e-20)
(0.674793 0.0989854 -1.29313e-19)
(0.691583 0.0938993 -4.25776e-20)
(0.59572 0.110459 -1.25971e-19)
(0.616156 0.104732 7.837e-20)
(0.635651 0.0993076 8.88114e-21)
(0.654257 0.0941707 5.53312e-20)
(0.672059 0.0892975 4.52452e-20)
(0.688999 0.0846587 1.73051e-20)
(0.592633 0.0986371 1.39384e-20)
(0.613237 0.0934647 1.48218e-19)
(0.632891 0.0885653 6.23028e-20)
(0.651648 0.0839269 -1.5798e-19)
(0.669583 0.0795288 4.69398e-21)
(0.686659 0.0753417 8.65364e-21)
(0.589867 0.0867242 8.68418e-20)
(0.610622 0.0821108 -1.39339e-20)
(0.63042 0.0777416 1.76257e-20)
(0.649312 0.0736062 -1.52907e-20)
(0.667368 0.069687 -4.31671e-20)
(0.684566 0.0659556 -1.67036e-20)
(0.587424 0.0747298 -6.16164e-21)
(0.608314 0.0706799 -7.33495e-20)
(0.628239 0.0668453 -5.37818e-20)
(0.647252 0.0632168 4.43086e-20)
(0.665414 0.0597799 5.55076e-20)
(0.682721 0.0565078 4.01973e-20)
(0.585309 0.0626636 -1.13757e-19)
(0.606315 0.0591813 1.48373e-20)
(0.626351 0.055885 -2.37486e-20)
(0.645469 0.0527671 1.18336e-19)
(0.663725 0.0498155 -3.43338e-20)
(0.681128 0.0470057 -2.12103e-20)
(0.583521 0.0505356 9.6746e-21)
(0.604627 0.0476243 -1.24683e-19)
(0.624759 0.0448697 1.23561e-20)
(0.643967 0.0422654 -8.64165e-20)
(0.662301 0.0398016 4.96084e-20)
(0.679786 0.0374569 4.52565e-20)
(0.582065 0.0383557 6.86159e-20)
(0.603253 0.0360184 7.52791e-20)
(0.623463 0.0338082 -3.17241e-20)
(0.642745 0.03172 -4.87522e-20)
(0.661145 0.0297464 -3.44651e-20)
(0.678697 0.0278691 8.11009e-20)
(0.58094 0.0261339 -3.03915e-21)
(0.602194 0.024373 -2.69561e-20)
(0.622466 0.0227095 4.04991e-20)
(0.641806 0.0211396 2.39264e-21)
(0.660257 0.0196576 -2.09377e-20)
(0.677863 0.0182491 1.52369e-20)
(0.580149 0.0138803 -6.73468e-20)
(0.60145 0.0126977 -5.64324e-21)
(0.621768 0.0115827 1.39293e-21)
(0.64115 0.0105326 2.79476e-20)
(0.659639 0.00954367 1.95776e-20)
(0.677283 0.00860442 -1.12282e-20)
(0.579691 0.00160507 2.64728e-20)
(0.601023 0.00100204 -6.97118e-21)
(0.621369 0.000436767 3.70604e-20)
(0.640779 -9.21271e-05 -2.83791e-20)
(0.65929 -0.000586638 -9.42064e-21)
(0.676955 -0.00105333 -2.68287e-21)
(0.579569 -0.0106817 -1.53859e-21)
(0.600914 -0.0107044 -6.69379e-21)
(0.621272 -0.0107192 -1.279e-20)
(0.640692 -0.0107261 -3.15189e-21)
(0.659213 -0.0107253 2.14685e-21)
(0.676889 -0.0107174 -7.51849e-21)
(0.579782 -0.0229697 -2.37444e-21)
(0.601122 -0.0224119 -5.4808e-21)
(0.621475 -0.0218761 -1.14905e-20)
(0.640891 -0.021361 -3.41815e-21)
(0.659408 -0.020865 8.31267e-22)
(0.67708 -0.020384 -3.64724e-21)
(0.580329 -0.035249 2.54529e-20)
(0.601647 -0.0341111 3.37476e-21)
(0.621979 -0.033025 2.81293e-20)
(0.641374 -0.0319883 -2.4981e-20)
(0.659873 -0.0309975 -8.068e-21)
(0.677528 -0.0300443 -1.09768e-20)
(0.581211 -0.0475093 -3.99153e-20)
(0.602489 -0.0457922 1.31751e-20)
(0.622783 -0.0441569 -5.27731e-20)
(0.642142 -0.0425993 6.20701e-20)
(0.660609 -0.0411145 1.28356e-20)
(0.678231 -0.0396897 -7.55886e-21)
(0.582427 -0.0597405 2.94897e-20)
(0.603648 -0.0574458 -2.67933e-20)
(0.623887 -0.0552626 1.88768e-20)
(0.643195 -0.0531855 1.75228e-20)
(0.661615 -0.0512078 -1.02381e-20)
(0.67919 -0.0493126 -2.06254e-20)
(0.583976 -0.0719326 4.16311e-20)
(0.605122 -0.0690623 8.20532e-20)
(0.625289 -0.0663331 -5.85951e-20)
(0.64453 -0.0637385 6.91407e-21)
(0.662891 -0.0612694 -1.45361e-20)
(0.680404 -0.0589054 -1.51374e-20)
(0.585856 -0.0840754 -3.11756e-20)
(0.60691 -0.0806321 -6.92227e-20)
(0.62699 -0.0773595 -1.66021e-21)
(0.646147 -0.0742495 -8.79358e-20)
(0.664434 -0.0712912 5.63216e-20)
(0.681872 -0.0684604 8.08857e-20)
(0.588066 -0.0961589 -1.37844e-19)
(0.60901 -0.0921459 4.87797e-20)
(0.628986 -0.0883328 1.73091e-20)
(0.648045 -0.0847104 1.03549e-19)
(0.666245 -0.081265 -6.89875e-20)
(0.683593 -0.07797 -3.41851e-20)
(0.590604 -0.108173 1.76836e-20)
(0.611421 -0.103594 -8.72265e-20)
(0.631277 -0.0992442 -1.87691e-20)
(0.650222 -0.0951125 7.22647e-21)
(0.66832 -0.091183 9.1923e-20)
(0.685566 -0.0874267 3.38534e-20)
(0.593467 -0.120109 1.49612e-19)
(0.61414 -0.114968 -6.64338e-20)
(0.633859 -0.110085 7.73789e-20)
(0.652675 -0.105448 -7.76632e-20)
(0.670659 -0.101037 4.7883e-21)
(0.687787 -0.0968228 -4.55379e-20)
(0.596652 -0.131955 5.92809e-20)
(0.617165 -0.126257 6.93841e-20)
(0.636732 -0.120846 1.08605e-20)
(0.655404 -0.115708 2.57364e-21)
(0.673259 -0.11082 -6.83409e-20)
(0.690257 -0.106151 -1.72627e-20)
(0.600157 -0.143704 -1.32638e-19)
(0.620494 -0.137454 -4.6881e-20)
(0.639892 -0.131519 3.99098e-20)
(0.658404 -0.125884 6.00453e-20)
(0.676119 -0.120523 1.03766e-19)
(0.692973 -0.115404 2.98878e-20)
(0.603979 -0.155344 1.7968e-19)
(0.624122 -0.148548 -1.07833e-19)
(0.643337 -0.142096 -1.32397e-19)
(0.661675 -0.135969 -1.01222e-20)
(0.679234 -0.130139 -1.02558e-19)
(0.695931 -0.124574 -4.51909e-20)
(0.628047 -0.159532 9.51227e-20)
(0.647062 -0.152567 1.01074e-19)
(0.665212 -0.145955 -2.3306e-19)
(0.682603 -0.13966 -9.47374e-21)
(0.699131 -0.133655 4.26314e-21)
(0.632264 -0.170395 -2.39249e-19)
(0.651066 -0.162925 -8.30287e-20)
(0.669012 -0.155833 1.54746e-19)
(0.686223 -0.149079 -1.81351e-20)
(0.702569 -0.142638 -7.50616e-20)
(0.636771 -0.181131 3.12413e-19)
(0.655343 -0.173162 1.33071e-19)
(0.673072 -0.165596 -1.69469e-19)
(0.690089 -0.158389 1.71186e-19)
(0.706242 -0.151518 8.29022e-20)
(0.641563 -0.191729 -5.33777e-20)
(0.659891 -0.183269 -5.71592e-21)
(0.677389 -0.175237 1.78575e-19)
(0.6942 -0.167582 -5.61622e-20)
(0.710147 -0.160287 -1.32154e-19)
(0.646635 -0.202182 -2.46979e-19)
(0.664705 -0.193239 -9.0525e-20)
(0.681958 -0.184748 -3.04056e-20)
(0.698551 -0.176652 -1.21911e-19)
(0.714281 -0.168938 6.30333e-21)
(0.651982 -0.212482 2.98096e-19)
(0.669781 -0.203064 1.33967e-19)
(0.686775 -0.194122 -4.44988e-20)
(0.703137 -0.185591 1.03215e-19)
(0.718639 -0.177465 1.18077e-19)
(0.657601 -0.222621 -8.51631e-20)
(0.675113 -0.212736 -1.43079e-19)
(0.691836 -0.203351 4.84525e-20)
(0.707956 -0.194392 -2.25251e-19)
(0.72322 -0.185862 -1.81593e-19)
(0.680698 -0.222248 2.09328e-19)
(0.697137 -0.212429 1.22523e-19)
(0.713003 -0.203049 2.07592e-19)
(0.728017 -0.194121 2.02097e-19)
(0.68653 -0.231594 -1.35737e-19)
(0.702672 -0.221348 1.4275e-19)
(0.718272 -0.211556 -5.91954e-20)
(0.733028 -0.202237 -1.25559e-19)
(0.692603 -0.240765 -3.43059e-19)
(0.708437 -0.230103 -1.39427e-19)
(0.723761 -0.219907 4.10623e-20)
(0.738249 -0.210204 1.31008e-19)
(0.698913 -0.249756 2.66226e-20)
(0.714426 -0.238687 -2.00862e-19)
(0.729463 -0.228094 -4.61346e-20)
(0.743674 -0.218015 3.04558e-20)
(0.705454 -0.258559 1.19559e-20)
(0.720635 -0.247094 3.10136e-20)
(0.735373 -0.236113 4.00509e-19)
(0.749299 -0.225666 -6.50369e-20)
(0.727058 -0.255317 -1.95235e-20)
(0.741488 -0.243958 -1.93656e-20)
(0.75512 -0.23315 -2.8699e-19)
(0.733688 -0.263352 -2.97707e-19)
(0.7478 -0.251623 -7.85879e-20)
(0.761131 -0.240462 1.9692e-19)
(0.740521 -0.271192 5.51768e-19)
(0.754305 -0.259103 -8.06891e-20)
(0.767329 -0.247597 -5.32773e-20)
(0.74755 -0.278832 -2.20416e-19)
(0.760998 -0.266393 -1.92015e-19)
(0.773707 -0.25455 2.13356e-19)
(0.767872 -0.273488 1.01263e-19)
(0.780261 -0.261316 -3.37266e-19)
(0.774922 -0.280385 2.15047e-19)
(0.786985 -0.267891 1.16901e-19)
(0.782142 -0.287078 -3.75686e-20)
(0.793875 -0.27427 1.03497e-19)
(0.789526 -0.293563 1.67112e-20)
(0.800925 -0.28045 -8.09038e-20)
(0.808129 -0.286427 -5.94993e-20)
(0.815484 -0.292196 -1.37176e-19)
(0.822982 -0.297756 4.15197e-21)
(0.999987 0.00163394 0)
(0.999297 0.00457991 0)
(0.997956 0.00732665 0)
(0.996047 0.00997693 0)
(0.993601 0.0126736 0)
(0.990664 0.0155253 0)
(0.987257 0.0186412 0)
(0.98342 0.0221223 0)
(0.979173 0.0260628 0)
(0.974561 0.0305591 0)
(0.969606 0.0356992 0)
(0.964368 0.0415785 0)
(0.95888 0.0482835 0)
(0.953227 0.0559108 0)
(0.947454 0.0645465 0)
(0.94169 0.0742874 0)
(0.935992 0.0852143 0)
(0.930556 0.0974163 0)
(0.925436 0.110958 0)
(0.920937 0.125904 0)
(0.917058 0.142287 0)
(0.91431 0.160111 0)
(0.912486 0.179384 0)
(0.912553 0.199947 0)
(0.913654 0.221923 0)
(0.917967 0.244547 0)
(0.922712 0.269215 0)
(0.999989 0.00170687 0)
(0.999323 0.00480394 0)
(0.998029 0.0076978 0)
(0.996184 0.0105013 0)
(0.993822 0.0133533 0)
(0.990989 0.0163653 0)
(0.987712 0.019645 0)
(0.984032 0.0232925 0)
(0.979976 0.0274009 0)
(0.975591 0.0320627 0)
(0.97091 0.0373636 0)
(0.965996 0.0433919 0)
(0.960892 0.0502293 0)
(0.955693 0.0579608 0)
(0.95045 0.0666648 0)
(0.945306 0.0764191 0)
(0.940323 0.0872947 0)
(0.935712 0.0993506 0)
(0.931522 0.112643 0)
(0.928081 0.127186 0)
(0.925361 0.143021 0)
(0.923911 0.160056 0)
(0.923437 0.178369 0)
(0.924999 0.197568 0)
(0.927517 0.218116 0)
(0.933435 0.238422 0)
(0.939283 0.261324 -1.33353e-28)
(0.999989 0.00177986 0)
(0.999352 0.00502805 0)
(0.99811 0.00807046 0)
(0.996339 0.0110284 0)
(0.994073 0.0140376 0)
(0.99136 0.0172114 0)
(0.98823 0.0206565 0)
(0.984727 0.024472 0)
(0.980882 0.0287494 0)
(0.976748 0.0335776 0)
(0.972362 0.0390393 0)
(0.967797 0.0452155 0)
(0.963098 0.0521827 0)
(0.958368 0.0600135 0)
(0.953667 0.0687781 0)
(0.949143 0.0785344 0)
(0.944859 0.0893426 0)
(0.941037 0.10123 0)
(0.937718 0.114245 0)
(0.935241 0.128349 0)
(0.933549 0.143592 0)
(0.933208 0.159787 0)
(0.933857 0.17709 0)
(0.936591 0.194878 0)
(0.94019 0.213928 0)
(0.947138 0.232018 0)
(0.953719 0.252871 0)
(0.99999 0.00185198 0)
(0.999382 0.00524913 0)
(0.998197 0.00843803 0)
(0.996505 0.0115465 0)
(0.994344 0.0147083 0)
(0.991763 0.0180377 0)
(0.988792 0.0216409 0)
(0.98548 0.0256154 0)
(0.981863 0.0300514 0)
(0.977998 0.0350338 0)
(0.973926 0.0406422 0)
(0.969725 0.0469505 0)
(0.965448 0.0540296 0)
(0.961202 0.0619405 0)
(0.95705 0.0707447 0)
(0.953146 0.080482 0)
(0.949553 0.0912019 0)
(0.946495 0.102904 0)
(0.944003 0.115628 0)
(0.942418 0.129292 0)
(0.941656 0.143953 0)
(0.942279 0.159347 0)
(0.943889 0.175692 0)
(0.947538 0.192203 0)
(0.951996 0.209864 0)
(0.959562 0.226139 0)
(0.966755 0.245129 0)
(0.99999 0.00192204 0)
(0.999413 0.00546373 0)
(0.998287 0.00879485 0)
(0.996679 0.0120484 0)
(0.99463 0.0153564 0)
(0.992187 0.0188336 0)
(0.989385 0.0225852 0)
(0.986276 0.0267069 0)
(0.982897 0.0312868 0)
(0.979313 0.0364056 0)
(0.975567 0.0421391 0)
(0.971744 0.0485536 0)
(0.967897 0.0557141 0)
(0.964142 0.0636696 0)
(0.96054 0.0724729 0)
(0.957251 0.0821463 0)
(0.954333 0.0927286 0)
(0.95201 0.104194 0)
(0.950302 0.116575 0)
(0.94954 0.12975 0)
(0.949627 0.143786 0)
(0.951089 0.158355 0)
(0.953525 0.173727 0)
(0.957892 0.189007 0)
(0.963037 0.205314 0)
(0.970976 0.219979 0)
(0.978641 0.237242 0)
(0.999991 0.00198966 0)
(0.999445 0.00567075 0)
(0.99838 0.00913921 0)
(0.996861 0.0125319 0)
(0.994927 0.0159796 0)
(0.992628 0.0195965 0)
(0.990002 0.0234867 0)
(0.987103 0.0277433 0)
(0.983971 0.032452 0)
(0.980675 0.0376886 0)
(0.977263 0.0435247 0)
(0.973822 0.0500188 0)
(0.97041 0.0572289 0)
(0.967144 0.0651927 0)
(0.964088 0.0739534 0)
(0.961399 0.0835166 0)
(0.959133 0.0939109 0)
(0.957507 0.105088 0)
(0.956536 0.117071 0)
(0.956525 0.129708 0)
(0.957377 0.143073 0)
(0.959561 0.156789 0)
(0.962702 0.171167 0)
(0.967627 0.185244 0)
(0.973306 0.200222 0)
(0.981453 0.213397 0)
(0.989415 0.229008 0)
(0.999992 0.00205461 0)
(0.999478 0.00586964 0)
(0.998477 0.00947017 0)
(0.997048 0.0129959 0)
(0.995233 0.0165762 0)
(0.993083 0.0203242 0)
(0.990638 0.0243426 0)
(0.987954 0.0287213 0)
(0.985075 0.0335433 0)
(0.982072 0.0388793 0)
(0.978996 0.0447957 0)
(0.975939 0.0513433 0)
(0.972959 0.0585731 0)
(0.970175 0.0665108 0)
(0.967652 0.0751908 0)
(0.965541 0.0846027 0)
(0.963898 0.0947657 0)
(0.962925 0.10561 0)
(0.962635 0.117154 0)
(0.963303 0.129219 0)
(0.964834 0.141885 0)
(0.967634 0.154741 0)
(0.971362 0.168127 0)
(0.976716 0.181051 0)
(0.98279 0.194747 0)
(0.99102 0.206553 0)
(0.999127 0.220607 0)
(0.999992 0.00211667 0)
(0.999512 0.00605976 0)
(0.998576 0.00978659 0)
(0.99724 0.0134386 0)
(0.995547 0.0171439 0)
(0.99355 0.0210139 0)
(0.991289 0.0251494 0)
(0.988824 0.029637 0)
(0.9862 0.0345565 0)
(0.983492 0.0399728 0)
(0.980753 0.0459475 0)
(0.978076 0.0525231 0)
(0.975523 0.0597433 0)
(0.973209 0.0676227 0)
(0.9712 0.076187 0)
(0.96964 0.0854108 0)
(0.968585 0.0953051 0)
(0.968218 0.105782 0)
(0.96855 0.116855 0)
(0.969822 0.128326 0)
(0.971947 0.14028 0)
(0.975265 0.152284 0)
(0.979472 0.1647 0)
(0.985143 0.176529 0)
(0.991493 0.189011 0)
(0.999706 0.19957 0)
(1.00785 0.212189 0)
(0.999993 0.00217561 0)
(0.999547 0.0062404 0)
(0.998677 0.0100872 0)
(0.997436 0.0138584 0)
(0.995869 0.0176804 0)
(0.994027 0.0216628 0)
(0.991953 0.0259039 0)
(0.989708 0.0304868 0)
(0.987341 0.0354874 0)
(0.984927 0.0409652 0)
(0.982523 0.0469762 0)
(0.98022 0.0535547 0)
(0.978083 0.0607374 0)
(0.976223 0.068528 0)
(0.974706 0.076944 0)
(0.973667 0.0859469 0)
(0.97316 0.0955401 0)
(0.973347 0.10562 0)
(0.97424 0.1162 0)
(0.976044 0.127063 0)
(0.978679 0.138301 0)
(0.982424 0.149473 0)
(0.98701 0.160948 0)
(0.992903 0.171749 0)
(0.999426 0.183091 1.6674e-28)
(1.00755 0.192519 -1.74833e-28)
(1.01564 0.20383 0)
(0.999994 0.00223118 0)
(0.999582 0.00641086 0)
(0.99878 0.0103709 0)
(0.997637 0.0142536 0)
(0.996196 0.0181838 0)
(0.994511 0.0222683 0)
(0.992626 0.0266032 0)
(0.990602 0.0312674 0)
(0.988492 0.0363329 0)
(0.98637 0.0418532 0)
(0.984295 0.0478787 0)
(0.982358 0.054436 0)
(0.980623 0.0615546 0)
(0.979199 0.0692281 0)
(0.978148 0.0774666 0)
(0.977596 0.0862196 0)
(0.977594 0.0954847 0)
(0.978283 0.105146 0)
(0.979676 0.115215 0)
(0.98194 0.125466 0)
(0.985005 0.135992 0)
(0.989093 0.146358 0)
(0.993968 0.15693 0)
(0.999999 0.166767 0)
(1.00661 0.177048 0)
(1.01458 0.185454 0)
(1.02255 0.195575 0)
(0.999995 0.00228314 0)
(0.999619 0.00657047 0)
(0.998885 0.0106365 0)
(0.99784 0.0146227 0)
(0.996528 0.0186519 0)
(0.995001 0.0228283 0)
(0.993305 0.0272447 0)
(0.991502 0.0319761 0)
(0.989647 0.0370901 0)
(0.987812 0.0426342 0)
(0.98606 0.0486535 0)
(0.984478 0.0551664 0)
(0.98313 0.0621961 0)
(0.982119 0.0697266 0)
(0.981507 0.0777615 0)
(0.981407 0.0862401 0)
(0.981865 0.0951549 0)
(0.983005 0.104382 0)
(0.984835 0.113929 0)
(0.987492 0.12357 0)
(0.990911 0.133398 0)
(0.995266 0.142986 0)
(1.00035 0.152699 0)
(1.00645 0.161639 0)
(1.01308 0.170938 0)
(1.02084 0.17842 0)
(1.02864 0.187463 0)
(0.999996 0.00233128 0)
(0.999655 0.00671858 0)
(0.998991 0.0108829 0)
(0.998045 0.0149641 0)
(0.996862 0.019083 0)
(0.995494 0.0233404 0)
(0.993987 0.0278261 0)
(0.992404 0.0326105 0)
(0.9908 0.0377568 0)
(0.989248 0.0433066 0)
(0.987809 0.0492994 0)
(0.986569 0.0557463 0)
(0.985591 0.0626641 0)
(0.984971 0.0700285 0)
(0.984767 0.077837 0)
(0.985081 0.086021 0)
(0.985955 0.0945686 0)
(0.987493 0.10335 0)
(0.989702 0.112373 0)
(0.992688 0.121411 0)
(0.996392 0.130558 0)
(1.00094 0.139405 0)
(1.00617 0.148305 0)
(1.01227 0.156414 0)
(1.01886 0.164807 0)
(1.02638 0.171459 0)
(1.03397 0.179529 0)
(0.999996 0.00237539 0)
(0.999692 0.00685457 0)
(0.999097 0.011109 0)
(0.998251 0.0152766 0)
(0.997198 0.0194754 0)
(0.995988 0.0238029 0)
(0.99467 0.0283454 0)
(0.993304 0.0331686 0)
(0.991946 0.0383313 0)
(0.990669 0.0438693 0)
(0.989534 0.0498165 0)
(0.988621 0.0561771 0)
(0.987994 0.0629621 0)
(0.987739 0.0701401 0)
(0.987913 0.077703 0)
(0.988604 0.0855763 0)
(0.98985 0.0937445 0)
(0.991737 0.102076 0)
(0.994267 0.110576 0)
(0.997523 0.119025 0)
(1.00145 0.127515 0)
(1.00614 0.135657 0)
(1.01143 0.143793 0)
(1.01749 0.151134 7.00994e-29)
(1.02399 0.158698 -7.35159e-29)
(1.03125 0.164603 5.39427e-29)
(1.03859 0.171798 -5.65481e-29)
(0.999997 0.00241525 0)
(0.999729 0.00697788 0)
(0.999204 0.011314 0)
(0.998458 0.0155588 0)
(0.997534 0.0198276 0)
(0.996482 0.024214 0)
(0.995349 0.0288008 0)
(0.994197 0.0336488 0)
(0.993081 0.0388125 0)
(0.99207 0.0443218 0)
(0.991226 0.0502054 0)
(0.990625 0.0564612 0)
(0.990328 0.0630948 0)
(0.990413 0.0700686 0)
(0.990933 0.0773702 0)
(0.991963 0.0849207 0)
(0.993539 0.0927019 0)
(0.995725 0.100582 0)
(0.998525 0.108567 0)
(1.00199 0.116443 0)
(1.00609 0.124303 0)
(1.01086 0.13178 0)
(1.01618 0.139203 0)
(1.02215 0.145837 0)
(1.02851 0.152644 0)
(1.03549 0.157879 0)
(1.04256 0.164289 0)
(0.999998 0.00245069 0)
(0.999766 0.00708797 0)
(0.999311 0.011497 0)
(0.998664 0.0158096 0)
(0.997869 0.0201382 0)
(0.996972 0.0245724 0)
(0.996023 0.0291909 0)
(0.995079 0.0340502 0)
(0.994197 0.0391998 0)
(0.993443 0.0446645 0)
(0.992878 0.0504677 0)
(0.992572 0.0566019 0)
(0.992583 0.0630676 0)
(0.992982 0.0698225 0)
(0.993816 0.0768502 0)
(0.995149 0.0840695 0)
(0.997012 0.0914602 0)
(0.999453 0.0988933 0)
(1.00247 0.106373 0)
(1.00611 0.113698 0)
(1.01031 0.120957 0)
(1.01512 0.127809 0)
(1.02042 0.134569 0)
(1.02627 0.140556 0)
(1.03247 0.146673 0)
(1.03915 0.151309 0)
(1.04594 0.157016 -4.57668e-29)
(0.999999 0.00248154 0)
(0.999803 0.00718438 0)
(0.999417 0.0116571 0)
(0.998869 0.016028 0)
(0.9982 0.020406 0)
(0.997457 0.0248767 0)
(0.996687 0.0295148 0)
(0.995946 0.0343719 0)
(0.995291 0.0394932 0)
(0.994783 0.0448982 0)
(0.994483 0.0506057 0)
(0.994453 0.0566032 0)
(0.99475 0.0628869 0)
(0.995436 0.0694107 0)
(0.996553 0.0761552 0)
(0.998154 0.0830385 0)
(1.00026 0.090039 0)
(1.00292 0.0970316 0)
(1.00611 0.104021 0)
(1.00987 0.110817 0)
(1.01414 0.117508 0)
(1.01894 0.123776 0)
(1.02419 0.129921 0)
(1.02989 0.135317 0)
(1.0359 0.140808 0)
(1.04228 0.14491 0)
(1.04878 0.149988 0)
(1 0.00250766 0)
(0.99984 0.00726669 0)
(0.999522 0.0117938 0)
(0.999071 0.0162132 0)
(0.998527 0.0206303 0)
(0.997934 0.0251263 0)
(0.997338 0.0297718 0)
(0.996794 0.0346139 0)
(0.996356 0.0396932 -9.95939e-28)
(0.996084 0.0450246 1.04604e-27)
(0.996032 0.0506224 0)
(0.996261 0.0564699 0)
(0.996822 0.0625596 0)
(0.997767 0.0688429 0)
(0.999136 0.075298 0)
(1.00097 0.0818434 0)
(1.00329 0.0884572 0)
(1.00612 0.0950196 0)
(1.00945 0.101536 0)
(1.01328 0.107828 0)
(1.01759 0.113983 0)
(1.02235 0.119707 0)
(1.02751 0.125286 0)
(1.03304 0.130143 0)
(1.03884 0.135067 0)
(1.04492 0.138694 0)
(1.05113 0.143211 0)
(1 0.00252892 0)
(0.999876 0.00733455 0)
(0.999625 0.0119064 0)
(0.99927 0.0163645 0)
(0.998848 0.0208102 0)
(0.998401 0.0253204 0)
(0.997975 0.0299616 0)
(0.99762 0.0347762 0)
(0.99739 0.0398007 0)
(0.997339 0.0450457 0)
(0.997521 0.0505213 0)
(0.997989 0.0562075 0)
(0.99879 0.0620936 0)
(0.999969 0.0681294 0)
(1.00156 0.0742915 0)
(1.0036 0.0805001 0)
(1.00609 0.0867336 0)
(1.00905 0.0928783 0)
(1.01248 0.0989402 0)
(1.01636 0.104755 0)
(1.02066 0.110407 0)
(1.02536 0.115627 0)
(1.03041 0.120685 0)
(1.03575 0.125052 0)
(1.04134 0.129464 0)
(1.04711 0.132668 0)
(1.05303 0.136685 0)
(1 0.00254522 0)
(0.999911 0.00738767 0)
(0.999726 0.0119946 0)
(0.999465 0.0164814 0)
(0.999162 0.0209453 0)
(0.998856 0.0254589 0)
(0.998593 0.0300842 0)
(0.998419 0.0348597 0)
(0.998386 0.0398175 0)
(0.998545 0.0449643 0)
(0.998944 0.0503068 0)
(0.999631 0.055822 0)
(1.00065 0.0614968 0)
(1.00204 0.0672805 0)
(1.00382 0.0731487 0)
(1.00603 0.0790241 0)
(1.00866 0.0848859 0)
(1.01173 0.0906275 0)
(1.01522 0.0962561 0)
(1.01912 0.101621 0)
(1.02339 0.106802 0)
(1.028 0.111556 0)
(1.03291 0.116137 0)
(1.03806 0.12006 0)
(1.04343 0.124011 0)
(1.0489 0.126839 0)
(1.05453 0.13041 0)
(1 0.00255649 0)
(0.999945 0.00742585 0)
(0.999824 0.012058 0)
(0.999654 0.0165636 0)
(0.999466 0.0210354 0)
(0.999297 0.0255417 0)
(0.99919 0.0301402 0)
(0.999189 0.0348654 0)
(0.999342 0.0397454 0)
(0.999695 0.0447836 0)
(1.00029 0.0499834 0)
(1.00118 0.0553199 0)
(1.0024 0.0607779 0)
(1.00397 0.066307 0)
(1.00592 0.0718824 0)
(1.00826 0.0774304 0)
(1.01101 0.0829313 0)
(1.01415 0.088286 0)
(1.01768 0.0935029 0)
(1.02156 0.098444 0)
(1.02578 0.103188 0)
(1.03029 0.107512 0)
(1.03505 0.111656 0)
(1.04 0.115178 0)
(1.04513 0.118714 0)
(1.05032 0.121208 0)
(1.05566 0.124384 0)
(1 0.00256267 0)
(0.999979 0.00744894 0)
(0.99992 0.0120965 0)
(0.999837 0.016611 0)
(0.99976 0.0210805 0)
(0.999722 0.0255691 0)
(0.999764 0.0301304 0)
(0.999926 0.0347949 0)
(1.00025 0.039587 0)
(1.00079 0.0445074 5.205e-28)
(1.00157 0.0495565 -5.4666e-28)
(1.00264 0.0547081 0)
(1.00403 0.0599457 0)
(1.00576 0.0652196 0)
(1.00785 0.0705056 0)
(1.0103 0.0757338 0)
(1.01314 0.0808861 0)
(1.01632 0.085871 0)
(1.01986 0.0906986 0)
(1.02371 0.0952432 0)
(1.02786 0.0995814 0)
(1.03224 0.10351 0)
(1.03685 0.107256 0)
(1.04159 0.110416 0)
(1.04649 0.113579 -3.94938e-29)
(1.0514 0.115778 4.14098e-29)
(1.05646 0.118601 0)
(1 0.00256376 0)
(1.00001 0.00745691 0)
(1.00001 0.01211 0)
(1.00001 0.0166235 0)
(1.00004 0.0210808 0)
(1.00013 0.0255419 0)
(1.00031 0.030056 0)
(1.00063 0.0346501 0)
(1.00112 0.0393453 0)
(1.00182 0.0441397 0)
(1.00277 0.0490316 0)
(1.004 0.0539938 0)
(1.00554 0.059009 0)
(1.0074 0.0640292 0)
(1.00961 0.0690308 0)
(1.01216 0.0739483 0)
(1.01504 0.0787655 0)
(1.01826 0.0833988 0)
(1.02178 0.0878596 0)
(1.02558 0.0920341 0)
(1.02963 0.0959967 0)
(1.03388 0.0995635 0)
(1.03832 0.102947 0)
(1.04286 0.10578 0)
(1.04754 0.108608 0)
(1.05217 0.110546 0)
(1.05696 0.113056 0)
(1 0.00255974 0)
(1.00004 0.00744977 0)
(1.0001 0.0120986 0)
(1.00018 0.0166014 0)
(1.00031 0.0210369 0)
(1.00052 0.0254608 0)
(1.00083 0.0299184 0)
(1.00129 0.0344333 0)
(1.00193 0.0390236 0)
(1.00278 0.0436852 0)
(1.00388 0.0484146 0)
(1.00526 0.0531845 0)
(1.00693 0.057977 0)
(1.0089 0.0627463 0)
(1.0112 0.06747 0)
(1.01382 0.0720872 0)
(1.01674 0.0765839 0)
(1.01996 0.080884 0)
(1.02345 0.0850003 0)
(1.02718 0.0888307 0)
(1.03113 0.0924465 0)
(1.03524 0.0956821 0)
(1.03951 0.0987367 0)
(1.04384 0.101275 0)
(1.04829 0.103803 0)
(1.05267 0.10551 2.6486e-29)
(1.0572 0.107742 -2.77647e-29)
(1 0.00255066 0)
(1.00007 0.00742764 0)
(1.00018 0.0120626 0)
(1.00034 0.0165453 0)
(1.00057 0.0209496 0)
(1.00089 0.0253272 0)
(1.00132 0.0297195 0)
(1.00191 0.0341472 0)
(1.00269 0.0386254 0)
(1.00368 0.0431486 0)
(1.00491 0.0477117 0)
(1.00641 0.0522876 0)
(1.00819 0.0568587 -6.48951e-28)
(1.01027 0.0613814 6.81451e-28)
(1.01264 0.0658349 0)
(1.01529 0.0701631 0)
(1.01824 0.0743544 0)
(1.02144 0.07834 0)
(1.02488 0.0821341 0)
(1.02853 0.0856449 0)
(1.03237 0.0889417 0)
(1.03633 0.0918747 0)
(1.04043 0.0946308 0)
(1.04455 0.0969042 -1.84167e-29)
(1.04878 0.0991639 1.9314e-29)
(1.05291 0.100666 0)
(1.0572 0.102652 0)
(1 0.00253658 0)
(1.0001 0.0073907 0)
(1.00026 0.0120023 0)
(1.0005 0.0164556 0)
(1.00081 0.0208198 0)
(1.00123 0.0251426 0)
(1.00178 0.0294616 0)
(1.00249 0.0337948 0)
(1.00339 0.0381549 0)
(1.00451 0.0425351 0)
(1.00586 0.0469293 0)
(1.00746 0.051311 0)
(1.00934 0.055663 0)
(1.01149 0.0599445 0)
(1.01391 0.0641366 0)
(1.01659 0.068188 0)
(1.01954 0.0720894 0)
(1.0227 0.075779 0)
(1.02609 0.0792724 0)
(1.02964 0.0824876 0)
(1.03336 0.0854913 0)
(1.03717 0.0881485 0)
(1.04109 0.0906341 0)
(1.04502 0.0926698 0)
(1.04904 0.0946892 0)
(1.05293 0.0960108 0)
(1.05698 0.097777 -2.45147e-29)
(1.00001 0.0025176 0)
(1.00013 0.00733924 0)
(1.00034 0.0119181 0)
(1.00064 0.0163332 0)
(1.00104 0.0206487 0)
(1.00155 0.0249086 0)
(1.00221 0.029147 0)
(1.00303 0.0333793 0)
(1.00404 0.0376162 0)
(1.00527 0.04185 0)
(1.00672 0.0460737 0)
(1.00842 0.0502621 0)
(1.01037 0.0543986 0)
(1.01257 0.0584456 0)
(1.01503 0.0623857 0)
(1.01772 0.066173 0)
(1.02065 0.0698 0)
(1.02377 0.073212 0)
(1.02708 0.0764256 0)
(1.03053 0.0793678 0)
(1.03412 0.0821027 0)
(1.03778 0.0845089 0)
(1.04153 0.0867498 0)
(1.04527 0.0885722 0)
(1.04908 0.0903765 0)
(1.05274 0.0915387 0)
(1.05657 0.0931102 0)
(1.00001 0.00249382 0)
(1.00015 0.0072736 0)
(1.00041 0.0118109 0)
(1.00077 0.016179 0)
(1.00125 0.0204378 0)
(1.00185 0.0246273 0)
(1.0026 0.0287783 0)
(1.00353 0.0329043 0)
(1.00464 0.0370138 0)
(1.00595 0.0410987 0)
(1.00749 0.0451516 0)
(1.00927 0.0491486 0)
(1.01128 0.0530742 0)
(1.01352 0.0568938 0)
(1.01599 0.0605923 0)
(1.01868 0.0641282 0)
(1.02158 0.0674965 0)
(1.02464 0.0706488 0)
(1.02787 0.0736026 0)
(1.03122 0.0762931 0)
(1.03468 0.078782 0)
(1.03818 0.0809601 0)
(1.04176 0.0829799 0)
(1.04531 0.0846109 0)
(1.04892 0.086223 0)
(1.05237 0.0872445 0)
(1.05598 0.088643 0)
(1.00001 0.0024654 0)
(1.00017 0.00719423 0)
(1.00047 0.0116812 0)
(1.00089 0.0159943 0)
(1.00144 0.0201886 0)
(1.00212 0.0243008 0)
(1.00296 0.0283587 0)
(1.00397 0.0323735 0)
(1.00517 0.0363523 0)
(1.00657 0.0402868 0)
(1.00818 0.0441695 0)
(1.01002 0.047978 0)
(1.01207 0.051698 0)
(1.01434 0.0552982 0)
(1.01682 0.0587655 -6.1842e-28)
(1.01949 0.0620632 6.49297e-28)
(1.02234 0.0651883 0)
(1.02534 0.0680981 0)
(1.02848 0.0708112 0)
(1.03171 0.0732703 0)
(1.03504 0.0755343 0)
(1.03839 0.0775052 0)
(1.04181 0.0793253 0)
(1.04517 0.0807848 0)
(1.04859 0.0822251 0)
(1.05184 0.0831225 0)
(1.05524 0.0843671 0)
(1.00001 0.00243251 0)
(1.00019 0.00710162 0)
(1.00053 0.01153 0)
(1.001 0.0157802 0)
(1.00162 0.0199031 0)
(1.00237 0.0239317 0)
(1.00329 0.027891 0)
(1.00438 0.0317907 0)
(1.00565 0.0356365 0)
(1.00712 0.0394199 0)
(1.00879 0.0431338 0)
(1.01067 0.0467575 0)
(1.01275 0.050278 0)
(1.01503 0.0536672 0)
(1.0175 0.0569143 0)
(1.02014 0.0599867 0)
(1.02294 0.0628836 0)
(1.02587 0.0655677 0)
(1.02891 0.0680582 0)
(1.03203 0.0703047 0)
(1.03522 0.0723634 0)
(1.03843 0.0741465 0)
(1.04168 0.0757864 0)
(1.04487 0.0770922 0)
(1.0481 0.0783789 0)
(1.05117 0.0791668 0)
(1.05437 0.0802746 0)
(1.00001 0.00239535 0)
(1.00021 0.00699636 0)
(1.00058 0.0113582 0)
(1.00111 0.0155383 0)
(1.00178 0.019583 0)
(1.0026 0.0235224 0)
(1.00358 0.0273787 0)
(1.00474 0.03116 0)
(1.00607 0.0348711 0)
(1.0076 0.0385036 0)
(1.00932 0.042051 0)
(1.01123 0.0454941 0)
(1.01333 0.0488218 0)
(1.01561 0.0520088 0)
(1.01806 0.0550465 0)
(1.02066 0.0579066 0)
(1.0234 0.0605899 0)
(1.02624 0.0630644 0)
(1.02919 0.0653494 0)
(1.03219 0.0674009 0)
(1.03525 0.0692724 0)
(1.03831 0.0708852 0)
(1.0414 0.0723625 0)
(1.04442 0.0735307 0)
(1.04748 0.0746802 2.18633e-29)
(1.05036 0.0753714 -2.29236e-29)
(1.05338 0.0763574 0)
(1.00001 0.00235412 0)
(1.00023 0.00687909 0)
(1.00063 0.011167 0)
(1.0012 0.0152701 0)