/*--------------------------------*- C++ -*----------------------------------*\
  =========                 |
  \\      /  F ield         | OpenFOAM: The Open Source CFD Toolbox
   \\    /   O peration     | Website:  https://openfoam.org
    \\  /    A nd           | Version:  7
     \\/     M anipulation  |
\*---------------------------------------------------------------------------*/
FoamFile
{
    version     2.0;
    format      ascii;
    class       volScalarField;
    location    "40";
    object      p;
}
// * * * * * * * * * * * * * * * * * * * * * * * * * * * * * * * * * * * * * //

dimensions      [0 2 -2 0 0 0 0];

internalField   nonuniform List<scalar> 
10230
(
-0.292526
-0.297757
-0.299744
-0.300406
-0.299938
-0.29839
-0.295903
-0.292592
-0.288586
-0.283964
-0.278706
-0.29316
-0.298295
-0.300219
-0.300824
-0.300301
-0.298703
-0.296169
-0.292814
-0.288772
-0.284116
-0.278766
-0.294426
-0.29937
-0.301168
-0.301656
-0.301024
-0.299326
-0.296698
-0.293256
-0.289141
-0.284416
-0.278881
-0.296315
-0.300974
-0.302584
-0.302899
-0.302103
-0.300254
-0.297485
-0.29391
-0.289683
-0.284855
-0.279037
-0.298816
-0.303099
-0.30446
-0.304543
-0.30353
-0.301479
-0.298522
-0.294766
-0.290387
-0.285424
-0.279206
-0.301917
-0.305735
-0.306785
-0.306581
-0.305296
-0.302992
-0.299797
-0.295815
-0.291245
-0.286143
-0.279318
-0.3056
-0.308868
-0.309549
-0.309
-0.30739
-0.304782
-0.3013
-0.297043
-0.292249
-0.287056
-0.279342
-0.30985
-0.312485
-0.312738
-0.31179
-0.309799
-0.306837
-0.303019
-0.298438
-0.293357
-0.287764
-0.279645
-0.314646
-0.316569
-0.316339
-0.314935
-0.312513
-0.309145
-0.30494
-0.299986
-0.294581
-0.288613
-0.279782
-0.319971
-0.321105
-0.320336
-0.318425
-0.315519
-0.311696
-0.307055
-0.301675
-0.295898
-0.289537
-0.279767
-0.325806
-0.326077
-0.324715
-0.322245
-0.318805
-0.314479
-0.309354
-0.303497
-0.297291
-0.290488
-0.279602
-0.332132
-0.331469
-0.32946
-0.326382
-0.322361
-0.317487
-0.311832
-0.305446
-0.298754
-0.291448
-0.279255
-0.338932
-0.337261
-0.33456
-0.330825
-0.326178
-0.320713
-0.314486
-0.307522
-0.300287
-0.292412
-0.278689
-0.346185
-0.34344
-0.339997
-0.335562
-0.330248
-0.324154
-0.317317
-0.309732
-0.301897
-0.293378
-0.277874
-0.353874
-0.349987
-0.345757
-0.340581
-0.334564
-0.327809
-0.320331
-0.312087
-0.3036
-0.294355
-0.276781
-0.361979
-0.356884
-0.351825
-0.345873
-0.339121
-0.331679
-0.323538
-0.31461
-0.305424
-0.29536
-0.275396
-0.370478
-0.364112
-0.358186
-0.351425
-0.343913
-0.335768
-0.326953
-0.317329
-0.307414
-0.296439
-0.273745
-0.379345
-0.371649
-0.364822
-0.357226
-0.348937
-0.340081
-0.330593
-0.320283
-0.309638
-0.297679
-0.271945
-0.388551
-0.379472
-0.371715
-0.363263
-0.354186
-0.34462
-0.334478
-0.323518
-0.312177
-0.299158
-0.270087
-0.398063
-0.387554
-0.378843
-0.369523
-0.359653
-0.34939
-0.338628
-0.327097
-0.315135
-0.300786
-0.267774
-0.407843
-0.395865
-0.386184
-0.375985
-0.365327
-0.354388
-0.343069
-0.331126
-0.318749
-0.302788
-0.265341
-0.417846
-0.404372
-0.39371
-0.38263
-0.371189
-0.359601
-0.347807
-0.335694
-0.323432
-0.307663
-0.2731
-0.428025
-0.413038
-0.40139
-0.38943
-0.377213
-0.364993
-0.352777
-0.340652
-0.328981
-0.317842
-0.316372
-0.43833
-0.421822
-0.409192
-0.396356
-0.383365
-0.370511
-0.35785
-0.345616
-0.334196
-0.324573
-0.330712
-0.448706
-0.430683
-0.417078
-0.403374
-0.389612
-0.37611
-0.362944
-0.350411
-0.338771
-0.328722
-0.335357
-0.459096
-0.439572
-0.425009
-0.41045
-0.39592
-0.381755
-0.368025
-0.355034
-0.342909
-0.332014
-0.337627
-0.469441
-0.44844
-0.432941
-0.417544
-0.402254
-0.38741
-0.373063
-0.359487
-0.346689
-0.334764
-0.338338
-0.479678
-0.457232
-0.440825
-0.424613
-0.408571
-0.393034
-0.378018
-0.363742
-0.350098
-0.336961
-0.337902
-0.48974
-0.465888
-0.448606
-0.431606
-0.414822
-0.398577
-0.38284
-0.36776
-0.353121
-0.338633
-0.33667
-0.499552
-0.474341
-0.456223
-0.438464
-0.420949
-0.40398
-0.38747
-0.371491
-0.355735
-0.339805
-0.334834
-0.509034
-0.482517
-0.463607
-0.445122
-0.426888
-0.409176
-0.391842
-0.374878
-0.357904
-0.340473
-0.332487
-0.518098
-0.490337
-0.470682
-0.451504
-0.432562
-0.414089
-0.395881
-0.377855
-0.359583
-0.340614
-0.32967
-0.526645
-0.497711
-0.477363
-0.457528
-0.437889
-0.418636
-0.399504
-0.380348
-0.360715
-0.340193
-0.326388
-0.534571
-0.504544
-0.483559
-0.463104
-0.442778
-0.422725
-0.402623
-0.382278
-0.361238
-0.33916
-0.322623
-0.541762
-0.510732
-0.48917
-0.468134
-0.447131
-0.426257
-0.405143
-0.38356
-0.36108
-0.337459
-0.318336
-0.548096
-0.516165
-0.49409
-0.472511
-0.450842
-0.429129
-0.406963
-0.384102
-0.360166
-0.335028
-0.313479
-0.553445
-0.520726
-0.498206
-0.476125
-0.453799
-0.431231
-0.407982
-0.383813
-0.358418
-0.3318
-0.307994
-0.557676
-0.524293
-0.501401
-0.47886
-0.455889
-0.43245
-0.408091
-0.382598
-0.355756
-0.327707
-0.301818
-0.560651
-0.526742
-0.503552
-0.480595
-0.456992
-0.432671
-0.407186
-0.380363
-0.352099
-0.322683
-0.294889
-0.562232
-0.527945
-0.504536
-0.481207
-0.456986
-0.431779
-0.405158
-0.377015
-0.347372
-0.316663
-0.287145
-0.56228
-0.527772
-0.504226
-0.480572
-0.455752
-0.42966
-0.401906
-0.372464
-0.341501
-0.309587
-0.278528
-0.560656
-0.526095
-0.502497
-0.478567
-0.45317
-0.426202
-0.397329
-0.366629
-0.334419
-0.301404
-0.268986
-0.557228
-0.522789
-0.499226
-0.47507
-0.449124
-0.421297
-0.391336
-0.359433
-0.326066
-0.292065
-0.258474
-0.551867
-0.517733
-0.494293
-0.469966
-0.443504
-0.414848
-0.38384
-0.350807
-0.316392
-0.281534
-0.246955
-0.544454
-0.510813
-0.487586
-0.463144
-0.436207
-0.406761
-0.374767
-0.340694
-0.305354
-0.26978
-0.234401
-0.534877
-0.501919
-0.478997
-0.454501
-0.427137
-0.396956
-0.364051
-0.329046
-0.29292
-0.256784
-0.220792
-0.523037
-0.490956
-0.468432
-0.443946
-0.416212
-0.385362
-0.351639
-0.315827
-0.279069
-0.242534
-0.206116
-0.508851
-0.477839
-0.455805
-0.431399
-0.403361
-0.371924
-0.337492
-0.301014
-0.26379
-0.227031
-0.190372
-0.492249
-0.462498
-0.441046
-0.416793
-0.388529
-0.356599
-0.321583
-0.284596
-0.247083
-0.210283
-0.173565
-0.47318
-0.444877
-0.4241
-0.400077
-0.371673
-0.339361
-0.303902
-0.266574
-0.228962
-0.192309
-0.155713
-0.451611
-0.424937
-0.404926
-0.381217
-0.352771
-0.320199
-0.284452
-0.246964
-0.209448
-0.173148
-0.136854
-0.427527
-0.402657
-0.383504
-0.360196
-0.331814
-0.299119
-0.26325
-0.225792
-0.188574
-0.152833
-0.116984
-0.400936
-0.378036
-0.35983
-0.337017
-0.308816
-0.276145
-0.240332
-0.203099
-0.166381
-0.131361
-0.0959178
-0.371866
-0.351092
-0.333921
-0.3117
-0.283805
-0.251317
-0.215746
-0.178943
-0.142929
-0.108749
-0.0734751
-0.340366
-0.321864
-0.305814
-0.284287
-0.256832
-0.224693
-0.189559
-0.153393
-0.118278
-0.0851968
-0.0513422
-0.30651
-0.290412
-0.275568
-0.254839
-0.227964
-0.196349
-0.161849
-0.126526
-0.0925034
-0.0605909
-0.0282616
-0.270389
-0.256816
-0.243259
-0.223436
-0.197288
-0.166377
-0.132709
-0.0984333
-0.0656979
-0.0351454
-0.00430934
-0.232118
-0.221177
-0.208986
-0.190179
-0.164908
-0.134886
-0.102242
-0.0692195
-0.0379533
-0.00893741
0.020335
-0.191833
-0.183615
-0.172865
-0.155186
-0.130944
-0.101985
-0.070582
-0.0389976
-0.00937236
0.0179566
0.0455541
-0.149687
-0.144268
-0.135033
-0.118592
-0.0955307
-0.0678247
-0.0378501
-0.00789301
0.0199312
0.0454397
0.0712316
-0.105838
-0.103303
-0.0956455
-0.0805494
-0.0588232
-0.0325494
-0.0041907
0.0239582
0.049833
0.0733999
0.0972342
-0.0604491
-0.0609253
-0.0548677
-0.0412268
-0.0209842
0.00368247
0.0302431
0.0564109
0.0802009
0.101719
0.123402
-0.0138405
-0.0172332
-0.012887
-0.000804987
0.017811
0.0407024
0.0652911
0.089313
0.110906
0.130296
0.149494
0.033858
0.027506
0.0300959
0.0405241
0.0573772
0.0783346
0.100786
0.122506
0.141829
0.159032
0.175128
0.0824133
0.0730771
0.0738727
0.0825582
0.0975218
0.116398
0.136558
0.15583
0.172819
0.187615
0.199735
0.131575
0.119257
0.118224
0.125087
0.138047
0.154711
0.172441
0.189139
0.20366
0.215214
0.221786
0.181091
0.165809
0.162922
0.167892
0.178749
0.193091
0.208289
0.222341
0.234229
0.241174
0.240162
0.230709
0.212493
0.207734
0.210752
0.219424
0.231356
0.243954
0.255338
0.264659
0.268995
0.267002
0.280165
0.25906
0.25242
0.253442
0.259861
0.269312
0.279261
0.287949
0.294654
0.296726
0.294006
0.329193
0.305256
0.296738
0.295731
0.299848
0.306767
0.31403
0.319998
0.324033
0.323753
0.319797
0.377528
0.35083
0.340445
0.337391
0.339174
0.343529
0.348084
0.351322
0.352676
0.350025
0.34452
0.424906
0.395529
0.3833
0.378196
0.377631
0.37941
0.381254
0.381769
0.380455
0.375449
0.368215
0.471065
0.439104
0.425064
0.417923
0.415015
0.414228
0.41338
0.411196
0.407243
0.399911
0.390846
0.515749
0.48131
0.465505
0.456354
0.451129
0.447805
0.444306
0.439469
0.432928
0.423314
0.412366
0.558711
0.521909
0.504395
0.493279
0.485781
0.479972
0.473883
0.466462
0.457405
0.445573
0.432728
0.599709
0.56067
0.541515
0.528493
0.518788
0.510569
0.501973
0.492057
0.480577
0.46661
0.451888
0.638514
0.597374
0.576654
0.561804
0.549975
0.53944
0.528443
0.516141
0.502351
0.486351
0.4698
0.674909
0.631811
0.609615
0.593027
0.579178
0.566443
0.553169
0.538609
0.52264
0.504725
0.48642
0.708688
0.663783
0.640211
0.62199
0.606243
0.591442
0.576035
0.559365
0.541364
0.521666
0.501702
0.739659
0.693107
0.668266
0.648534
0.631026
0.614312
0.596934
0.578317
0.558446
0.53711
0.515602
0.76765
0.719615
0.693623
0.672512
0.653397
0.634939
0.615767
0.595382
0.573817
0.550998
0.528078
0.792499
0.743154
0.716135
0.693791
0.673238
0.65322
0.632446
0.610485
0.587413
0.563276
0.539089
0.814068
0.76359
0.735676
0.712253
0.690443
0.669063
0.646893
0.623559
0.599176
0.573896
0.5486
0.832233
0.780802
0.752134
0.727798
0.704923
0.68239
0.659038
0.634545
0.609058
0.582813
0.556578
0.84689
0.794694
0.765414
0.740338
0.716599
0.693132
0.668824
0.643394
0.617015
0.589993
0.562995
0.857957
0.805183
0.775442
0.749804
0.725411
0.701236
0.676205
0.650067
0.623013
0.595404
0.567828
0.86537
0.81221
0.782158
0.756144
0.731312
0.706662
0.681146
0.654532
0.627026
0.599024
0.57106
0.869087
0.815733
0.785526
0.759323
0.73427
0.709382
0.683622
0.656769
0.629037
0.600838
0.572679
0.869087
0.815733
0.785526
0.759323
0.73427
0.709382
0.683622
0.656769
0.629037
0.600838
0.572679
0.86537
0.81221
0.782158
0.756144
0.731312
0.706662
0.681146
0.654532
0.627026
0.599024
0.57106
0.857957
0.805183
0.775442
0.749804
0.725411
0.701236
0.676205
0.650067
0.623013
0.595404
0.567828
0.84689
0.794694
0.765414
0.740338
0.716599
0.693132
0.668824
0.643394
0.617015
0.589993
0.562995
0.832233
0.780802
0.752134
0.727798
0.704923
0.68239
0.659038
0.634545
0.609058
0.582813
0.556578
0.814068
0.76359
0.735676
0.712253
0.690443
0.669063
0.646893
0.623559
0.599176
0.573896
0.5486
0.792499
0.743154
0.716135
0.693791
0.673238
0.65322
0.632446
0.610485
0.587413
0.563276
0.539089
0.76765
0.719615
0.693623
0.672512
0.653397
0.634939
0.615767
0.595382
0.573817
0.550998
0.528078
0.739659
0.693107
0.668266
0.648534
0.631026
0.614312
0.596934
0.578317
0.558446
0.53711
0.515602
0.708688
0.663783
0.640211
0.62199
0.606243
0.591442
0.576035
0.559365
0.541364
0.521666
0.501702
0.674909
0.631811
0.609615
0.593027
0.579178
0.566443
0.553169
0.538609
0.52264
0.504725
0.48642
0.638514
0.597374
0.576654
0.561804
0.549975
0.53944
0.528443
0.516141
0.502351
0.486351
0.4698
0.599709
0.56067
0.541515
0.528493
0.518788
0.510569
0.501973
0.492057
0.480577
0.46661
0.451888
0.558711
0.521909
0.504395
0.493279
0.485781
0.479972
0.473883
0.466462
0.457405
0.445573
0.432728
0.515749
0.48131
0.465505
0.456354
0.451129
0.447805
0.444306
0.439469
0.432928
0.423314
0.412366
0.471065
0.439104
0.425064
0.417923
0.415015
0.414228
0.41338
0.411196
0.407243
0.399911
0.390846
0.424906
0.395529
0.3833
0.378196
0.377631
0.37941
0.381254
0.381769
0.380455
0.375449
0.368215
0.377528
0.35083
0.340445
0.337391
0.339174
0.343529
0.348084
0.351322
0.352676
0.350025
0.34452
0.329193
0.305256
0.296738
0.295731
0.299848
0.306767
0.31403
0.319998
0.324033
0.323753
0.319797
0.280165
0.25906
0.25242
0.253442
0.259861
0.269312
0.279261
0.287949
0.294654
0.296726
0.294006
0.230709
0.212493
0.207734
0.210752
0.219424
0.231356
0.243954
0.255338
0.264659
0.268995
0.267002
0.181091
0.165809
0.162922
0.167892
0.178749
0.193091
0.208289
0.222341
0.234229
0.241174
0.240162
0.131575
0.119257
0.118224
0.125087
0.138047
0.154711
0.172441
0.189139
0.20366
0.215214
0.221786
0.0824133
0.0730771
0.0738727
0.0825582
0.0975218
0.116398
0.136558
0.15583
0.172819
0.187615
0.199735
0.033858
0.027506
0.0300959
0.0405241
0.0573772
0.0783346
0.100786
0.122507
0.141829
0.159032
0.175128
-0.0138405
-0.0172332
-0.012887
-0.000804986
0.017811
0.0407024
0.0652911
0.089313
0.110906
0.130296
0.149494
-0.0604491
-0.0609253
-0.0548677
-0.0412268
-0.0209842
0.00368247
0.0302431
0.0564109
0.0802009
0.101719
0.123402
-0.105838
-0.103303
-0.0956455
-0.0805494
-0.0588232
-0.0325494
-0.0041907
0.0239582
0.049833
0.0733999
0.0972342
-0.149687
-0.144268
-0.135033
-0.118592
-0.0955307
-0.0678247
-0.0378501
-0.00789301
0.0199312
0.0454397
0.0712316
-0.191833
-0.183615
-0.172865
-0.155186
-0.130944
-0.101985
-0.070582
-0.0389976
-0.00937236
0.0179566
0.0455541
-0.232118
-0.221177
-0.208986
-0.190179
-0.164908
-0.134886
-0.102242
-0.0692195
-0.0379533
-0.00893741
0.020335
-0.270389
-0.256816
-0.243259
-0.223436
-0.197288
-0.166377
-0.132709
-0.0984333
-0.0656979
-0.0351454
-0.00430934
-0.30651
-0.290412
-0.275568
-0.254839
-0.227964
-0.196349
-0.161849
-0.126526
-0.0925034
-0.0605909
-0.0282616
-0.340366
-0.321864
-0.305814
-0.284287
-0.256832
-0.224693
-0.189559
-0.153393
-0.118278
-0.0851968
-0.0513422
-0.371866
-0.351092
-0.333921
-0.3117
-0.283805
-0.251317
-0.215746
-0.178943
-0.142929
-0.108749
-0.0734751
-0.400936
-0.378036
-0.35983
-0.337017
-0.308816
-0.276145
-0.240332
-0.203099
-0.166381
-0.131361
-0.0959178
-0.427527
-0.402657
-0.383504
-0.360196
-0.331814
-0.299119
-0.26325
-0.225792
-0.188574
-0.152833
-0.116984
-0.451611
-0.424937
-0.404926
-0.381217
-0.352771
-0.320199
-0.284452
-0.246964
-0.209448
-0.173148
-0.136854
-0.47318
-0.444877
-0.4241
-0.400077
-0.371673
-0.339361
-0.303902
-0.266574
-0.228962
-0.192309
-0.155713
-0.492249
-0.462498
-0.441046
-0.416793
-0.388529
-0.356599
-0.321583
-0.284596
-0.247083
-0.210283
-0.173565
-0.508851
-0.477839
-0.455805
-0.431399
-0.403361
-0.371924
-0.337492
-0.301014
-0.26379
-0.227031
-0.190372
-0.523037
-0.490956
-0.468432
-0.443946
-0.416212
-0.385362
-0.351639
-0.315827
-0.279069
-0.242534
-0.206116
-0.534877
-0.501919
-0.478997
-0.454501
-0.427137
-0.396956
-0.364051
-0.329046
-0.29292
-0.256784
-0.220792
-0.544454
-0.510813
-0.487586
-0.463144
-0.436207
-0.406761
-0.374767
-0.340694
-0.305354
-0.26978
-0.234401
-0.551867
-0.517733
-0.494293
-0.469966
-0.443504
-0.414848
-0.38384
-0.350807
-0.316392
-0.281534
-0.246955
-0.557228
-0.522789
-0.499226
-0.47507
-0.449124
-0.421297
-0.391336
-0.359433
-0.326066
-0.292065
-0.258474
-0.560656
-0.526095
-0.502497
-0.478567
-0.45317
-0.426202
-0.397329
-0.366629
-0.334419
-0.301404
-0.268986
-0.56228
-0.527772
-0.504226
-0.480572
-0.455752
-0.42966
-0.401906
-0.372464
-0.341501
-0.309587
-0.278528
-0.562232
-0.527945
-0.504536
-0.481207
-0.456986
-0.431779
-0.405158
-0.377015
-0.347372
-0.316663
-0.287145
-0.560651
-0.526742
-0.503552
-0.480595
-0.456992
-0.432671
-0.407186
-0.380363
-0.352099
-0.322683
-0.294889
-0.557676
-0.524293
-0.501401
-0.47886
-0.455889
-0.43245
-0.408091
-0.382598
-0.355756
-0.327707
-0.301818
-0.553445
-0.520726
-0.498206
-0.476125
-0.453799
-0.431231
-0.407982
-0.383813
-0.358418
-0.3318
-0.307994
-0.548096
-0.516165
-0.49409
-0.472511
-0.450842
-0.429129
-0.406963
-0.384102
-0.360166
-0.335028
-0.313479
-0.541762
-0.510732
-0.48917
-0.468134
-0.447131
-0.426257
-0.405143
-0.38356
-0.36108
-0.337459
-0.318336
-0.534571
-0.504544
-0.483559
-0.463104
-0.442778
-0.422725
-0.402623
-0.382278
-0.361238
-0.33916
-0.322623
-0.526645
-0.497711
-0.477363
-0.457528
-0.437889
-0.418636
-0.399504
-0.380348
-0.360715
-0.340193
-0.326388
-0.518098
-0.490337
-0.470682
-0.451504
-0.432562
-0.414089
-0.395881
-0.377855
-0.359583
-0.340614
-0.32967
-0.509034
-0.482517
-0.463607
-0.445122
-0.426888
-0.409176
-0.391842
-0.374878
-0.357904
-0.340473
-0.332487
-0.499552
-0.474341
-0.456223
-0.438464
-0.420949
-0.40398
-0.38747
-0.371491
-0.355735
-0.339805
-0.334834
-0.48974
-0.465888
-0.448606
-0.431606
-0.414822
-0.398577
-0.38284
-0.36776
-0.353121
-0.338633
-0.33667
-0.479678
-0.457232
-0.440825
-0.424613
-0.408571
-0.393034
-0.378018
-0.363742
-0.350098
-0.336961
-0.337902
-0.469441
-0.44844
-0.432941
-0.417544
-0.402254
-0.38741
-0.373063
-0.359487
-0.346689
-0.334764
-0.338338
-0.459096
-0.439572
-0.425009
-0.41045
-0.39592
-0.381755
-0.368025
-0.355034
-0.342909
-0.332014
-0.337627
-0.448706
-0.430683
-0.417078
-0.403374
-0.389612
-0.37611
-0.362944
-0.350411
-0.338771
-0.328722
-0.335357
-0.43833
-0.421822
-0.409192
-0.396356
-0.383365
-0.370511
-0.35785
-0.345616
-0.334196
-0.324573
-0.330712
-0.428025
-0.413038
-0.40139
-0.38943
-0.377213
-0.364993
-0.352777
-0.340652
-0.328981
-0.317842
-0.316372
-0.417846
-0.404372
-0.39371
-0.38263
-0.371189
-0.359601
-0.347807
-0.335694
-0.323432
-0.307663
-0.2731
-0.407843
-0.395865
-0.386184
-0.375985
-0.365327
-0.354388
-0.343069
-0.331126
-0.318749
-0.302788
-0.265341
-0.398063
-0.387554
-0.378843
-0.369523
-0.359653
-0.34939
-0.338628
-0.327097
-0.315135
-0.300786
-0.267774
-0.388551
-0.379472
-0.371715
-0.363263
-0.354186
-0.34462
-0.334478
-0.323518
-0.312177
-0.299158
-0.270087
-0.379345
-0.371649
-0.364822
-0.357226
-0.348937
-0.340081
-0.330593
-0.320283
-0.309638
-0.297679
-0.271945
-0.370478
-0.364112
-0.358186
-0.351425
-0.343913
-0.335768
-0.326953
-0.317329
-0.307414
-0.296439
-0.273745
-0.361979
-0.356884
-0.351825
-0.345873
-0.339121
-0.331679
-0.323538
-0.31461
-0.305424
-0.29536
-0.275396
-0.353874
-0.349987
-0.345757
-0.340581
-0.334564
-0.327809
-0.320331
-0.312087
-0.3036
-0.294355
-0.276781
-0.346185
-0.34344
-0.339997
-0.335562
-0.330248
-0.324154
-0.317317
-0.309732
-0.301897
-0.293378
-0.277874
-0.338932
-0.337261
-0.33456
-0.330825
-0.326178
-0.320713
-0.314486
-0.307522
-0.300287
-0.292412
-0.278689
-0.332132
-0.331469
-0.32946
-0.326382
-0.322361
-0.317487
-0.311832
-0.305446
-0.298754
-0.291448
-0.279255
-0.325806
-0.326077
-0.324715
-0.322245
-0.318805
-0.314479
-0.309354
-0.303497
-0.297291
-0.290488
-0.279602
-0.319971
-0.321105
-0.320336
-0.318425
-0.315519
-0.311696
-0.307055
-0.301675
-0.295898
-0.289537
-0.279767
-0.314646
-0.316569
-0.316339
-0.314935
-0.312513
-0.309145
-0.30494
-0.299986
-0.294581
-0.288613
-0.279782
-0.30985
-0.312485
-0.312738
-0.31179
-0.309799
-0.306837
-0.303019
-0.298438
-0.293357
-0.287764
-0.279645
-0.3056
-0.308868
-0.309549
-0.309
-0.30739
-0.304782
-0.3013
-0.297043
-0.292249
-0.287056
-0.279342
-0.301917
-0.305735
-0.306785
-0.306581
-0.305296
-0.302992
-0.299797
-0.295815
-0.291245
-0.286143
-0.279318
-0.298816
-0.303099
-0.30446
-0.304543
-0.30353
-0.301479
-0.298522
-0.294766
-0.290387
-0.285424
-0.279206
-0.296315
-0.300974
-0.302584
-0.302899
-0.302103
-0.300254
-0.297485
-0.29391
-0.289683
-0.284855
-0.279037
-0.294426
-0.29937
-0.301168
-0.301656
-0.301024
-0.299326
-0.296698
-0.293256
-0.289141
-0.284416
-0.278881
-0.29316
-0.298295
-0.300219
-0.300824
-0.300301
-0.298703
-0.296169
-0.292814
-0.288772
-0.284116
-0.278766
-0.292526
-0.297757
-0.299744
-0.300406
-0.299938
-0.29839
-0.295903
-0.292592
-0.288586
-0.283964
-0.278706
-0.273699
-0.266321
-0.258524
-0.249686
-0.240025
-0.229637
-0.21862
-0.207106
-0.195222
-0.1831
-0.170864
-0.158633
-0.146513
-0.134599
-0.122974
-0.111711
-0.100867
-0.0904961
-0.0806248
-0.0713035
-0.0625064
-0.0543322
-0.0466139
-0.0396658
-0.0328953
-0.0273335
-0.0211199
-0.0174256
-0.0107736
-0.0103396
-0.000753554
-0.00732567
0.0114528
-0.274087
-0.266565
-0.258742
-0.249881
-0.240199
-0.229795
-0.218765
-0.207239
-0.195345
-0.183214
-0.17097
-0.158731
-0.146604
-0.134683
-0.123051
-0.111782
-0.100931
-0.0905536
-0.0806763
-0.0713494
-0.062547
-0.0543679
-0.046645
-0.0396926
-0.0329186
-0.0273528
-0.0211373
-0.0174381
-0.0107876
-0.0103447
-0.0007685
-0.00732002
0.0114262
-0.274861
-0.267041
-0.259174
-0.250268
-0.240544
-0.230108
-0.219051
-0.207502
-0.195589
-0.18344
-0.171181
-0.158927
-0.146785
-0.13485
-0.123205
-0.111922
-0.101058
-0.0906684
-0.0807792
-0.0714411
-0.0626281
-0.0544391
-0.0467073
-0.0397462
-0.0329653
-0.0273914
-0.0211721
-0.0174631
-0.0108156
-0.0103549
-0.000798342
-0.00730878
0.0113731
-0.276014
-0.267737
-0.259815
-0.250839
-0.241053
-0.23057
-0.219473
-0.207892
-0.19595
-0.183776
-0.171493
-0.159218
-0.147054
-0.135099
-0.123434
-0.112131
-0.101248
-0.09084
-0.0809331
-0.0715781
-0.0627494
-0.0545456
-0.0468004
-0.0398265
-0.0330352
-0.0274491
-0.0212243
-0.0175005
-0.0108575
-0.0103702
-0.000842979
-0.00729205
0.0112937
-0.277551
-0.26864
-0.260652
-0.251586
-0.241718
-0.231174
-0.220026
-0.208402
-0.196424
-0.184218
-0.171905
-0.159601
-0.147411
-0.135428
-0.123737
-0.112408
-0.1015
-0.0910676
-0.0811374
-0.0717602
-0.0629106
-0.0546872
-0.0469243
-0.0399332
-0.0331282
-0.0275259
-0.0212937
-0.0175503
-0.0109132
-0.0103906
-0.000902262
-0.00727
0.0111886
-0.279488
-0.26972
-0.261672
-0.252495
-0.242525
-0.231908
-0.220699
-0.209025
-0.197004
-0.184759
-0.172412
-0.160074
-0.147851
-0.135836
-0.124112
-0.112752
-0.101813
-0.0913504
-0.0813913
-0.0719867
-0.0631112
-0.0548635
-0.0470785
-0.0400661
-0.0332439
-0.0276217
-0.0213801
-0.0176123
-0.0109826
-0.0104162
-0.000975996
-0.00724283
0.0110581
-0.281713
-0.271009
-0.262855
-0.253551
-0.243463
-0.23276
-0.221481
-0.209751
-0.197682
-0.185395
-0.173008
-0.160632
-0.148371
-0.136319
-0.124558
-0.113161
-0.102186
-0.0916873
-0.081694
-0.0722567
-0.0633506
-0.0550739
-0.0472627
-0.0402249
-0.0333823
-0.0277361
-0.0214835
-0.0176866
-0.0110655
-0.010447
-0.00106394
-0.00721079
0.0109031
-0.284131
-0.272525
-0.264187
-0.254737
-0.244513
-0.233715
-0.222361
-0.210569
-0.198449
-0.186117
-0.173688
-0.161271
-0.148968
-0.136874
-0.125071
-0.113632
-0.102616
-0.0920769
-0.0820444
-0.0725696
-0.063628
-0.0553179
-0.0474764
-0.0404091
-0.0335429
-0.0278689
-0.0216035
-0.0177729
-0.0111618
-0.0104831
-0.0011658
-0.00717418
0.0107242
-0.28685
-0.274182
-0.265642
-0.256032
-0.245658
-0.234758
-0.223323
-0.211469
-0.199297
-0.186919
-0.174445
-0.161984
-0.149637
-0.137498
-0.125649
-0.114164
-0.103102
-0.0925176
-0.0824411
-0.0729242
-0.0639427
-0.0555948
-0.047719
-0.0406184
-0.0337254
-0.0280199
-0.02174
-0.0178712
-0.0112712
-0.0105244
-0.00128125
-0.00713332
0.0105224
-0.289837
-0.275968
-0.267201
-0.257416
-0.24688
-0.235872
-0.224355
-0.212439
-0.200215
-0.18779
-0.175272
-0.162767
-0.150374
-0.138187
-0.126289
-0.114754
-0.103641
-0.0930078
-0.0828829
-0.0733194
-0.0642937
-0.0559039
-0.0479899
-0.0408521
-0.0339294
-0.0281888
-0.0218926
-0.0179812
-0.0113935
-0.0105711
-0.00140993
-0.00708857
0.0102986
-0.293056
-0.277871
-0.268839
-0.258866
-0.248158
-0.237039
-0.225441
-0.213465
-0.201192
-0.188724
-0.176163
-0.163613
-0.151173
-0.138937
-0.126988
-0.115399
-0.104233
-0.0935456
-0.0833682
-0.0737539
-0.0646799
-0.0562442
-0.0482885
-0.0411098
-0.0341544
-0.028375
-0.022061
-0.0181028
-0.0115284
-0.0106231
-0.00155143
-0.00704032
0.0100539
-0.296451
-0.279872
-0.27053
-0.260358
-0.249473
-0.238242
-0.226567
-0.214535
-0.202218
-0.18971
-0.177109
-0.164516
-0.15203
-0.139744
-0.127741
-0.116096
-0.104873
-0.0941289
-0.0838954
-0.0742264
-0.0651003
-0.0566148
-0.0486138
-0.0413908
-0.0343998
-0.0285783
-0.0222449
-0.0182358
-0.0116757
-0.0106806
-0.00170531
-0.00698896
0.00978955
-0.299986
-0.281955
-0.272248
-0.261867
-0.250804
-0.239464
-0.227719
-0.215638
-0.203284
-0.190741
-0.178103
-0.16547
-0.152939
-0.140602
-0.128545
-0.116843
-0.10556
-0.0947557
-0.0844625
-0.0747353
-0.0655535
-0.0570146
-0.0489651
-0.0416942
-0.0346651
-0.0287982
-0.0224438
-0.0183799
-0.0118349
-0.0107435
-0.00187112
-0.0069349
0.00950668
-0.303594
-0.284098
-0.273965
-0.263366
-0.252132
-0.24069
-0.228882
-0.216762
-0.204378
-0.191807
-0.179139
-0.166469
-0.153895
-0.141508
-0.129396
-0.117635
-0.106291
-0.0954237
-0.0850678
-0.0752791
-0.0660383
-0.0574427
-0.0493414
-0.0420195
-0.0349497
-0.0290341
-0.0226574
-0.0185349
-0.0120058
-0.0108119
-0.00204834
-0.00687856
0.00920659
-0.307187
-0.286281
-0.275656
-0.264831
-0.253438
-0.241903
-0.230044
-0.217895
-0.205492
-0.192901
-0.180208
-0.167507
-0.154892
-0.142458
-0.130291
-0.118471
-0.107063
-0.0961307
-0.0857094
-0.0758562
-0.0665533
-0.0578978
-0.0497418
-0.0423658
-0.0352528
-0.0292856
-0.0228851
-0.0187005
-0.012188
-0.0108858
-0.00223648
-0.00682039
0.00889059
-0.31064
-0.288481
-0.277295
-0.266233
-0.254704
-0.24309
-0.231194
-0.21903
-0.206617
-0.194016
-0.181306
-0.168577
-0.155926
-0.143447
-0.131226
-0.119346
-0.107874
-0.0968745
-0.0863856
-0.0764651
-0.0670973
-0.0583788
-0.0501654
-0.0427323
-0.0355739
-0.029552
-0.0231265
-0.0188764
-0.012381
-0.0109652
-0.00243499
-0.0067608
0.00856004
-0.313773
-0.290652
-0.278854
-0.267541
-0.255909
-0.244239
-0.23232
-0.220154
-0.207744
-0.195142
-0.182423
-0.169674
-0.156992
-0.144469
-0.132196
-0.120256
-0.108719
-0.0976519
-0.0870933
-0.0771033
-0.067668
-0.0588839
-0.0506105
-0.0431176
-0.0359117
-0.0298326
-0.0233808
-0.0190621
-0.0125844
-0.0110501
-0.0026433
-0.00670009
0.00821626
-0.316283
-0.292697
-0.280299
-0.268725
-0.257032
-0.245332
-0.233411
-0.221258
-0.208863
-0.19627
-0.183549
-0.170787
-0.158077
-0.145515
-0.133193
-0.121194
-0.109593
-0.0984563
-0.0878268
-0.0777656
-0.0682611
-0.0594094
-0.0510741
-0.0435192
-0.0362643
-0.0301255
-0.0236467
-0.0192565
-0.0127973
-0.01114
-0.00286073
-0.00663856
0.00786062
-0.317725
-0.294538
-0.281645
-0.269784
-0.258073
-0.246375
-0.234469
-0.222341
-0.209973
-0.197398
-0.184684
-0.171915
-0.159183
-0.146586
-0.134216
-0.12216
-0.110494
-0.0992883
-0.0885869
-0.0784531
-0.0688775
-0.059956
-0.0515569
-0.0439379
-0.0366322
-0.0304316
-0.0239247
-0.0194606
-0.0130198
-0.0112359
-0.00308669
-0.00657738
0.00749453
-0.317829
-0.296255
-0.282971
-0.27076
-0.259065
-0.247401
-0.235531
-0.223446
-0.211117
-0.198572
-0.185875
-0.173106
-0.160358
-0.147728
-0.135312
-0.123198
-0.111465
-0.100185
-0.0894074
-0.0791955
-0.0695433
-0.0605466
-0.0520782
-0.0443899
-0.0370285
-0.0307619
-0.0242226
-0.0196814
-0.0132555
-0.0113424
-0.00332151
-0.0065196
0.00711936
-0.31576
-0.297148
-0.28401
-0.271506
-0.259897
-0.248334
-0.236541
-0.224529
-0.212267
-0.199776
-0.187115
-0.174363
-0.161611
-0.148958
-0.136499
-0.124328
-0.112526
-0.10117
-0.0903091
-0.0800121
-0.0702755
-0.0611954
-0.0526497
-0.0448844
-0.0374604
-0.031121
-0.0245441
-0.0199202
-0.0135062
-0.0114585
-0.0035663
-0.00646284
0.0067356
-0.304575
-0.294316
-0.283885
-0.271454
-0.260098
-0.248739
-0.237073
-0.225158
-0.212981
-0.20056
-0.187952
-0.175236
-0.162502
-0.149849
-0.137375
-0.125174
-0.113331
-0.101924
-0.091008
-0.0806506
-0.0708536
-0.0617105
-0.0531088
-0.0452815
-0.0378149
-0.0314107
-0.0248183
-0.0201098
-0.0137366
-0.0115383
-0.00381551
-0.00637706
0.00634194
-0.269699
-0.286935
-0.283501
-0.271534
-0.260451
-0.249263
-0.237636
-0.225702
-0.213481
-0.201006
-0.188342
-0.175574
-0.162794
-0.150102
-0.137596
-0.12537
-0.113507
-0.102084
-0.0911568
-0.0807893
-0.0709883
-0.0618361
-0.0532384
-0.0453961
-0.0379484
-0.0315092
-0.0249695
-0.0201749
-0.0139322
-0.0115308
-0.00410973
-0.00620979
0.00584805
-0.258335
-0.27822
-0.278081
-0.26695
-0.256597
-0.246073
-0.234932
-0.223392
-0.211522
-0.199364
-0.186989
-0.174483
-0.16194
-0.149459
-0.137137
-0.125069
-0.11334
-0.102028
-0.0911912
-0.0808933
-0.0711478
-0.0620314
-0.0534659
-0.0456295
-0.0382056
-0.0317381
-0.0252381
-0.0203585
-0.0142204
-0.0116134
-0.00447114
-0.00607991
0.00525289
-0.253582
-0.270371
-0.271317
-0.261023
-0.251361
-0.241537
-0.230971
-0.219925
-0.208506
-0.196766
-0.184779
-0.172632
-0.160417
-0.148234
-0.136178
-0.124345
-0.112819
-0.10168
-0.0909886
-0.0808092
-0.0711612
-0.062117
-0.0536132
-0.0458089
-0.0384267
-0.03195
-0.0254965
-0.0205482
-0.0145093
-0.0117154
-0.00483387
-0.00597336
0.00464242
-0.249918
-0.26267
-0.264242
-0.254889
-0.245821
-0.236643
-0.226664
-0.216134
-0.20519
-0.193891
-0.182316
-0.17055
-0.158687
-0.146824
-0.135056
-0.123478
-0.112176
-0.10123
-0.0907019
-0.0806575
-0.0711218
-0.0621632
-0.0537322
-0.0459699
-0.0386372
-0.0321583
-0.0257563
-0.0207432
-0.0148069
-0.0118256
-0.00521057
-0.00586963
0.0040075
-0.246035
-0.254882
-0.256637
-0.248271
-0.239783
-0.231236
-0.221881
-0.211913
-0.20149
-0.190679
-0.179557
-0.168212
-0.156737
-0.145227
-0.133779
-0.122484
-0.111431
-0.100699
-0.090354
-0.0804616
-0.0710524
-0.0621914
-0.0538428
-0.0461308
-0.0388531
-0.0323771
-0.0260286
-0.0209535
-0.0151199
-0.0119507
-0.0056042
-0.00577162
0.00334982
-0.2413
-0.246808
-0.248314
-0.240931
-0.233069
-0.225165
-0.216478
-0.20713
-0.197286
-0.187019
-0.176406
-0.165533
-0.154494
-0.143382
-0.132292
-0.121317
-0.110546
-0.100058
-0.0899217
-0.0802036
-0.0709397
-0.0621924
-0.0539387
-0.0462878
-0.0390721
-0.0326062
-0.0263134
-0.0211812
-0.0154481
-0.0120939
-0.0060125
-0.00568459
0.00267617
-0.235291
-0.2382
-0.239203
-0.232789
-0.225628
-0.218394
-0.210416
-0.201744
-0.192537
-0.182871
-0.172822
-0.162475
-0.151921
-0.141253
-0.130566
-0.119951
-0.109497
-0.0992856
-0.0893869
-0.0798683
-0.070771
-0.0621558
-0.0540117
-0.0464347
-0.0392895
-0.0328423
-0.026608
-0.0214249
-0.0157898
-0.0122557
-0.00643284
-0.00561192
0.0019944
-0.227744
-0.228859
-0.229278
-0.223813
-0.21744
-0.210914
-0.203683
-0.19574
-0.187224
-0.178216
-0.168785
-0.159017
-0.148998
-0.138822
-0.128581
-0.118367
-0.108268
-0.0983672
-0.0887363
-0.079444
-0.0705364
-0.0620735
-0.054055
-0.0465662
-0.039501
-0.0330824
-0.0269099
-0.0216836
-0.0161432
-0.0124366
-0.00686265
-0.00555636
0.00131315
-0.21857
-0.218658
-0.218548
-0.21401
-0.208503
-0.202732
-0.196283
-0.189114
-0.181341
-0.17304
-0.16428
-0.15514
-0.145706
-0.136069
-0.126319
-0.116547
-0.106843
-0.0972874
-0.0879563
-0.0789189
-0.0702258
-0.0619367
-0.0540615
-0.0466765
-0.0397021
-0.0333232
-0.0272164
-0.0219554
-0.0165064