/*--------------------------------*- C++ -*----------------------------------*\
  =========                 |
  \\      /  F ield         | OpenFOAM: The Open Source CFD Toolbox
   \\    /   O peration     | Website:  https://openfoam.org
    \\  /    A nd           | Version:  7
     \\/     M anipulation  |
\*---------------------------------------------------------------------------*/
FoamFile
{
    version     2.0;
    format      ascii;
    class       volScalarField;
    location    "160";
    object      p;
}
// * * * * * * * * * * * * * * * * * * * * * * * * * * * * * * * * * * * * * //

dimensions      [0 2 -2 0 0 0 0];

internalField   nonuniform List<scalar> 
36600
(
-0.378834
-0.379895
-0.380461
-0.38087
-0.381168
-0.381394
-0.381611
-0.381874
-0.382228
-0.382712
-0.383354
-0.384182
-0.385223
-0.386509
-0.388084
-0.390002
-0.392338
-0.395198
-0.398606
-0.402668
-0.378687
-0.379539
-0.379987
-0.380294
-0.3805
-0.380643
-0.380782
-0.380971
-0.381259
-0.381685
-0.382281
-0.383079
-0.384109
-0.38541
-0.387028
-0.389027
-0.391486
-0.394524
-0.398172
-0.402519
-0.378573
-0.379218
-0.379547
-0.379752
-0.379866
-0.379924
-0.379983
-0.380098
-0.380317
-0.380682
-0.381229
-0.381991
-0.383005
-0.384311
-0.385963
-0.388029
-0.390595
-0.39379
-0.397652
-0.402242
-0.378479
-0.37892
-0.379131
-0.379234
-0.379255
-0.379228
-0.379207
-0.379245
-0.379392
-0.379692
-0.380185
-0.380906
-0.381895
-0.383197
-0.384872
-0.38699
-0.389646
-0.392975
-0.397024
-0.40181
-0.378393
-0.378634
-0.378728
-0.378731
-0.378659
-0.378546
-0.378443
-0.378402
-0.378474
-0.378705
-0.379137
-0.37981
-0.380766
-0.382055
-0.383739
-0.385895
-0.388621
-0.39206
-0.39627
-0.401186
-0.378301
-0.378351
-0.378331
-0.378235
-0.37807
-0.377871
-0.377684
-0.377561
-0.377554
-0.377711
-0.378077
-0.378693
-0.379607
-0.380871
-0.382551
-0.384728
-0.387503
-0.391028
-0.395375
-0.400338
-0.378195
-0.378061
-0.377932
-0.377737
-0.377481
-0.377195
-0.376923
-0.376716
-0.376625
-0.376702
-0.376993
-0.377544
-0.378405
-0.379632
-0.381294
-0.383476
-0.386281
-0.389867
-0.394317
-0.39946
-0.378063
-0.377757
-0.377522
-0.377233
-0.376887
-0.376514
-0.376155
-0.375859
-0.37568
-0.37567
-0.375879
-0.376356
-0.377152
-0.378329
-0.379957
-0.382126
-0.38494
-0.388563
-0.393084
-0.398319
-0.377899
-0.377433
-0.377098
-0.376717
-0.376283
-0.375823
-0.375374
-0.374986
-0.374713
-0.374609
-0.374727
-0.375119
-0.37584
-0.376953
-0.378532
-0.380669
-0.383471
-0.387106
-0.39167
-0.396929
-0.377695
-0.377084
-0.376655
-0.376186
-0.375666
-0.375118
-0.374578
-0.374094
-0.373722
-0.373516
-0.373534
-0.37383
-0.374463
-0.375497
-0.377011
-0.379098
-0.381867
-0.385489
-0.390069
-0.395313
-0.377447
-0.376705
-0.37619
-0.375638
-0.375033
-0.374398
-0.373764
-0.373181
-0.372703
-0.372389
-0.372296
-0.372485
-0.373016
-0.373958
-0.37539
-0.377408
-0.380124
-0.383709
-0.38828
-0.393478
-0.377151
-0.376294
-0.375701
-0.37507
-0.374384
-0.373662
-0.372934
-0.372246
-0.371656
-0.371225
-0.371013
-0.371082
-0.371499
-0.372333
-0.373667
-0.375599
-0.378242
-0.381767
-0.386306
-0.391432
-0.376805
-0.375851
-0.375187
-0.374484
-0.373719
-0.372911
-0.372086
-0.371291
-0.370583
-0.370026
-0.369684
-0.369623
-0.369911
-0.370622
-0.371842
-0.373671
-0.376221
-0.379667
-0.384152
-0.389185
-0.376408
-0.375375
-0.374649
-0.37388
-0.37304
-0.372146
-0.371223
-0.370316
-0.369485
-0.368794
-0.368313
-0.368109
-0.368256
-0.36883
-0.369921
-0.371628
-0.374069
-0.377415
-0.381828
-0.386753
-0.375961
-0.374867
-0.374089
-0.37326
-0.372348
-0.37137
-0.370348
-0.369326
-0.368366
-0.367534
-0.366903
-0.366546
-0.366539
-0.366962
-0.367908
-0.369479
-0.371794
-0.375023
-0.379347
-0.384154
-0.375467
-0.374331
-0.37351
-0.372626
-0.371648
-0.370587
-0.369464
-0.368325
-0.367231
-0.366251
-0.365462
-0.364941
-0.364767
-0.365027
-0.365813
-0.367233
-0.369406
-0.372503
-0.376724
-0.381407
-0.374928
-0.373769
-0.372915
-0.371984
-0.370943
-0.369801
-0.368578
-0.367319
-0.366085
-0.364952
-0.363996
-0.363301
-0.362951
-0.363034
-0.363648
-0.364903
-0.36692
-0.369872
-0.373977
-0.378533
-0.374351
-0.373187
-0.372309
-0.371338
-0.370238
-0.369017
-0.367694
-0.366312
-0.364937
-0.363644
-0.362516
-0.361639
-0.361102
-0.360998
-0.361428
-0.362505
-0.364355
-0.367149
-0.371127
-0.375556
-0.373741
-0.372591
-0.371699
-0.370694
-0.369539
-0.368242
-0.366818
-0.365314
-0.363794
-0.362337
-0.361031
-0.359965
-0.359234
-0.358935
-0.359171
-0.360059
-0.361729
-0.364354
-0.368195
-0.372496
-0.373107
-0.371987
-0.37109
-0.370058
-0.368853
-0.367481
-0.365959
-0.364331
-0.362665
-0.361042
-0.359553
-0.358294
-0.357363
-0.35686
-0.356895
-0.357586
-0.359067
-0.361512
-0.365207
-0.369373
-0.372456
-0.371384
-0.37049
-0.369437
-0.368186
-0.366743
-0.365123
-0.363371
-0.361558
-0.359768
-0.358095
-0.35664
-0.355504
-0.354795
-0.354622
-0.355109
-0.356392
-0.358647
-0.362187
-0.366207
-0.371799
-0.37079
-0.369907
-0.368838
-0.367546
-0.366034
-0.364317
-0.362444
-0.360485
-0.358528
-0.356671
-0.355019
-0.353678
-0.35276
-0.352377
-0.352656
-0.353734
-0.355789
-0.359163
-0.363012
-0.371147
-0.370216
-0.36935
-0.368271
-0.366941
-0.365362
-0.363552
-0.361559
-0.359456
-0.357333
-0.355294
-0.353447
-0.351903
-0.350777
-0.350184
-0.350253
-0.351122
-0.352968
-0.356164
-0.3598
-0.370513
-0.369671
-0.36883
-0.367744
-0.366379
-0.364737
-0.362836
-0.360725
-0.358481
-0.356197
-0.35398
-0.351942
-0.350199
-0.348869
-0.34807
-0.34793
-0.348589
-0.350214
-0.353221
-0.356579
-0.369911
-0.369168
-0.368356
-0.367267
-0.36587
-0.364166
-0.362177
-0.359953
-0.357573
-0.355133
-0.352743
-0.350521
-0.348587
-0.34706
-0.346061
-0.345717
-0.346166
-0.347561
-0.350367
-0.353357
-0.369354
-0.368719
-0.367939
-0.366849
-0.365422
-0.36366
-0.361586
-0.359253
-0.356742
-0.354152
-0.351599
-0.349202
-0.347086
-0.345373
-0.344184
-0.343645
-0.343887
-0.345042
-0.347637
-0.350138
-0.368858
-0.368337
-0.36759
-0.366502
-0.365047
-0.363228
-0.361072
-0.358636
-0.356
-0.35327
-0.350563
-0.348003
-0.345717
-0.343831
-0.342466
-0.341742
-0.341784
-0.342691
-0.345066
-0.346932
-0.36844
-0.368034
-0.367323
-0.366236
-0.364754
-0.362881
-0.360648
-0.358113
-0.355361
-0.3525
-0.349651
-0.346941
-0.3445
-0.342457
-0.34093
-0.340036
-0.339887
-0.340538
-0.342689
-0.34375
-0.368117
-0.367826
-0.367148
-0.366062
-0.364553
-0.362629
-0.360322
-0.357695
-0.354836
-0.351855
-0.348876
-0.346031
-0.343453
-0.341269
-0.339598
-0.33855
-0.338223
-0.338611
-0.340539
-0.340612
-0.367905
-0.367726
-0.36708
-0.365992
-0.364457
-0.362482
-0.360106
-0.357394
-0.354438
-0.351349
-0.348255
-0.345291
-0.342592
-0.340286
-0.33849
-0.337304
-0.336812
-0.336933
-0.338641
-0.337547
-0.367823
-0.367747
-0.367129
-0.366038
-0.364475
-0.362452
-0.360012
-0.357222
-0.354178
-0.350993
-0.3478
-0.344734
-0.341932
-0.339524
-0.337621
-0.336314
-0.33567
-0.335517
-0.337013
-0.334593
-0.367887
-0.367905
-0.367309
-0.366211
-0.364619
-0.36255
-0.360049
-0.357189
-0.354067
-0.350801
-0.347523
-0.344372
-0.341486
-0.338994
-0.337001
-0.335588
-0.334802
-0.334375
-0.335658
-0.331795
-0.368114
-0.368212
-0.367631
-0.366522
-0.364899
-0.362784
-0.360228
-0.357306
-0.354117
-0.350782
-0.347435
-0.344216
-0.341263
-0.338704
-0.336637
-0.335132
-0.334212
-0.333509
-0.334567
-0.329208
-0.368519
-0.368681
-0.368106
-0.36698
-0.365325
-0.363166
-0.360558
-0.357581
-0.354336
-0.350946
-0.347544
-0.344272
-0.341269
-0.338658
-0.336532
-0.334944
-0.333892
-0.332922
-0.333719
-0.326892
-0.369117
-0.369324
-0.368746
-0.367597
-0.365905
-0.363702
-0.361047
-0.358022
-0.354732
-0.351298
-0.347855
-0.344546
-0.341507
-0.338857
-0.336681
-0.33502
-0.333835
-0.332618
-0.333093
-0.324933
-0.36992
-0.37015
-0.369558
-0.368379
-0.366648
-0.364401
-0.361703
-0.358637
-0.355309
-0.351842
-0.348372
-0.345038
-0.341975
-0.339296
-0.337079
-0.335351
-0.334029
-0.332599
-0.332665
-0.323441
-0.37094
-0.37117
-0.370552
-0.369334
-0.36756
-0.365269
-0.362529
-0.359427
-0.35607
-0.352581
-0.349094
-0.345746
-0.342668
-0.339969
-0.337715
-0.335927
-0.33446
-0.332873
-0.332377
-0.322416
-0.372185
-0.372389
-0.371732
-0.370468
-0.368645
-0.366308
-0.363529
-0.360396
-0.357017
-0.353513
-0.350018
-0.346664
-0.343577
-0.340862
-0.338577
-0.336737
-0.335135
-0.333487
-0.332148
-0.321535
-0.373661
-0.373814
-0.373106
-0.371785
-0.369907
-0.367522
-0.364704
-0.361543
-0.358146
-0.354634
-0.351136
-0.347781
-0.34469
-0.34196
-0.339645
-0.337765
-0.336072
-0.334565
-0.332187
-0.321122
-0.375374
-0.37545
-0.374675
-0.373288
-0.371349
-0.368911
-0.366053
-0.362866
-0.359455
-0.355938
-0.352441
-0.349087
-0.345991
-0.343244
-0.340896
-0.338982
-0.337255
-0.336142
-0.333305
-0.325916
-0.377325
-0.377297
-0.376443
-0.374979
-0.37297
-0.370475
-0.367576
-0.364361
-0.360937
-0.357417
-0.353921
-0.350567
-0.347462
-0.344691
-0.342299
-0.34034
-0.338587
-0.337845
-0.3356
-0.343341
-0.379515
-0.379359
-0.37841
-0.376858
-0.37477
-0.372213
-0.369267
-0.366024
-0.362585
-0.359061
-0.355564
-0.352207
-0.349085
-0.346276
-0.34382
-0.341785
-0.339968
-0.339397
-0.337414
-0.346774
-0.381943
-0.381635
-0.380575
-0.378924
-0.376749
-0.374122
-0.371125
-0.367849
-0.364393
-0.36086
-0.357359
-0.353989
-0.350839
-0.347973
-0.345425
-0.343265
-0.341309
-0.340617
-0.338469
-0.346639
-0.384606
-0.384121
-0.382941
-0.381176
-0.378903
-0.376198
-0.373144
-0.36983
-0.366351
-0.362806
-0.359293
-0.3559
-0.352703
-0.349756
-0.34708
-0.344738
-0.342556
-0.341511
-0.338982
-0.345369
-0.387502
-0.386819
-0.385504
-0.383614
-0.381232
-0.37844
-0.375321
-0.371963
-0.368455
-0.36489
-0.361353
-0.357924
-0.35466
-0.351602
-0.348755
-0.346169
-0.343671
-0.342107
-0.33905
-0.343368
-0.390627
-0.389727
-0.388262
-0.386236
-0.383734
-0.380846
-0.377654
-0.374243
-0.370698
-0.367102
-0.363531
-0.360046
-0.356691
-0.353487
-0.350423
-0.347529
-0.344632
-0.342432
-0.338747
-0.34098
-0.393977
-0.392841
-0.391214
-0.38904
-0.386408
-0.383413
-0.380139
-0.376666
-0.373075
-0.369438
-0.365816
-0.362255
-0.358778
-0.355389
-0.352059
-0.348795
-0.345426
-0.342513
-0.338142
-0.338424
-0.397548
-0.396161
-0.39436
-0.392025
-0.389253
-0.386142
-0.382776
-0.379233
-0.375584
-0.371891
-0.3682
-0.364537
-0.360906
-0.357289
-0.353642
-0.34995
-0.346048
-0.342377
-0.337292
-0.335819
-0.401338
-0.399685
-0.397699
-0.395193
-0.392269
-0.389032
-0.385565
-0.381941
-0.378223
-0.374459
-0.370676
-0.366882
-0.363059
-0.359169
-0.355153
-0.35098
-0.346495
-0.342049
-0.336247
-0.33323
-0.405343
-0.403412
-0.40123
-0.398544
-0.395459
-0.392087
-0.388509
-0.384793
-0.380991
-0.377136
-0.373237
-0.369278
-0.365222
-0.361011
-0.356576
-0.351876
-0.346771
-0.341548
-0.335041
-0.330685
-0.409563
-0.407341
-0.404954
-0.402078
-0.398823
-0.395307
-0.391609
-0.387789
-0.383889
-0.379921
-0.375876
-0.371716
-0.367381
-0.362801
-0.357898
-0.352631
-0.34688
-0.340892
-0.333704
-0.328191
-0.413995
-0.411471
-0.408872
-0.405798
-0.402365
-0.398697
-0.394869
-0.390933
-0.386915
-0.382811
-0.378587
-0.374183
-0.369523
-0.364524
-0.359108
-0.35324
-0.346828
-0.340096
-0.332255
-0.325747
-0.41864
-0.415805
-0.412985
-0.409707
-0.406089
-0.402261
-0.398292
-0.394225
-0.390069
-0.3858
-0.38136
-0.376669
-0.371634
-0.366167
-0.360197
-0.353701
-0.34662
-0.33917
-0.33071
-0.323344
-0.423496
-0.42034
-0.417295
-0.413805
-0.409996
-0.406001
-0.401881
-0.397667
-0.39335
-0.388883
-0.384187
-0.37916
-0.373699
-0.367718
-0.361157
-0.354013
-0.346264
-0.338126
-0.32908
-0.32097
-0.428565
-0.425078
-0.421801
-0.418097
-0.414091
-0.409921
-0.405639
-0.40126
-0.396756
-0.392055
-0.387056
-0.381643
-0.375706
-0.369165
-0.361981
-0.354177
-0.345766
-0.33697
-0.327372
-0.318612
-0.433844
-0.430019
-0.426507
-0.422583
-0.418376
-0.414023
-0.409565
-0.405001
-0.400279
-0.395305
-0.389956
-0.384104
-0.377641
-0.370499
-0.362666
-0.354193
-0.34513
-0.335707
-0.32559
-0.316257
-0.439333
-0.435162
-0.43141
-0.427264
-0.422852
-0.418308
-0.413661
-0.408888
-0.403914
-0.398622
-0.392872
-0.386528
-0.37949
-0.37171
-0.363207
-0.354063
-0.344362
-0.334343
-0.323738
-0.313893
-0.44503
-0.440505
-0.436512
-0.432141
-0.427519
-0.422776
-0.417922
-0.412913
-0.407651
-0.401994
-0.395788
-0.388899
-0.38124
-0.37279
-0.363601
-0.353788
-0.343467
-0.332881
-0.321816
-0.311509
-0.450931
-0.446045
-0.441809
-0.437212
-0.432376
-0.427423
-0.422343
-0.417069
-0.411476
-0.405403
-0.398688
-0.391201
-0.382878
-0.37373
-0.363846
-0.35337
-0.342446
-0.331321
-0.319822
-0.309094
-0.457031
-0.451779
-0.447298
-0.442474
-0.437419
-0.432244
-0.426917
-0.421344
-0.415375
-0.408833
-0.401552
-0.393418
-0.384392
-0.374524
-0.363938
-0.352809
-0.341303
-0.329665
-0.317756
-0.306638
-0.463322
-0.457699
-0.452974
-0.447922
-0.442642
-0.437232
-0.431633
-0.425723
-0.419329
-0.412263
-0.404361
-0.395531
-0.385769
-0.375164
-0.363877
-0.352106
-0.340038
-0.327912
-0.315615
-0.304133
-0.469797
-0.463798
-0.458829
-0.453548
-0.448037
-0.442375
-0.436476
-0.430188
-0.423319
-0.415671
-0.407095
-0.397525
-0.386998
-0.375645
-0.363658
-0.351261
-0.338651
-0.32606
-0.313395
-0.301571
-0.476443
-0.470066
-0.464854
-0.459343
-0.453592
-0.447661
-0.44143
-0.43472
-0.42732
-0.419035
-0.409732
-0.399383
-0.388068
-0.375958
-0.36328
-0.350272
-0.337141
-0.324106
-0.311093
-0.298942
-0.483246
-0.47649
-0.471037
-0.465295
-0.459295
-0.453072
-0.446474
-0.439294
-0.431309
-0.422329
-0.412251
-0.401088
-0.388966
-0.376099
-0.362739
-0.349138
-0.335506
-0.322048
-0.308702
-0.296241
-0.49019
-0.483055
-0.477364
-0.471388
-0.465127
-0.45859
-0.451585
-0.443885
-0.435257
-0.425528
-0.41463
-0.402623
-0.389683
-0.37606
-0.362031
-0.347856
-0.333743
-0.31988
-0.306218
-0.293458
-0.497256
-0.489744
-0.483818
-0.477604
-0.47107
-0.46419
-0.456738
-0.448464
-0.439137
-0.428606
-0.416848
-0.403973
-0.390207
-0.375835
-0.361153
-0.346423
-0.331849
-0.317599
-0.303634
-0.290588
-0.504421
-0.496536
-0.490378
-0.483925
-0.477101
-0.469847
-0.461903
-0.453001
-0.442918
-0.431537
-0.418882
-0.405122
-0.390528
-0.375417
-0.360098
-0.344833
-0.329817
-0.315198
-0.300945
-0.287623
-0.511662
-0.50341
-0.497024
-0.490325
-0.483195
-0.475533
-0.467049
-0.457464
-0.44657
-0.434293
-0.420712
-0.406055
-0.390635
-0.374799
-0.358863
-0.343083
-0.327643
-0.312671
-0.298144
-0.284557
-0.51895
-0.51034
-0.503729
-0.49678
-0.489321
-0.481217
-0.472144
-0.461821
-0.450064
-0.436848
-0.422318
-0.406756
-0.390519
-0.373973
-0.357439
-0.341165
-0.32532
-0.310013
-0.295224
-0.281381
-0.526256
-0.517297
-0.510465
-0.503258
-0.49545
-0.486863
-0.477151
-0.466034
-0.453365
-0.439177
-0.423679
-0.407211
-0.390168
-0.372931
-0.355821
-0.339073
-0.322842
-0.307215
-0.292179
-0.278089
-0.533546
-0.52425
-0.517202
-0.509728
-0.501544
-0.492435
-0.482032
-0.470068
-0.456442
-0.441251
-0.424775
-0.407405
-0.389571
-0.371665
-0.354001
-0.336801
-0.320202
-0.304271
-0.288999
-0.274675
-0.540785
-0.531167
-0.523905
-0.516154
-0.507569
-0.497894
-0.486748
-0.473886
-0.459263
-0.443047
-0.425586
-0.407324
-0.388718
-0.370166
-0.351972
-0.33434
-0.317391
-0.301172
-0.285679
-0.271131
-0.547937
-0.538011
-0.53054
-0.5225
-0.513483
-0.5032
-0.491259
-0.477452
-0.461797
-0.444539
-0.426094
-0.406955
-0.387599
-0.368425
-0.349724
-0.331682
-0.314402
-0.297912
-0.282211
-0.26745
-0.554961
-0.544746
-0.537068
-0.528727
-0.519248
-0.50831
-0.495526
-0.480731
-0.464015
-0.445704
-0.426282
-0.406284
-0.386202
-0.366432
-0.34725
-0.32882
-0.311228
-0.294484
-0.278588
-0.263626
-0.561817
-0.55133
-0.543448
-0.534792
-0.524818
-0.513182
-0.499508
-0.483685
-0.465886
-0.446519
-0.426132
-0.405297
-0.384517
-0.364179
-0.34454
-0.325745
-0.307859
-0.290878
-0.274802
-0.259652
-0.56846
-0.557723
-0.549639
-0.540651
-0.530151
-0.517772
-0.503164
-0.486281
-0.467382
-0.446961
-0.425626
-0.403981
-0.382533
-0.361656
-0.341586
-0.322448
-0.304288
-0.287088
-0.270846
-0.255521
-0.574846
-0.56388
-0.555596
-0.54626
-0.535199
-0.522035
-0.506453
-0.488482
-0.468476
-0.44701
-0.42475
-0.402324
-0.380239
-0.358852
-0.338379
-0.318921
-0.300508
-0.283106
-0.266714
-0.251228
-0.580928
-0.569757
-0.561274
-0.551571
-0.539916
-0.525927
-0.509335
-0.490256
-0.46914
-0.446645
-0.423487
-0.400313
-0.377625
-0.355759
-0.334909
-0.315156
-0.296509
-0.278924
-0.262398
-0.246766
-0.58666
-0.575307
-0.566625
-0.556538
-0.544257
-0.529405
-0.511773
-0.491572
-0.469351
-0.445848
-0.421824
-0.397937
-0.37468
-0.352367
-0.331168
-0.311143
-0.292284
-0.274537
-0.257891
-0.24213
-0.591994
-0.580483
-0.571603
-0.561113
-0.548173
-0.532425
-0.513729
-0.492398
-0.469085
-0.4446
-0.419745
-0.395184
-0.371394
-0.348667
-0.327147
-0.306875
-0.287826
-0.269935
-0.253188
-0.237315
-0.596882
-0.585238
-0.57616
-0.565248
-0.55162
-0.534945
-0.515167
-0.492707
-0.468319
-0.442885
-0.417238
-0.392042
-0.367756
-0.344649
-0.322837
-0.302344
-0.283127
-0.265114
-0.248283
-0.232314
-0.601276
-0.589524
-0.580246
-0.568895
-0.55455
-0.536925
-0.516052
-0.49247
-0.467032
-0.440687
-0.414289
-0.388501
-0.363759
-0.340304
-0.318231
-0.297542
-0.27818
-0.260067
-0.24317
-0.227124
-0.605127
-0.593294
-0.583815
-0.572006
-0.556921
-0.538324
-0.516353
-0.491663
-0.465207
-0.43799
-0.410888
-0.384551
-0.359392
-0.335625
-0.313321
-0.292463
-0.27298
-0.254789
-0.237844
-0.22174
-0.608389
-0.596501
-0.58682
-0.574537
-0.55869
-0.539107
-0.516039
-0.490262
-0.462825
-0.434783
-0.407024
-0.380183
-0.354647
-0.330604
-0.308099
-0.287099
-0.26752
-0.249273
-0.2323
-0.216158
-0.611016
-0.599099
-0.589214
-0.576442
-0.559815
-0.539238
-0.515082
-0.488247
-0.45987
-0.431052
-0.402686
-0.375388
-0.349517
-0.325233
-0.302559
-0.281445
-0.261795
-0.243514
-0.226534
-0.210374
-0.612963
-0.601042
-0.590953
-0.577679
-0.560259
-0.538684
-0.513457
-0.485598
-0.456329
-0.426787
-0.397865
-0.370157
-0.343994
-0.319505
-0.296695
-0.275495
-0.255799
-0.237509
-0.220542
-0.204386
-0.614187
-0.602288
-0.591994
-0.578206
-0.559983
-0.537417
-0.511141
-0.482298
-0.452188
-0.421978
-0.392554
-0.364485
-0.338071
-0.313415
-0.2905
-0.269244
-0.249529
-0.231254
-0.21432
-0.198189
-0.614647
-0.602795
-0.592296
-0.577985
-0.558956
-0.535407
-0.508113
-0.478333
-0.447437
-0.416617
-0.386745
-0.358365
-0.331743
-0.306958
-0.283972
-0.262688
-0.24298
-0.224744
-0.207866
-0.191784
-0.614304
-0.602524
-0.59182
-0.576981
-0.557146
-0.532632
-0.504355
-0.473688
-0.442066
-0.410696
-0.380433
-0.351791
-0.325006
-0.300129
-0.277104
-0.255824
-0.236149
-0.217976
-0.201179
-0.18517
-0.613122
-0.601438
-0.59053
-0.57516
-0.554525
-0.529069
-0.499851
-0.468354
-0.436069
-0.40421
-0.373613
-0.34476
-0.317854
-0.292924
-0.269895
-0.248647
-0.229033
-0.210947
-0.194255
-0.178348
-0.611067
-0.599502
-0.588392
-0.572492
-0.551068
-0.5247
-0.494589
-0.462322
-0.429438
-0.397154
-0.366282
-0.337268
-0.310286
-0.285341
-0.262342
-0.241157
-0.221629
-0.203651
-0.187085
-0.171296
-0.608108
-0.596685
-0.585377
-0.56895
-0.546755
-0.519509
-0.488558
-0.455586
-0.422171
-0.389526
-0.358436
-0.329312
-0.3023
-0.277379
-0.254444
-0.233352
-0.213937
-0.196091
-0.179665
-0.163964
-0.604219
-0.59296
-0.581458
-0.564512
-0.541566
-0.513484
-0.481751
-0.448141
-0.414265
-0.381325
-0.350076
-0.320893
-0.293894
-0.269036
-0.246201
-0.225234
-0.20596
-0.188281
-0.17202
-0.15631
-0.599374
-0.588301
-0.576611
-0.559156
-0.535487
-0.506616
-0.474163
-0.439986
-0.405719
-0.37255
-0.3412
-0.312011
-0.285069
-0.260314
-0.237612
-0.216802
-0.197701
-0.180229
-0.164189
-0.148459
-0.593553
-0.582686
-0.570816
-0.552867
-0.528507
-0.498897
-0.465791
-0.43112
-0.396534
-0.363203
-0.331811
-0.302666
-0.275827
-0.251214
-0.22868
-0.208059
-0.18916
-0.171912
-0.15602
-0.140581
-0.586739
-0.576099
-0.564057
-0.545633
-0.520617
-0.490325
-0.456636
-0.421545
-0.386714
-0.353287
-0.321912
-0.292861
-0.266169
-0.241736
-0.219403
-0.199009
-0.180341
-0.163336
-0.147634
-0.1325
-0.578918
-0.568523
-0.556321
-0.537443
-0.511814
-0.4809
-0.4467
-0.411266
-0.376263
-0.342806
-0.311506
-0.282601
-0.2561
-0.231885
-0.209779
-0.189663
-0.171244
-0.154506
-0.139037
-0.124199
-0.57008
-0.55995
-0.5476
-0.528293
-0.502096
-0.470624
-0.435988
-0.400289
-0.365187
-0.331766
-0.300599
-0.27189
-0.245624
-0.221668
-0.199847
-0.179991
-0.161872
-0.145429
-0.130223
-0.11568
-0.56022
-0.550372
-0.537887
-0.518182
-0.491465
-0.459502
-0.424507
-0.388621
-0.353494
-0.320175
-0.289198
-0.260734
-0.234747
-0.21109
-0.189581
-0.170028
-0.152229
-0.136109
-0.121193
-0.106953
-0.549336
-0.539787
-0.527183
-0.50711
-0.479928
-0.447543
-0.412268
-0.376274
-0.341195
-0.308042
-0.27731
-0.249142
-0.223476
-0.200156
-0.17899
-0.159777
-0.142324
-0.126551
-0.111947
-0.0980244
-0.537428
-0.528194
-0.51549
-0.495084
-0.467492
-0.434758
-0.399282
-0.363258
-0.328299
-0.295377
-0.264946
-0.237122
-0.21182
-0.188873
-0.168083
-0.149243
-0.132162
-0.116763
-0.10249
-0.0889022
-0.524502
-0.5156
-0.502813
-0.482112
-0.454169
-0.421161
-0.385564
-0.349588
-0.31482
-0.282191
-0.252117
-0.224682
-0.199787
-0.177251
-0.15687
-0.138433
-0.121752
-0.106749
-0.0928283
-0.079593
-0.510567
-0.502011
-0.489163
-0.468207
-0.439975
-0.406767
-0.371129
-0.33528
-0.300773
-0.268498
-0.238833
-0.211835
-0.187387
-0.165299
-0.14536
-0.127355
-0.111101
-0.0965188
-0.0829694
-0.070104
-0.495636
-0.487441
-0.474553
-0.453385
-0.424927
-0.391595
-0.355998
-0.320351
-0.286173
-0.254313
-0.225109
-0.198594
-0.174633
-0.153027
-0.133563
-0.11602
-0.100219
-0.0860802
-0.0729212
-0.0604434
-0.479725
-0.471904
-0.458999
-0.437664
-0.409044
-0.375667
-0.34019
-0.30482
-0.271038
-0.23965
-0.210959
-0.18497
-0.161536
-0.140449
-0.12149
-0.104439
-0.0891152
-0.0754429
-0.0626932
-0.05062
-0.462853
-0.45542
-0.442523
-0.421067
-0.392351
-0.359005
-0.323728
-0.288706
-0.255387
-0.224529
-0.196399
-0.17098
-0.14811
-0.127575
-0.109154
-0.0926211
-0.0778015
-0.0646175
-0.0522957
-0.0406438
-0.445044
-0.43801
-0.425147
-0.403618
-0.374874
-0.34164
-0.306629
-0.272033
-0.23924
-0.208966
-0.181445
-0.156637
-0.134369
-0.114421
-0.0965668
-0.0805804
-0.0662896
-0.0536156
-0.0417402
-0.0305262
-0.426324
-0.419701
-0.406897
-0.385344
-0.356644
-0.323602
-0.288916
-0.254823
-0.222619
-0.192981
-0.166115
-0.141959
-0.12033
-0.101
-0.0837428
-0.0683297
-0.0545923
-0.04245
-0.0310394
-0.0202808
-0.406722
-0.40052
-0.387803
-0.366278
-0.337688
-0.304886
-0.270645
-0.237105
-0.205545
-0.176596
-0.150429
-0.126964
-0.106007
-0.0873278
-0.0706959
-0.0558828
-0.0427234
-0.031134
-0.0202076
-0.00992296
-0.386269
-0.3805
-0.367898
-0.346455
-0.31803
-0.285557
-0.251822
-0.218902
-0.188044
-0.159831
-0.134405
-0.111669
-0.0914179
-0.0734196
-0.0574412
-0.0432539
-0.0306971
-0.019682
-0.00926013
0.000528847
-0.364998
-0.359676
-0.347217
-0.325913
-0.297699
-0.265645
-0.232478
-0.200243
-0.170141
-0.142711
-0.118066
-0.096093
-0.0765804
-0.0592918
-0.0439939
-0.030458
-0.0185283
-0.00810897
0.00178614
0.0110534
-0.342947
-0.338085
-0.325801
-0.304653
-0.276763
-0.24518
-0.212647
-0.181157
-0.151861
-0.125258
-0.101433
-0.0802567
-0.0615124
-0.0449613
-0.0303695
-0.0175099
-0.00623184
0.00356983
0.0129131
0.0216245
-0.320154
-0.315768
-0.303694
-0.282733
-0.25524
-0.224198
-0.192361
-0.161673
-0.133233
-0.107498
-0.0845278
-0.0641804
-0.0462327
-0.0304452
-0.0165839
-0.00442455
0.00617742
0.0153394
0.0241008
0.0322067
-0.296656
-0.292765
-0.280891
-0.26024
-0.233171
-0.202735
-0.171657
-0.141824
-0.114285
-0.0894563
-0.0673746
-0.0478853
-0.0307607
-0.0157608
-0.00265267
0.00878363
0.0186856
0.0271857
0.035328
0.0427578
-0.272485
-0.269135
-0.257484
-0.237178
-0.210597
-0.180831
-0.150568
-0.121641
-0.095045
-0.0711594
-0.0499974
-0.0313934
-0.0151162
-0.000925956
0.0114085
0.0221007
0.0312797
0.0390972
0.0465789
0.0532443
-0.247682
-0.244936
-0.23352
-0.213592
-0.187562
-0.158525
-0.129131
-0.101157
-0.0755441
-0.0526347
-0.032421
-0.0147273
0.000680399
0.0140414
0.0255843
0.0355131
0.0439473
0.0510669
0.0578509
0.0636405
-0.222379
-0.220153
-0.209038
-0.189532
-0.164108
-0.135856
-0.107384
-0.0804062
-0.0558128
-0.0339105
-0.0146711
0.00208973
0.0166083
0.029123
0.0398591
0.0490074
0.0566792
0.0630981
0.0691438
0.0738497
-0.196609
-0.194838
-0.184083
-0.165044
-0.140281
-0.112868
-0.0853642
-0.0594232
-0.0358828
-0.0150154
0.00322587
0.0190337
0.0326459
0.0443001
0.0542173
0.0625722
0.0694762
0.0752138
0.0804267
0.0835976
-0.170375
-0.169078
-0.158707
-0.140177
-0.116125
-0.0896013
-0.0631105
-0.0382432
-0.0157863
0.00402082
0.0212429
0.0360797
0.0487708
0.059553
0.0686422
0.0761981
0.082354
0.0874576
0.0916549
0.0926218
-0.143732
-0.142927
-0.132959
-0.11498
-0.091687
-0.0660995
-0.0406623
-0.0169024
0.00444364
0.0231681
0.0393523
0.0532024
0.0649596
0.0748601
0.0831145
0.0898753
0.0953239
0.0998362
0.102837
0.101565
-0.116738
-0.116437
-0.106892
-0.0895041
-0.067015
-0.0424061
-0.0180594
0.0045629
0.0247737
0.0423957
0.0575256
0.0703756
0.0811879
0.0901982
0.0976125
0.103586
0.108356
0.11223
0.113888
0.113183
-0.0894497
-0.0896588
-0.0805584
-0.0637989
-0.0421559
-0.0185651
0.00465765
0.0261156
0.0451699
0.0616723
0.0757339
0.0875722
0.0974304
0.105543
0.112113
0.117303
0.121379
0.124557
0.125436
0.125468
-0.0619233
-0.0626485
-0.054013
-0.0379163
-0.0171579
0.00537902
0.0274482
0.0477184
0.0655979
0.0809664
0.0939481
0.104765
0.113661
0.12087
0.126592
0.130998
0.134359
0.136821
0.137087
0.137203
-0.0342164
-0.0354613
-0.0273099
-0.0119083
0.00793028
0.0293816
0.0502713
0.0693337
0.0860233
0.100246
0.112139
0.121927
0.129855
0.136155
0.141026
0.144643
0.147278
0.149032
0.148739
0.148644
-0.0063866
-0.00815303
-0.000503972
0.014173
0.0330602
0.0533978
0.0730858
0.0909239
0.106411
0.119479
0.130276
0.13903
0.145985
0.151373
0.15539
0.158215
0.160113
0.161163
0.16031
0.159861
0.0215086
0.0192199
0.0263499
0.0402754
0.0581831
0.0773827
0.0958505
0.112451
0.126727
0.138634
0.148329
0.156046
0.162026
0.166499
0.16966
0.17169
0.172845
0.173191
0.171762
0.170876
0.0494113
0.0466007
0.0531965
0.0663467
0.0832502
0.101291
0.118524
0.133878
0.146937
0.157678
0.16627
0.172947
0.177952
0.181509
0.183814
0.185045
0.185454
0.185095
0.183073
0.181699
0.0772638
0.0739329
0.0799808
0.0923346
0.108213
0.125079
0.141066
0.155166
0.167004
0.17658
0.184069
0.189707
0.193736
0.196379
0.197828
0.19826
0.197921
0.196854
0.194229
0.192333
0.105008
0.10116
0.106648
0.118187
0.133023
0.148702
0.163435
0.176278
0.186896
0.195307
0.201695
0.206298
0.209354
0.211085
0.211681
0.211316
0.210227
0.208452
0.205217
0.202777
0.132588
0.128225
0.133143
0.143853
0.157633
0.172115
0.185591
0.197178
0.206578
0.213828
0.21912
0.222692
0.224781
0.225605
0.22535
0.224191
0.222356
0.219873
0.216026
0.213028
0.159945
0.155072
0.159413
0.169281
0.181995
0.195275
0.207493
0.217827
0.226015
0.232112
0.236316
0.238864
0.239992
0.239915
0.238816
0.236867
0.234289
0.231103
0.226644
0.223078
0.187023
0.181645
0.185403
0.19442
0.206062
0.218139
0.229103
0.23819
0.245175
0.250128
0.253252
0.254786
0.254962
0.253992
0.252058
0.249326
0.24601
0.242126
0.23706
0.23292
0.213766
0.20789
0.21106
0.219221
0.229788
0.240664
0.25038
0.258231
0.264024
0.267845
0.269902
0.270433
0.269668
0.267816
0.265055
0.261548
0.257503
0.252929
0.247262
0.242545
0.24012
0.233753
0.236333
0.243634
0.253128
0.262808
0.271287
0.277915
0.28253
0.285234
0.286237
0.285779
0.284087
0.281365
0.277788
0.273517
0.268752
0.263497
0.257237
0.251943
0.266029
0.25918
0.261169
0.267612
0.276036
0.284531
0.291786
0.297206
0.300661
0.302264
0.302231
0.3008
0.298194
0.294616
0.290237
0.285215
0.279741
0.273817
0.266974
0.261106
0.291441
0.284118
0.285519
0.291106
0.298469
0.305791
0.31184
0.316072
0.318385
0.318907
0.317857
0.31547
0.311968
0.30755
0.302384
0.296624
0.290454
0.283875
0.276461
0.270021
0.316304
0.308517
0.309334
0.314071
0.320384
0.32655
0.331412
0.334477
0.335672
0.335135
0.333088
0.329765
0.325387
0.320146
0.314209
0.307727
0.300876
0.293656
0.285684
0.278679
0.340566
0.332326
0.332565
0.336462
0.341739
0.346769
0.350468
0.352391
0.352492
0.35092
0.347899
0.343663
0.338428
0.332385
0.325695
0.318508
0.310992
0.303148
0.294631
0.287069
0.364178
0.355498
0.355166
0.358234
0.362495
0.366411
0.368972
0.369781
0.368815
0.366235
0.362266
0.357141
0.351071
0.344246
0.336824
0.328951
0.320787
0.312336
0.303291
0.295181
0.387091
0.377983
0.377091
0.379346
0.38261
0.38544
0.386892
0.386617
0.384615
0.381055
0.376165
0.370175
0.363296
0.355712
0.347579
0.339039
0.330248
0.321208
0.311651
0.303005
0.409259
0.399737
0.398296
0.399755
0.402048
0.40382
0.404195
0.402869
0.399862
0.395353
0.389571
0.382745
0.375082
0.366764
0.357943
0.348759
0.339359
0.329751
0.319698
0.310529
0.430637
0.420715
0.418739
0.419423
0.420771
0.421517
0.420851
0.418508
0.414531
0.409106
0.402463
0.39483
0.386411
0.377384
0.367899
0.358093
0.348108
0.337952
0.327423
0.317745
0.451182
0.440875
0.438379
0.438311
0.438745
0.4385
0.436829
0.433507
0.428596
0.422289
0.414819
0.40641
0.397263
0.387555
0.377433
0.367029
0.35648
0.345799
0.334813
0.324641
0.47085
0.460175
0.457177
0.456381
0.455934
0.454736
0.452101
0.447839
0.442032
0.434881
0.426618
0.417465
0.407622
0.397261
0.386528
0.375553
0.364464
0.35328
0.341857
0.33121
0.489604
0.478577
0.475095
0.473601
0.472308
0.470196
0.466638
0.461479
0.454817
0.44686
0.437839
0.427977
0.41747
0.406487
0.395172
0.38365
0.372047
0.360385
0.348544
0.337442
0.507404
0.496042
0.492098
0.489935
0.487834
0.484853
0.480416
0.474403
0.466928
0.458205
0.448465
0.437929
0.42679
0.415217
0.403348
0.391309
0.379218
0.367102
0.354866
0.343327
0.524214
0.512537
0.508152
0.505352
0.502485
0.498678
0.493408
0.486587
0.478344
0.468896
0.458477
0.447304
0.435569
0.423437
0.411046
0.398517
0.385965
0.373421
0.360812
0.348859
0.540001
0.528027
0.523225
0.519823
0.516232
0.511646
0.505593
0.498011
0.489045
0.478916
0.467857
0.456085
0.44379
0.431133
0.418251
0.405263
0.392278
0.379332
0.366373
0.354029
0.554733
0.542482
0.537287
0.53332
0.529049
0.523734
0.516947
0.508655
0.499013
0.488247
0.476591
0.46426
0.451441
0.438294
0.424954
0.411536
0.398147
0.384826
0.371541
0.358829
0.56838
0.555871
0.550311
0.545817
0.540913
0.534919
0.527451
0.518498
0.508229
0.496872
0.484662
0.471813
0.458508
0.444907
0.431142
0.417326
0.403562
0.389894
0.376306
0.363254
0.580915
0.568169
0.56227
0.557289