/*--------------------------------*- C++ -*----------------------------------*\
  =========                 |
  \\      /  F ield         | OpenFOAM: The Open Source CFD Toolbox
   \\    /   O peration     | Website:  https://openfoam.org
    \\  /    A nd           | Version:  7
     \\/     M anipulation  |
\*---------------------------------------------------------------------------*/
FoamFile
{
    version     2.0;
    format      ascii;
    class       volVectorField;
    location    "160";
    object      U;
}
// * * * * * * * * * * * * * * * * * * * * * * * * * * * * * * * * * * * * * //

dimensions      [0 1 -1 0 0 0 0];

internalField   nonuniform List<vector> 
36600
(
(-0.0004044 0.0157894 -1.01951e-21)
(-0.00216311 0.0464149 -5.31479e-21)
(-0.00554931 0.0761211 6.43285e-22)
(-0.0100882 0.104129 9.51903e-22)
(-0.0156474 0.12985 1.66692e-21)
(-0.0220868 0.152935 -1.21444e-20)
(-0.0292446 0.173278 2.06076e-21)
(-0.0369479 0.191003 -8.02308e-21)
(-0.0450112 0.206427 -1.70763e-20)
(-0.0532434 0.219993 1.44418e-20)
(-0.0614593 0.232202 4.25e-21)
(-0.0694919 0.243544 -5.05264e-21)
(-0.0772025 0.254444 6.15255e-21)
(-0.0844862 0.265235 8.36224e-21)
(-0.0912719 0.276146 -5.24185e-21)
(-0.0975143 0.287307 -7.036e-21)
(-0.103186 0.298763 -1.67998e-20)
(-0.108291 0.310488 -1.29831e-21)
(-0.112719 0.322387 -2.84097e-21)
(-0.116206 0.334322 -5.62533e-21)
(-0.000673641 0.0162431 -4.97708e-21)
(-0.00276646 0.0476397 4.03971e-21)
(-0.00617851 0.0780225 -4.67462e-21)
(-0.010542 0.106633 -1.83671e-20)
(-0.0157594 0.132886 8.40694e-21)
(-0.0217231 0.156428 5.05071e-20)
(-0.028302 0.177141 -3.07583e-20)
(-0.0353493 0.195139 5.19588e-21)
(-0.0427002 0.210731 2.45479e-20)
(-0.0501786 0.224356 -2.84461e-23)
(-0.0576075 0.236522 1.42343e-20)
(-0.0648206 0.247729 -1.86936e-20)
(-0.0716729 0.25842 1.94286e-20)
(-0.0780465 0.268947 -1.66265e-20)
(-0.0838523 0.279556 -6.39327e-21)
(-0.0890232 0.290391 3.21377e-20)
(-0.0935085 0.301504 -1.00105e-20)
(-0.0972929 0.312871 1.52902e-21)
(-0.100251 0.324399 -1.87868e-20)
(-0.102048 0.335956 -2.0416e-21)
(-0.000956569 0.0165865 -3.85087e-20)
(-0.00340878 0.04859 4.85551e-21)
(-0.00686929 0.0795307 7.34712e-21)
(-0.0110738 0.108662 4.63448e-20)
(-0.015958 0.135395 -3.672e-20)
(-0.0214447 0.159365 -5.65317e-20)
(-0.0274328 0.18044 5.08723e-20)
(-0.0338008 0.198716 -1.37212e-20)
(-0.0404052 0.214486 -6.87358e-21)
(-0.0470854 0.228186 -3.41794e-20)
(-0.0536732 0.240321 9.18983e-21)
(-0.0600042 0.2514 3.29874e-20)
(-0.0659277 0.26188 -6.77884e-21)
(-0.0713136 0.27213 2.66026e-20)
(-0.0760553 0.282412 -2.17831e-20)
(-0.0800647 0.292885 -6.68535e-21)
(-0.0832681 0.303608 5.13518e-20)
(-0.0856327 0.314564 -3.19298e-21)
(-0.0870209 0.325667 8.01179e-20)
(-0.0870138 0.336794 -1.92009e-20)
(-0.00124759 0.0168212 6.29783e-20)
(-0.00407808 0.0492672 -2.73254e-20)
(-0.00760825 0.0806456 -1.87766e-20)
(-0.0116725 0.110211 -4.31818e-20)
(-0.0162361 0.137368 2.58126e-20)
(-0.0212503 0.161734 -4.74814e-21)
(-0.0266421 0.183156 -8.48469e-20)
(-0.0323147 0.201709 -8.84776e-21)
(-0.0381455 0.217669 -1.82182e-20)
(-0.0439897 0.231456 -2.73725e-21)
(-0.0496891 0.243571 -3.12529e-20)
(-0.0550819 0.254528 3.49385e-20)
(-0.060013 0.264795 -5.14048e-20)
(-0.0643412 0.274755 -1.5473e-21)
(-0.0679432 0.284688 1.38804e-20)
(-0.070711 0.294763 -1.06532e-19)
(-0.072549 0.305053 -8.55149e-20)
(-0.0734081 0.315548 4.63521e-20)
(-0.0731457 0.326174 -6.1972e-20)
(-0.0712383 0.33682 1.68398e-21)
(-0.00154135 0.0169498 -8.40898e-21)
(-0.00476274 0.0496759 1.07818e-19)
(-0.0083824 0.0813701 4.98332e-20)
(-0.0123266 0.111281 -2.13953e-21)
(-0.0165864 0.1388 1.31049e-20)
(-0.0211382 0.163524 2.05408e-21)
(-0.0259349 0.185275 4.33418e-20)
(-0.030903 0.204101 5.06456e-20)
(-0.0359402 0.220254 2.12491e-20)
(-0.040918 0.234138 7.45855e-20)
(-0.0456886 0.246245 -8.48324e-20)
(-0.0500942 0.257087 -1.78082e-20)
(-0.0539765 0.267139 3.70855e-20)
(-0.0571846 0.276798 -6.37734e-20)
(-0.05958 0.286358 2.89749e-20)
(-0.0610363 0.296003 6.69684e-20)
(-0.0614368 0.305817 1.62543e-20)
(-0.0607176 0.315804 2.27824e-20)
(-0.0587434 0.325908 -3.62573e-20)
(-0.0548601 0.336035 4.59924e-21)
(-0.00183281 0.0169764 -4.10574e-20)
(-0.0054516 0.0498236 2.52607e-20)
(-0.00917899 0.0817118 -4.09079e-20)
(-0.0130246 0.111877 3.72318e-20)
(-0.017001 0.139691 3.22748e-20)
(-0.021106 0.16473 1.46489e-20)
(-0.0253153 0.186785 2.7071e-20)
(-0.029577 0.205875 -1.88878e-20)
(-0.0338081 0.222224 -1.1478e-19)
(-0.0378963 0.236212 -1.0139e-19)
(-0.0417051 0.248317 -6.50675e-20)
(-0.0450818 0.259049 2.4519e-20)
(-0.0478666 0.268886 -1.3905e-20)
(-0.0499003 0.278234 1.04921e-19)
(-0.0510311 0.287401 -3.75532e-20)
(-0.0511158 0.296585 3.03633e-20)
(-0.0500182 0.305885 4.42036e-20)
(-0.0476605 0.31532 -2.50555e-20)
(-0.0439251 0.324856 2.15852e-19)
(-0.0380213 0.334497 -8.14077e-20)
(-0.0021175 0.0169061 4.97727e-20)
(-0.00613443 0.0497206 -6.06945e-20)
(-0.00998581 0.0816822 -9.16655e-20)
(-0.0137556 0.112007 -2.33486e-20)
(-0.0174723 0.140047 1.03629e-20)
(-0.0211511 0.165352 1.57719e-20)
(-0.0247872 0.187681 5.21413e-20)
(-0.0283476 0.20702 1.13143e-20)
(-0.0317677 0.223559 4.0575e-21)
(-0.0349508 0.237655 1.81943e-19)
(-0.0377724 0.249766 1.35311e-19)
(-0.0400861 0.260393 -8.00936e-20)
(-0.0417322 0.270013 -1.17223e-20)
(-0.0425455 0.279042 -3.14976e-20)
(-0.0423625 0.287796 3.08425e-20)
(-0.0410253 0.296491 -1.6213e-19)
(-0.0383808 0.305242 -3.38077e-20)
(-0.034337 0.314083 -5.0849e-20)
(-0.0287729 0.323012 -1.22963e-19)
(-0.0208283 0.332153 6.72002e-20)
(-0.00239095 0.0167449 8.28583e-21)
(-0.00680154 0.0493803 -2.94254e-20)
(-0.0107918 0.0812963 8.26071e-20)
(-0.014509 0.111685 -3.08294e-20)
(-0.0179928 0.139877 -2.76786e-20)
(-0.0212708 0.165393 4.33121e-20)
(-0.0243539 0.18796 -7.29581e-20)
(-0.0272252 0.207526 -9.99374e-21)
(-0.0298367 0.224247 1.34962e-19)
(-0.0321071 0.238449 -8.54219e-20)
(-0.033924 0.25057 -3.48221e-20)
(-0.0351485 0.261094 4.09531e-20)
(-0.0356228 0.270498 -1.0668e-20)
(-0.0351778 0.2792 -5.58584e-21)
(-0.0336408 0.287527 4.48012e-20)
(-0.0308411 0.295709 -1.18109e-19)
(-0.0266111 0.303878 4.14552e-20)
(-0.0208475 0.312088 -3.11033e-20)
(-0.0134267 0.320371 -7.04215e-20)
(-0.0034133 0.328933 2.51316e-20)
(-0.00264952 0.0165001 -2.32537e-20)
(-0.00744435 0.0488181 1.61775e-19)
(-0.0115867 0.0805724 -3.55796e-20)
(-0.0152756 0.11093 -4.20091e-20)
(-0.0185557 0.139197 9.98204e-20)
(-0.0214627 0.164864 -1.02783e-19)
(-0.0240186 0.187625 -4.98282e-20)
(-0.0262197 0.20739 -8.57405e-20)
(-0.0280325 0.224278 -9.28951e-20)
(-0.0293902 0.238581 -6.04544e-20)
(-0.0301927 0.250711 -8.08905e-20)
(-0.0303098 0.261135 1.46266e-19)
(-0.0295875 0.270321 -1.63312e-20)
(-0.0278548 0.27869 -3.33626e-20)
(-0.0249323 0.286577 -1.73749e-19)
(-0.0206392 0.294224 9.76142e-20)
(-0.0147955 0.301782 2.44287e-20)
(-0.00728966 0.309329 6.07005e-20)
(0.00199434 0.316933 4.11944e-20)
(0.0140836 0.32489 -1.10743e-19)
(-0.00289015 0.0161798 -7.18256e-20)
(-0.00805552 0.0480514 9.40683e-20)
(-0.0123615 0.0795331 5.2371e-20)
(-0.0160468 0.109762 2.34448e-20)
(-0.019155 0.138023 8.85016e-20)
(-0.0217244 0.163777 -6.84846e-20)
(-0.0237841 0.186683 1.46765e-19)
(-0.0253401 0.206613 8.24759e-21)
(-0.0263713 0.223646 1.32659e-19)
(-0.026824 0.238039 -7.63279e-20)
(-0.0266106 0.250173 1.22365e-19)
(-0.0256104 0.260496 -1.19653e-19)
(-0.0236748 0.269464 -1.07111e-19)
(-0.0206333 0.277495 9.08074e-20)
(-0.0163026 0.284931 3.20265e-19)
(-0.0104942 0.292026 -1.75791e-19)
(-0.0030189 0.298949 1.44447e-19)
(0.00624143 0.305803 3.32007e-20)
(0.0173845 0.3127 -1.25018e-19)
(0.0315361 0.320047 1.05081e-19)
(-0.00311043 0.0157925 1.3025e-19)
(-0.00862913 0.0471 -7.26406e-20)
(-0.0131088 0.0782025 2.38694e-20)
(-0.0168153 0.108209 9.00135e-20)
(-0.0197853 0.136381 -6.88924e-20)
(-0.0220539 0.162153 1.59135e-19)
(-0.023653 0.185147 -2.87158e-20)
(-0.0245949 0.205199 3.54752e-21)
(-0.0248682 0.22235 -1.82999e-19)
(-0.0244313 0.236816 1.14731e-19)
(-0.0232084 0.248946 2.59474e-20)
(-0.0210892 0.259164 -3.33988e-20)
(-0.0179319 0.267912 4.23174e-20)
(-0.013569 0.275601 -1.66517e-19)
(-0.00781572 0.282578 -9.2605e-20)
(-0.000479127 0.289107 1.94097e-19)
(0.00863669 0.295374 -1.08351e-19)
(0.0196542 0.301511 -1.55224e-19)
(0.0326439 0.307677 2.87496e-19)
(0.0488294 0.314416 -8.94562e-22)
(-0.00330869 0.0153473 1.08534e-19)
(-0.00916078 0.0459849 -1.32461e-19)
(-0.0138229 0.0766087 -1.3673e-19)
(-0.0175755 0.106298 -6.46115e-20)
(-0.020442 0.134298 -4.45543e-20)
(-0.0224495 0.160012 -5.18002e-20)
(-0.0236275 0.183034 -2.15229e-19)
(-0.0239915 0.203161 2.6377e-20)
(-0.0235372 0.220392 -8.92361e-20)
(-0.0222331 0.234908 3.0993e-19)
(-0.020015 0.24702 -1.78506e-19)
(-0.0167831 0.257126 1.09204e-19)
(-0.0124041 0.26565 -3.32661e-20)
(-0.00671548 0.272993 1.80712e-19)
(0.000466418 0.279505 1.45326e-20)
(0.00933608 0.285457 -1.53681e-19)
(0.020093 0.291054 -2.73164e-20)
(0.032862 0.296454 7.16961e-21)
(0.047679 0.301869 -1.23821e-20)
(0.0658583 0.308004 1.9435e-19)
(-0.00348401 0.0148537 -1.35419e-19)
(-0.0096478 0.0447284 -1.2582e-19)
(-0.0145 0.074781 5.17519e-20)
(-0.0183232 0.104064 1.27692e-19)
(-0.0211218 0.131805 -1.0437e-20)
(-0.0229095 0.157385 -8.57369e-20)
(-0.0237094 0.180366 1.89097e-19)
(-0.0235363 0.200511 -2.08191e-20)
(-0.0223903 0.217782 2.24442e-19)
(-0.0202484 0.232316 -2.47637e-19)
(-0.0170566 0.244392 6.48883e-20)
(-0.0127264 0.254375 7.57122e-20)
(-0.00713383 0.262668 -2.44442e-21)
(-0.000123295 0.269662 -1.22963e-21)
(0.00848522 0.275703 -1.41481e-19)
(0.0188851 0.281071 1.9213e-20)
(0.0312763 0.285985 1.88507e-19)
(0.0457844 0.290635 2.42524e-19)
(0.0624042 0.295283 -2.88279e-19)
(0.082529 0.300824 -1.86849e-19)
(-0.00363621 0.0143217 5.62924e-20)
(-0.0100891 0.0433537 8.43304e-20)
(-0.0151382 0.0727505 1.00464e-19)
(-0.0190559 0.101541 -1.68506e-19)
(-0.0218224 0.128938 1.63084e-19)
(-0.0234329 0.154302 1.64245e-19)
(-0.0239002 0.177169 -6.37996e-20)
(-0.0232346 0.197271 2.74169e-19)
(-0.0214379 0.214531 -2.74784e-19)
(-0.0184933 0.229047 1.20333e-19)
(-0.0143566 0.24106 1.21612e-19)
(-0.00894988 0.250905 -9.64824e-21)
(-0.00215974 0.258959 1.19575e-21)
(0.00616099 0.265599 1.58536e-20)
(0.0161865 0.271165 -1.09183e-19)
(0.0281066 0.275943 1.08735e-19)
(0.0421192 0.280167 -5.6314e-20)
(0.0583487 0.284055 -1.25791e-19)
(0.0767438 0.287927 1.6214e-19)
(0.0987609 0.292883 3.39199e-20)
(-0.00376588 0.0137611 -3.25472e-20)
(-0.0104854 0.041885 3.96307e-20)
(-0.0157377 0.07055 -8.41524e-20)
(-0.0197733 0.098765 -1.23741e-19)
(-0.0225429 0.125733 -1.08466e-19)
(-0.0240194 0.150799 -1.12229e-19)
(-0.0242009 0.173476 1.79656e-19)
(-0.0230903 0.193466 -9.1071e-20)
(-0.0206879 0.210658 7.15192e-20)
(-0.0169812 0.225112 7.17789e-21)
(-0.0119344 0.237031 -1.88198e-20)
(-0.00547999 0.246716 4.62796e-20)
(0.00248443 0.254519 -9.09191e-20)
(0.0120962 0.260798 4.77622e-20)
(0.0235219 0.265886 1.51307e-19)
(0.0369458 0.270069 -2.1901e-19)
(0.0525615 0.273597 -1.40264e-19)
(0.0704911 0.276717 1.8378e-19)
(0.0906343 0.279805 -1.08705e-19)
(0.11449 0.284192 -1.6767e-19)
(-0.00387432 0.0131821 1.18593e-19)
(-0.0108388 0.0403464 -1.17548e-19)
(-0.0163006 0.0682126 9.47137e-20)
(-0.0204765 0.0957751 1.4932e-19)
(-0.0232836 0.122232 -2.61571e-20)
(-0.0246688 0.146914 -9.51206e-20)
(-0.0246123 0.16932 -1.77193e-19)
(-0.0231056 0.189126 -1.33116e-19)
(-0.0201454 0.206187 -2.63066e-19)
(-0.0157215 0.220528 2.58598e-20)
(-0.00980465 0.232315 -2.24382e-20)
(-0.00233753 0.241814 -1.80987e-19)
(0.00677121 0.249348 1.54448e-19)
(0.0176482 0.255257 1.88572e-19)
(0.0304508 0.259862 -9.58126e-21)
(0.0453565 0.263448 1.14817e-19)
(0.0625531 0.266277 -5.71085e-20)
(0.0821599 0.268623 8.40493e-21)
(0.104026 0.270921 1.60351e-19)
(0.12967 0.274755 3.90018e-19)
(-0.00396357 0.0125945 -5.2014e-20)
(-0.0111532 0.0387621 -3.4547e-20)
(-0.0168307 0.0657722 9.71729e-20)
(-0.0211683 0.0926105 -1.33074e-19)
(-0.0240462 0.118475 -7.42758e-20)
(-0.0253817 0.14269 1.29926e-19)
(-0.0251341 0.164742 -4.6578e-20)
(-0.023281 0.184284 -1.33225e-19)
(-0.0198127 0.201146 2.14207e-19)
(-0.0147191 0.215317 -5.73936e-20)
(-0.00797643 0.226927 4.11841e-20)
(0.000463537 0.236208 2.18769e-19)
(0.0106811 0.243454 -3.01266e-19)
(0.0227917 0.248981 -8.21489e-20)
(0.0369428 0.253097 -1.58995e-19)
(0.053304 0.256082 3.21438e-19)
(0.0720568 0.258207 9.59434e-21)
(0.0933182 0.259776 1.75472e-19)
(0.116888 0.261281 -6.50904e-20)
(0.144282 0.264578 -3.67066e-19)
(-0.00403633 0.0120079 -1.1919e-19)
(-0.0114339 0.037156 1.66329e-19)
(-0.0173336 0.0632624 2.41239e-21)
(-0.0218535 0.0893115 -1.30779e-21)
(-0.0248332 0.114505 1.6624e-19)
(-0.0261588 0.138171 7.92039e-20)
(-0.0257653 0.159782 -3.98549e-21)
(-0.0236145 0.178981 3.43258e-19)
(-0.0196879 0.195569 1.29697e-19)
(-0.0139736 0.209508 -2.35088e-19)
(-0.00645184 0.22089 1.14285e-20)
(0.00291764 0.229916 -8.95627e-21)
(0.0142046 0.236848 3.16638e-19)
(0.027513 0.241978 -3.50275e-19)
(0.0429804 0.245596 9.6657e-20)
(0.0607683 0.247977 2.7111e-21)
(0.0810521 0.249395 -2.43048e-19)
(0.103949 0.250181 -2.52538e-19)
(0.129212 0.250887 -3.16937e-20)
(0.158335 0.253661 3.69877e-19)
(-0.00409595 0.0114317 3.80111e-20)
(-0.0116876 0.0355512 -1.18392e-19)
(-0.0178165 0.0607162 1.1206e-19)
(-0.0225377 0.0859174 -1.65319e-19)
(-0.0256484 0.110369 2.01849e-19)
(-0.0270005 0.133401 -2.98383e-19)
(-0.0265036 0.154488 -8.09116e-20)
(-0.0241012 0.173258 -1.79538e-19)
(-0.0197647 0.189496 -8.33887e-20)
(-0.0134784 0.203133 1.46437e-19)
(-0.00522483 0.214234 2.9388e-19)
(0.00502937 0.222962 -3.25118e-19)
(0.0173442 0.22955 -1.20751e-19)
(0.0318128 0.234263 4.31443e-19)
(0.0485628 0.237374 -1.54456e-19)
(0.0677484 0.239145 -2.21645e-19)
(0.089541 0.239852 2.79752e-19)
(0.11406 0.239849 5.92283e-20)
(0.14102 0.239747 5.44821e-20)
(0.171878 0.242006 -2.38104e-19)
(-0.00414636 0.0108747 1.46167e-20)
(-0.0119224 0.0339698 -6.13511e-20)
(-0.0182881 0.0581656 1.95305e-19)
(-0.023228 0.0824679 -2.48919e-19)
(-0.0264952 0.106107 -2.03919e-19)
(-0.0279066 0.128428 5.32304e-20)
(-0.0273442 0.148905 3.4623e-19)
(-0.0247328 0.167162 -2.15309e-19)
(-0.0200314 0.182969 5.08115e-20)
(-0.0132192 0.196235 -1.00444e-19)
(-0.00427956 0.206992 -3.9936e-19)
(0.0068156 0.215375 2.39041e-19)
(0.0201175 0.221586 1.89213e-19)
(0.0357096 0.225862 -3.33611e-19)
(0.0537104 0.228452 7.81737e-20)
(0.0742685 0.229607 3.06574e-19)
(0.0975539 0.229598 1.17688e-19)
(0.123695 0.228797 4.17709e-20)
(0.152371 0.227874 -2.45821e-19)
(0.185006 0.229618 -1.21158e-19)
(-0.00419198 0.0103449 -1.02903e-19)
(-0.0121472 0.0324325 -1.82075e-19)
(-0.018758 0.055641 -1.04395e-19)
(-0.023932 0.0790008 1.36224e-19)
(-0.0273774 0.101766 -7.71311e-21)
(-0.0288756 0.123298 2.66625e-20)
(-0.0282803 0.143083 -4.79754e-20)
(-0.0254964 0.160743 3.25813e-20)
(-0.0204699 0.176037 2.00288e-19)
(-0.0131732 0.188857 2.5033e-19)
(-0.0035887 0.199209 -1.07667e-20)
(0.00830773 0.207197 -5.41343e-20)
(0.0225603 0.212993 -3.12663e-19)
(0.0392438 0.216806 2.31947e-19)
(0.0584699 0.218864 -1.98181e-20)
(0.0803839 0.219395 -1.36304e-19)
(0.105158 0.218664 -6.77894e-19)
(0.132938 0.217055 2.38992e-19)
(0.163374 0.215292 1.42961e-20)
(0.197877 0.21651 -1.494e-19)
(-0.00423765 0.00984999 9.40827e-20)
(-0.0123719 0.0309585 2.37406e-19)
(-0.0192366 0.0531709 -1.77732e-19)
(-0.0246573 0.0755522 -8.45933e-20)
(-0.028298 0.0973859 7.00657e-20)
(-0.0299039 0.118059 -1.67001e-19)
(-0.0293012 0.137072 -2.87064e-19)
(-0.0263742 0.154051 1.77175e-19)
(-0.0210546 0.168753 -2.05585e-20)
(-0.0133071 0.181051 -3.94341e-19)
(-0.00311149 0.190933 7.51513e-20)
(0.00955433 0.198473 4.11068e-20)
(0.0247294 0.203816 -7.0586e-20)
(0.0424824 0.207143 1.85108e-19)
(0.0629202 0.208653 3.56403e-19)
(0.0861882 0.208555 -2.30172e-19)
(0.112467 0.207098 1.8788e-19)
(0.141926 0.20467 4.33466e-20)
(0.174198 0.202041 2.59649e-19)
(0.210719 0.202712 1.1675e-19)
(-0.00428847 0.00939657 -1.03092e-19)
(-0.0126067 0.0295649 -1.26554e-20)
(-0.0197342 0.0507814 2.51223e-19)
(-0.0254113 0.0721559 2.45048e-19)
(-0.0292582 0.0930082 -4.94524e-20)
(-0.0309859 0.112757 -3.10809e-20)
(-0.0303924 0.130922 3.26186e-19)
(-0.0273418 0.147142 -2.32937e-19)
(-0.0217511 0.161171 6.93696e-20)
(-0.0135759 0.172875 2.84766e-19)
(-0.00279166 0.182221 2.68507e-19)
(0.0106238 0.189261 1.01999e-19)
(0.026707 0.194112 4.44626e-19)
(0.0455232 0.196926 -6.1185e-20)
(0.067178 0.197877 -4.62135e-19)
(0.0918213 0.197148 2.25849e-19)
(0.119647 0.194965 -1.17939e-19)
(0.150863 0.191711 -2.77988e-19)
(0.185082 0.188187 -1.96336e-19)
(0.223845 0.188279 -1.98635e-19)
(-0.0043497 0.00899035 6.54175e-20)
(-0.0128618 0.0282668 1.31842e-19)
(-0.0202608 0.0484956 -9.13457e-20)
(-0.0262 0.0688429 -1.11915e-19)
(-0.0302579 0.0886713 -1.13497e-19)
(-0.032112 0.107435 -3.0541e-20)
(-0.0315339 0.124684 -4.14685e-19)
(-0.0283676 0.140069 1.58254e-19)
(-0.0225149 0.153351 -1.43198e-19)
(-0.0139211 0.164389 -2.37693e-19)
(-0.00255539 0.173137 7.96681e-21)
(0.0116071 0.179626 -5.84908e-19)
(0.0286035 0.183947 -4.48468e-19)
(0.0484995 0.186227 1.39094e-19)
(0.0714038 0.186611 7.06605e-20)
(0.097476 0.185254 -1.48514e-19)
(0.12693 0.182352 5.74719e-19)
(0.160024 0.178273 -8.99897e-20)
(0.196346 0.173827 2.45427e-19)
(0.237658 0.173301 2.21936e-19)
(-0.00442661 0.00863602 -8.97338e-20)
(-0.0131474 0.0270765 -2.87368e-19)
(-0.0208257 0.0463339 8.94518e-20)
(-0.027028 0.0656411 4.90448e-21)
(-0.0312934 0.0844104 3.72166e-19)
(-0.0332686 0.102138 -2.18483e-19)
(-0.0327 0.118408 -1.84635e-19)
(-0.0294114 0.13289 2.17688e-19)
(-0.0232901 0.145354 -1.30146e-20)
(-0.0142691 0.15566 9.90706e-20)
(-0.00230935 0.163751 2.9444e-19)
(0.0126201 0.169641 6.09071e-19)
(0.0305609 0.173399 4.8073e-20)
(0.0515841 0.175127 -2.62898e-19)
(0.0758065 0.174942 4.74997e-20)
(0.103403 0.17297 4.54895e-19)
(0.134615 0.16937 -3.07647e-19)
(0.169763 0.164485 1.58124e-21)
(0.208395 0.159094 2.36975e-19)
(0.25265 0.157917 -1.47118e-19)
(-0.00452426 0.00833706 -8.5081e-20)
(-0.0134726 0.0260039 3.3747e-19)
(-0.0214365 0.0443128 -2.54678e-19)
(-0.0278971 0.0625745 -5.12988e-20)
(-0.0323577 0.0802574 -8.50808e-20)
(-0.0344369 0.0969063 -2.16996e-19)
(-0.0338574 0.112141 2.14058e-19)
(-0.030424 0.12566 -5.63016e-20)
(-0.0240084 0.137245 -1.21827e-19)
(-0.0145302 0.146758 1.96633e-19)
(-0.00193916 0.154139 -2.25119e-19)
(0.0138055 0.159388 -7.19742e-20)
(0.0327551 0.162556 -8.03956e-21)
(0.0549913 0.163722 1.83438e-19)
(0.0806458 0.162976 -1.6374e-19)
(0.109915 0.160414 -3.0862e-19)
(0.143071 0.156156 -9.25573e-20)
(0.180512 0.150503 -1.35223e-19)
(0.221714 0.144163 -4.13598e-19)
(0.269396 0.142317 -1.24435e-19)
(-0.00464738 0.00809569 1.20051e-19)
(-0.0138455 0.0250557 -1.48191e-19)
(-0.0220986 0.042445 -1.8173e-19)
(-0.0288061 0.0596632 -1.70026e-19)
(-0.0334393 0.0762409 5.61289e-20)
(-0.0355921 0.0917758 3.20333e-20)
(-0.0349653 0.105931 7.59151e-20)
(-0.0313454 0.118434 -2.60523e-19)
(-0.024588 0.129085 1.47801e-19)
(-0.0145973 0.137756 -4.33981e-19)
(-0.00130842 0.144382 -2.14876e-19)
(0.0153338 0.148957 2.89822e-21)
(0.0353962 0.151516 1.83907e-19)
(0.0589777 0.152118 -1.19023e-19)
(0.0862314 0.150832 3.00567e-19)
(0.117382 0.147723 -7.32771e-20)
(0.152735 0.142865 9.56008e-20)
(0.192774 0.136517 3.55789e-19)
(0.236856 0.129252 4.75217e-20)
(0.288524 0.126753 2.28992e-19)
(-0.00480012 0.00791273 -2.53138e-19)
(-0.0142728 0.0242356 1.97174e-19)
(-0.0228147 0.0407395 2.19728e-19)
(-0.0297496 0.0569229 -1.25374e-19)
(-0.0345216 0.0723848 2.11454e-19)
(-0.0367028 0.0867807 2.0157e-19)
(-0.0359744 0.0998202 -3.64477e-20)
(-0.0321053 0.111267 -1.97617e-19)
(-0.0249334 0.120942 -2.88858e-19)
(-0.0143458 0.128728 8.36865e-20)
(-0.000258649 0.134565 8.19542e-21)
(0.017403 0.138442 -2.0855e-19)
(0.0387277 0.140383 1.51184e-19)
(0.0638393 0.140434 -1.17362e-19)
(0.0929192 0.138642 -2.12844e-19)
(0.126224 0.135046 -2.74145e-19)
(0.164094 0.129676 6.73373e-20)
(0.207103 0.122741 9.15917e-20)
(0.254417 0.114609 -8.90008e-20)
(0.31068 0.111529 3.75582e-19)
(-0.00498589 0.0077876 -1.98359e-19)
(-0.0147588 0.0235438 -1.81253e-19)
(-0.0235845 0.0392007 1.41109e-19)
(-0.0307183 0.0543647 8.13157e-20)
(-0.0355823 0.0687086 3.21967e-20)
(-0.0377305 0.0819502 -5.8669e-20)
(-0.0368265 0.09385 -4.14051e-20)
(-0.0326218 0.10421 9.23014e-20)
(-0.0249355 0.112877 -8.13197e-20)
(-0.0136339 0.119749 6.72216e-19)
(0.00138955 0.124774 4.81305e-20)
(0.0202361 0.127941 -7.2078e-20)
(0.0430231 0.129269 -4.72993e-19)
(0.0699062 0.128794 9.09134e-20)
(0.101101 0.126547 -2.27521e-19)
(0.1369 0.122544 1.50133e-19)
(0.177669 0.116774 1.36084e-19)
(0.224073 0.109404 -5.16959e-19)
(0.274998 0.100508 -1.60591e-19)
(0.336478 0.0969942 -5.61016e-19)
(-0.00520712 0.00771818 9.6132e-20)
(-0.0153056 0.0229774 1.86812e-19)
(-0.0244036 0.0378288 -3.31976e-19)
(-0.0316978 0.0519946 -2.50853e-19)
(-0.0365932 0.0652267 1.24634e-19)
(-0.0386295 0.077309 1.16668e-19)
(-0.0374548 0.0880558 -2.38041e-19)
(-0.0328026 0.0973109 -2.09532e-20)
(-0.0244717 0.104951 2.8414e-20)
(-0.0123045 0.110894 -2.02325e-19)
(0.00383406 0.115098 2.87595e-19)
(0.0240775 0.117557 1.97756e-21)
(0.0485789 0.11829 3.53023e-19)
(0.0775323 0.117327 2.36745e-19)
(0.111192 0.114691 3.97121e-20)
(0.149883 0.110383 4.88552e-19)
(0.193987 0.104352 -4.40726e-19)
(0.244246 0.0967377 2.03662e-19)
(0.299162 0.0872266 1.59712e-19)
(0.366432 0.0835242 1.38701e-19)
(-0.00546511 0.00770089 4.58353e-19)
(-0.0159123 0.0225299 -3.14496e-19)
(-0.025264 0.0366193 7.6154e-20)
(-0.0326685 0.0498138 2.42906e-19)
(-0.03752 0.0619485 -2.58642e-19)
(-0.0393473 0.0728766 1.29005e-20)
(-0.037784 0.0824692 1.90332e-19)
(-0.0325461 0.0906143 3.44134e-19)
(-0.023409 0.0972226 3.41613e-19)
(-0.0101874 0.102234 -3.33523e-19)
(0.00728717 0.105622 -2.53829e-19)
(0.0291867 0.10739 1.18679e-19)
(0.0557066 0.10756 -3.34964e-19)
(0.0870833 0.106164 2.23879e-20)
(0.12361 0.103222 1.26867e-19)
(0.165639 0.0987251 9.57859e-20)
(0.213546 0.0925946 2.96749e-19)
(0.268124 0.0849631 6.2607e-20)
(0.327391 0.0750298 -2.22563e-19)
(0.400902 0.0714929 2.40688e-19)
(-0.00575988 0.00773068 -4.33743e-19)
(-0.0165752 0.0221916 3.12544e-19)
(-0.026153 0.0355638 7.5388e-20)
(-0.0336059 0.0478185 -2.3992e-19)
(-0.0383225 0.0588777 9.98106e-20)
(-0.0398242 0.0686667 -4.75659e-20)
(-0.0377316 0.0771156 -3.62506e-20)
(-0.0317417 0.0841591 -2.9025e-19)
(-0.0216049 0.0897438 -4.5041e-19)
(-0.00710325 0.0938362 2.87662e-19)
(0.0119699 0.096428 -1.47037e-19)
(0.0358308 0.0975353 4.55265e-21)
(0.0647207 0.0971904 8.04615e-20)
(0.0989204 0.0954297 1.67858e-19)
(0.138758 0.0922781 -2.04842e-20)
(0.184598 0.087726 -4.66276e-20)
(0.236782 0.0816733 -2.37749e-19)
(0.296111 0.0742773 -1.58401e-19)
(0.360035 0.06415 -1.49311e-19)
(0.440036 0.0612469 2.41573e-19)
(-0.00609003 0.00780114 3.45921e-19)
(-0.0172871 0.0219499 -8.78405e-20)
(-0.0270539 0.0346492 2.95109e-19)
(-0.0344802 0.0459997 7.07285e-20)
(-0.038955 0.0560127 -1.53713e-19)
(-0.0399951 0.0646874 2.46085e-20)
(-0.0372088 0.0720146 -3.17956e-19)
(-0.0302735 0.0779774 1.42315e-19)
(-0.0189113 0.082561 7.51456e-20)
(-0.00286797 0.0857612 1.09616e-20)
(0.0181063 0.0875913 1.01681e-19)
(0.0442744 0.0880841 3.5478e-20)
(0.0759262 0.0872852 -1.60102e-19)
(0.113383 0.0852421 -3.68573e-19)
(0.156997 0.0819894 1.84351e-19)
(0.207125 0.0775246 -9.19611e-20)
(0.264037 0.071737 -2.26725e-20)
(0.328474 0.0648415 3.83297e-19)
(0.397291 0.0547755 4.02271e-19)
(0.483725 0.0530798 -6.1592e-19)
(-0.00645265 0.00790462 -8.87718e-20)
(-0.0180377 0.0217891 -9.40427e-20)
(-0.0279455 0.0338587 -1.84815e-19)
(-0.0352571 0.0443437 1.33356e-19)
(-0.0393668 0.0533461 2.39353e-19)
(-0.0397897 0.0609403 -3.04529e-19)
(-0.0361225 0.0671788 4.79756e-19)
(-0.0280214 0.0720947 -9.22901e-20)
(-0.0151777 0.0757131 1.3121e-20)
(0.00270217 0.0780618 -3.09104e-19)
(0.0259142 0.079179 1.0354e-20)
(0.0547702 0.0791171 -2.46698e-19)
(0.0896047 0.0779385 3.26046e-19)
(0.130772 0.0757061 2.11419e-19)
(0.178631 0.0724694 -4.08488e-19)
(0.233497 0.0682398 -3.4467e-19)
(0.295535 0.0629076 7.90742e-20)
(0.36532 0.0567726 4.58808e-19)
(0.439179 0.0470448 2.11978e-19)
(0.531587 0.0472117 1.14455e-19)
(-0.00684337 0.00803246 2.66871e-20)
(-0.0188133 0.0216912 9.1376e-20)
(-0.0288027 0.033172 1.0824e-19)
(-0.0358976 0.0428322 -8.98212e-20)
(-0.0395031 0.0508653 2.21177e-19)
(-0.0391345 0.0574211 2.924e-19)
(-0.0343771 0.0626141 4.42834e-21)
(-0.0248649 0.0665283 -3.65581e-19)
(-0.0102562 0.0692303 -2.87559e-19)
(0.00978456 0.0707817 2.96731e-19)
(0.0355998 0.0712479 -4.76324e-19)
(0.0675477 0.0707034 -4.31187e-19)
(0.106001 0.0692306 -4.24709e-20)
(0.151333 0.0669106 -2.20721e-20)
(0.203883 0.0638122 1.44345e-19)
(0.263885 0.0599651 9.40022e-20)
(0.331359 0.0552756 1.21405e-19)
(0.406583 0.0501369 -5.67075e-19)
(0.48555 0.0410469 -1.57424e-19)
(0.582977 0.0437648 4.10894e-19)
(-0.00725633 0.00817518 -1.63184e-19)
(-0.0195973 0.0216362 1.54766e-19)
(-0.0295967 0.0325655 -1.1327e-19)
(-0.0363595 0.041443 -5.54781e-20)
(-0.039306 0.0485527 -1.49471e-19)
(-0.0379536 0.054119 -1.11834e-19)
(-0.0318768 0.058319 -1.96446e-19)
(-0.0206857 0.0612876 3.19958e-19)
(-0.00400455 0.0631337 1.24902e-19)
(0.0185438 0.0639537 -3.01917e-19)
(0.0473474 0.0638426 -3.6056e-19)
(0.0828042 0.0628989 1.89918e-19)
(0.125313 0.0612263 -1.74789e-19)
(0.175242 0.0589263 -2.41847e-19)
(0.232881 0.0560898 -3.07034e-20)
(0.298339 0.0527667 2.43729e-19)
(0.371448 0.0488995 -1.62304e-19)
(0.452026 0.0449483 6.10383e-20)
(0.536095 0.0368278 1.38398e-19)
(0.637021 0.0427424 3.48218e-19)
(-0.00768432 0.0083228 -1.69334e-20)
(-0.0203702 0.0216028 -3.82048e-19)
(-0.0302955 0.0320136 9.18933e-20)
(-0.0365976 0.0401504 2.02229e-19)
(-0.0387157 0.0463858 -3.71468e-20)
(-0.036171 0.0510179 -2.38344e-19)
(-0.0285273 0.0542852 2.58546e-19)
(-0.0153707 0.0563736 2.91431e-19)
(0.00370853 0.0574345 1.1004e-19)
(0.029128 0.0576002 5.36774e-19)
(0.0613147 0.0569956 -2.45313e-19)
(0.100697 0.0557451 8.68994e-20)
(0.147679 0.0539739 -1.17955e-19)
(0.202599 0.0518043 2.79523e-19)
(0.265657 0.0493501 -2.44155e-20)
(0.336783 0.0466816 -6.30757e-20)
(0.415593 0.0438053 -1.00519e-19)
(0.501255 0.0411702 1.57171e-19)
(0.590334 0.0344278 -3.95602e-19)
(0.692591 0.0440963 -5.34667e-19)
(-0.00811891 0.00846517 -9.41668e-20)
(-0.0211099 0.0215689 -3.35839e-20)
(-0.0308645 0.0314887 -3.04774e-19)
(-0.0365645 0.0389259 1.84281e-19)
(-0.0376712 0.0443385 -1.85686e-19)
(-0.0337115 0.0480964 -1.85855e-19)
(-0.0242384 0.0504981 -1.67592e-20)
(-0.00881498 0.0517797 -2.94401e-19)
(0.0130012 0.0521353 -4.5903e-19)
(0.0416628 0.0517328 1.23622e-19)
(0.0776273 0.0507276 1.36277e-19)
(0.121336 0.0492695 -5.66139e-20)
(0.173176 0.0475054 4.39533e-19)
(0.233419 0.0455766 -3.94678e-20)
(0.302134 0.0436177 -8.61056e-20)
(0.379024 0.0417167 -1.18131e-20)
(0.463456 0.0399797 2.12897e-19)
(0.553771 0.0387106 3.77382e-19)
(0.64763 0.0339642 -1.05563e-19)
(0.748173 0.0479476 3.89732e-19)
(-0.00855068 0.00859222 2.94224e-19)
(-0.0217926 0.0215122 -4.61291e-20)
(-0.0312672 0.0309627 2.68658e-19)
(-0.0362116 0.0377393 -2.72174e-19)
(-0.0361121 0.0423818 3.96811e-19)
(-0.030502 0.0453292 3.27403e-19)
(-0.0189253 0.0469377 -2.65174e-19)
(-0.000923239 0.0474929 -4.85835e-19)
(0.023975 0.0472305 7.93338e-19)
(0.05625 0.0463539 1.92655e-19)
(0.0963752 0.0450482 -1.47728e-19)
(0.144784 0.0434877 -1.43767e-19)
(0.201816 0.0418389 -1.48956e-19)
(0.267635 0.0402579 -1.0914e-19)
(0.342135 0.0388951 -3.57451e-19)
(0.424751 0.0378481 -9.65762e-20)
(0.514585 0.037349 8.04743e-21)
(0.609085 0.0373954 -2.59719e-19)
(0.707443 0.035633 1.28367e-19)
(0.80219 0.0543035 -2.75646e-19)
(-0.00896946 0.00869436 -4.69801e-19)
(-0.0223929 0.0214112 3.07685e-19)
(-0.0314656 0.0304073 -4.53038e-19)
(-0.0354899 0.0365597 -2.43643e-19)
(-0.0339785 0.040485 8.9696e-20)
(-0.0264731 0.0426879 -3.5377e-19)
(-0.0125098 0.0435802 5.46384e-19)
(0.00838825 0.0434948 9.15647e-21)
(0.0367142 0.0427082 -2.94663e-19)
(0.0729648 0.0414583 -2.53728e-19)
(0.117611 0.0399585 -4.46187e-19)
(0.171053 0.0384053 -5.67058e-21)
(0.233543 0.0369809 -6.15326e-20)
(0.305097 0.0358503 -1.77541e-19)
(0.385385 0.0351687 4.31571e-19)
(0.473534 0.0350264 2.64435e-19)
(0.568381 0.0357698 6.56988e-20)
(0.666675 0.0369711 -2.79674e-19)
(0.769567 0.0393203 -1.44318e-20)
(0.855411 0.060596 -4.54384e-19)
(-0.00936458 0.00876277 1.66857e-19)
(-0.0228843 0.0212455 -3.07244e-19)
(-0.0314211 0.0297952 3.90932e-19)
(-0.0343504 0.0353565 5.43089e-19)
(-0.0312126 0.0386168 -1.74599e-19)
(-0.0215591 0.040143 2.22236e-20)
(-0.00492141 0.040399 -4.6101e-19)
(0.019191 0.0397636 -1.13282e-19)
(0.0512842 0.0385521 -3.46428e-19)
(0.091856 0.0370356 4.44952e-19)
(0.141353 0.0354535 4.05854e-19)
(0.200107 0.0340213 -7.14599e-20)
(0.268244 0.0329313 -5.2711e-20)
(0.345582 0.0323486 -8.40191e-20)
(0.431517 0.0324184 7.80386e-20)
(0.524835 0.0331974 -1.38495e-19)
(0.624064 0.0350825 -1.59439e-19)
(0.725589 0.0372013 3.36954e-19)
(0.832697 0.0437126 -1.08388e-19)
(0.913093 0.0594793 1.49704e-20)
(-0.00972513 0.00878959 4.40019e-20)
(-0.02324 0.0209966 6.21957e-20)
(-0.0310952 0.0291012 -2.04562e-19)
(-0.0327449 0.0341004 -5.59469e-19)
(-0.0277587 0.0367468 8.96431e-20)
(-0.0156993 0.0376647 2.67722e-19)
(0.00390278 0.0373673 1.20529e-19)
(0.0315444 0.0362763 5.09896e-19)
(0.0677324 0.0347443 -3.15877e-19)
(0.112947 0.0330729 -4.04265e-19)
(0.167582 0.0315253 -7.28314e-20)
(0.231866 0.0303313 1.78419e-19)
(0.305752 0.0296867 3.8573e-20)
(0.388807 0.0297458 1.62177e-20)
(0.480103 0.0306272 -1.7252e-19)
(0.578045 0.0323275 4.88797e-20)
(0.680798 0.0352152 -6.18747e-20)
(0.78451 0.0379673 -3.44919e-20)
(0.892212 0.0456719 7.58859e-20)
(0.975711 0.0503732 8.17496e-19)
(-0.0100401 0.00876811 -2.17462e-19)
(-0.0234327 0.0206481 1.43758e-20)
(-0.0304498 0.0283028 -4.01567e-20)
(-0.0306265 0.032765 4.85289e-19)
(-0.0235636 0.0348469 1.51529e-19)
(-0.00883729 0.0352254 -4.91196e-20)
(0.0140178 0.0344595 1.85143e-19)
(0.0454956 0.033011 1.61732e-19)
(0.086089 0.0312673 3.8494e-19)
(0.136237 0.0295581 4.5992e-20)
(0.196251 0.0281664 -4.51559e-19)
(0.266211 0.0273312 2.54621e-20)
(0.345852 0.0272439 -3.58612e-19)
(0.434437 0.0280361 -3.0331e-20)
(0.530665 0.0297836 -1.70056e-19)
(0.632532 0.0324026 6.88305e-21)