/*--------------------------------*- C++ -*----------------------------------*\
  =========                 |
  \\      /  F ield         | OpenFOAM: The Open Source CFD Toolbox
   \\    /   O peration     | Website:  https://openfoam.org
    \\  /    A nd           | Version:  7
     \\/     M anipulation  |
\*---------------------------------------------------------------------------*/
FoamFile
{
    version     2.0;
    format      ascii;
    class       volScalarField;
    location    "300";
    object      p;
}
// * * * * * * * * * * * * * * * * * * * * * * * * * * * * * * * * * * * * * //

dimensions      [0 2 -2 0 0 0 0];

internalField   nonuniform List<scalar> 
4575
(
-0.387466
-0.388393
-0.388901
-0.386476
-0.387626
-0.388255
-0.38552
-0.386891
-0.387638
-0.384616
-0.386202
-0.387065
-0.383781
-0.385576
-0.386551
-0.383034
-0.385029
-0.38611
-0.382392
-0.384575
-0.385758
-0.381871
-0.38423
-0.385509
-0.381487
-0.384008
-0.385375
-0.386445
-0.381256
-0.383922
-0.385369
-0.386508
-0.381189
-0.383984
-0.385502
-0.386704
-0.381299
-0.384203
-0.385784
-0.387043
-0.381596
-0.384589
-0.386222
-0.387531
-0.382088
-0.385148
-0.386824
-0.388176
-0.38278
-0.385885
-0.387594
-0.388981
-0.383676
-0.386802
-0.388532
-0.389948
-0.384775
-0.3879
-0.38964
-0.391077
-0.392322
-0.386077
-0.389177
-0.390915
-0.392364
-0.393631
-0.387577
-0.390628
-0.392354
-0.393805
-0.395089
-0.389269
-0.392248
-0.393949
-0.395395
-0.396687
-0.391143
-0.394027
-0.395692
-0.397123
-0.398417
-0.399593
-0.393187
-0.395956
-0.397573
-0.398981
-0.400269
-0.401454
-0.39539
-0.398022
-0.39958
-0.400955
-0.40223
-0.403417
-0.397736
-0.400213
-0.401701
-0.403034
-0.404287
-0.405468
-0.400209
-0.402514
-0.403922
-0.405202
-0.406424
-0.407592
-0.40872
-0.402791
-0.404909
-0.406227
-0.407446
-0.408627
-0.409773
-0.410891
-0.405465
-0.407384
-0.408602
-0.409749
-0.41088
-0.411994
-0.413092
-0.408213
-0.409923
-0.411032
-0.412098
-0.413168
-0.414239
-0.415307
-0.416335
-0.411017
-0.41251
-0.413502
-0.414477
-0.415475
-0.416492
-0.417518
-0.418512
-0.413861
-0.415131
-0.415999
-0.416874
-0.417789
-0.418739
-0.419709
-0.420656
-0.416727
-0.417773
-0.418511
-0.419276
-0.420096
-0.420966
-0.421866
-0.42275
-0.42354
-0.419604
-0.420424
-0.421027
-0.421673
-0.422387
-0.423162
-0.423978
-0.424783
-0.425497
-0.422477
-0.423074
-0.423536
-0.424055
-0.424651
-0.425318
-0.426033
-0.426744
-0.427365
-0.427783
-0.425337
-0.425715
-0.426033
-0.426416
-0.426882
-0.427427
-0.428024
-0.428626
-0.429135
-0.429441
-0.428176
-0.428341
-0.428512
-0.428751
-0.429077
-0.429486
-0.429952
-0.430421
-0.430802
-0.430979
-0.43099
-0.430949
-0.430969
-0.431059
-0.431232
-0.431492
-0.43181
-0.432132
-0.432367
-0.432396
-0.432063
-0.433776
-0.433536
-0.433405
-0.433337
-0.43335
-0.433446
-0.433602
-0.43376
-0.433832
-0.433696
-0.433194
-0.436535
-0.436105
-0.435821
-0.43559
-0.435431
-0.435353
-0.435332
-0.435312
-0.435205
-0.434888
-0.434201
-0.432949
-0.439271
-0.438658
-0.43822
-0.437821
-0.437483
-0.437219
-0.437007
-0.436795
-0.436494
-0.435981
-0.435095
-0.433639
-0.441989
-0.441201
-0.440608
-0.440037
-0.439511
-0.439051
-0.438638
-0.43822
-0.437712
-0.43699
-0.435891
-0.434218
-0.431738
-0.444698
-0.443742
-0.442994
-0.442245
-0.441525
-0.44086
-0.440235
-0.439602
-0.438874
-0.43793
-0.436607
-0.434705
-0.431994
-0.447408
-0.446289
-0.445385
-0.444455
-0.443535
-0.442659
-0.441813
-0.440954
-0.439997
-0.43882
-0.43726
-0.435118
-0.432163
-0.428145
-0.450131
-0.448854
-0.447792
-0.446678
-0.445554
-0.444459
-0.443386
-0.442292
-0.441097
-0.439677
-0.43787
-0.435474
-0.432261
-0.427989
-0.422423
-0.452883
-0.451448
-0.450227
-0.448927
-0.447594
-0.446276
-0.444969
-0.443634
-0.442193
-0.440521
-0.438454
-0.435792
-0.432306
-0.427759
-0.421932
-0.455676
-0.454084
-0.452703
-0.451213
-0.449668
-0.448123
-0.446578
-0.444997
-0.443301
-0.441368
-0.439031
-0.436088
-0.432309
-0.427466
-0.421348
-0.413859
-0.458527
-0.456775
-0.455231
-0.45355
-0.451791
-0.450015
-0.448228
-0.446396
-0.44444
-0.442237
-0.439617
-0.436375
-0.432285
-0.427118
-0.420677
-0.412876
-0.403564
-0.461451
-0.459535
-0.457825
-0.45595
-0.453975
-0.451967
-0.449935
-0.447847
-0.445625
-0.443141
-0.440225
-0.436668
-0.432241
-0.426723
-0.419924
-0.411768
-0.402121
-0.464464
-0.462376
-0.460497
-0.458426
-0.456233
-0.453992
-0.451713
-0.449365
-0.446869
-0.444096
-0.440867
-0.436974
-0.432186
-0.426286
-0.419095
-0.410542
-0.400516
-0.389638
-0.46758
-0.465311
-0.46326
-0.46099
-0.458578
-0.456102
-0.453574
-0.450963
-0.448186
-0.44511
-0.441553
-0.4373
-0.432124
-0.425811
-0.418193
-0.409209
-0.39877
-0.387413
-0.373717
-0.470812
-0.468353
-0.466125
-0.463654
-0.461021
-0.458309
-0.45553
-0.452651
-0.449585
-0.446193
-0.442288
-0.437652
-0.432057
-0.425299
-0.417222
-0.407779
-0.396902
-0.385067
-0.371076
-0.359655
-0.474174
-0.471512
-0.469102
-0.466428
-0.463573
-0.460624
-0.457592
-0.454439
-0.451074
-0.44735
-0.443076
-0.438029
-0.431986
-0.424751
-0.416187
-0.40626
-0.394932
-0.382629
-0.36836
-0.356147
-0.477676
-0.474798
-0.4722
-0.46932
-0.466243
-0.463056
-0.459766
-0.456333
-0.452657
-0.448584
-0.443917
-0.438431
-0.431908
-0.424167
-0.415088
-0.40466
-0.392875
-0.380123
-0.365595
-0.352737
-0.481327
-0.478218
-0.475429
-0.47234
-0.469037
-0.46561
-0.46206
-0.458338
-0.454337
-0.449896
-0.444809
-0.438854
-0.431821
-0.423543
-0.413928
-0.402986
-0.390743
-0.377565
-0.3628
-0.349419
-0.485134
-0.481781
-0.478793
-0.475493
-0.471963
-0.468293
-0.464476
-0.460456
-0.456115
-0.451282
-0.445748
-0.439293
-0.431717
-0.422877
-0.412707
-0.401244
-0.388548
-0.374968
-0.359985
-0.346182
-0.489103
-0.485489
-0.482298
-0.478783
-0.475025
-0.471108
-0.467018
-0.462688
-0.457988
-0.452739
-0.446727
-0.439739
-0.43159
-0.422164
-0.411424
-0.399437
-0.386296
-0.372339
-0.357156
-0.343013
-0.493236
-0.489348
-0.485948
-0.482215
-0.478225
-0.474057
-0.469685
-0.46503
-0.45995
-0.454257
-0.447736
-0.440182
-0.431432
-0.421398
-0.410077
-0.397568
-0.383992
-0.369682
-0.354315
-0.339897
-0.497534
-0.493358
-0.489744
-0.485791
-0.481564
-0.477139
-0.472476
-0.467479
-0.461995
-0.455828
-0.448765
-0.440612
-0.431233
-0.420572
-0.408665
-0.395637
-0.38164
-0.366999
-0.351462
-0.336818
-0.501996
-0.497519
-0.493687
-0.489509
-0.485042
-0.480353
-0.475385
-0.470027
-0.464112
-0.457439
-0.449798
-0.441016
-0.430983
-0.419681
-0.407183
-0.393645
-0.37924
-0.364288
-0.348592
-0.333761
-0.506618
-0.501829
-0.497773
-0.493368
-0.488657
-0.483694
-0.478406
-0.472665
-0.46629
-0.459076
-0.450823
-0.44138
-0.430671
-0.418717
-0.405628
-0.391588
-0.376791
-0.361545
-0.345702
-0.33071
-0.511395
-0.506282
-0.502001
-0.497364
-0.492403
-0.487157
-0.481532
-0.475381
-0.468514
-0.460723
-0.451823
-0.441689
-0.430284
-0.417671
-0.403995
-0.389464
-0.374289
-0.358767
-0.342784
-0.327652
-0.516319
-0.510874
-0.506363
-0.501493
-0.496274
-0.490732
-0.484749
-0.478162
-0.470768
-0.462363
-0.45278
-0.441928
-0.429812
-0.416535
-0.402278
-0.387269
-0.371731
-0.355947
-0.339831
-0.324573
-0.521381
-0.515596
-0.510854
-0.505745
-0.500262
-0.494409
-0.488047
-0.480991
-0.473033
-0.463976
-0.453677
-0.442083
-0.429242
-0.415301
-0.400471
-0.384998
-0.369112
-0.353079
-0.336836
-0.321462
-0.526567
-0.520437
-0.515462
-0.510113
-0.504356
-0.498176
-0.491407
-0.483849
-0.475288
-0.465541
-0.454493
-0.442135
-0.428562
-0.413959
-0.398567
-0.382645
-0.366424
-0.350155
-0.33379
-0.318306
-0.531864
-0.525386
-0.520177
-0.514583
-0.508542
-0.502016
-0.494813
-0.486717
-0.477513
-0.467036
-0.45521
-0.44207
-0.427758
-0.412499
-0.396558
-0.380202
-0.363662
-0.347167
-0.330684
-0.315094
-0.537256
-0.530427
-0.524985
-0.519142
-0.512806
-0.505913
-0.498244
-0.48957
-0.479683
-0.46844
-0.455808
-0.441871
-0.42682
-0.410914
-0.394438
-0.377664
-0.360817
-0.344107
-0.32751
-0.311817
-0.542722
-0.535544
-0.52987
-0.523774
-0.517129
-0.509845
-0.501677
-0.492385
-0.481772
-0.469729
-0.456266
-0.441522
-0.425733
-0.409191
-0.392196
-0.37502
-0.357881
-0.340966
-0.324258
-0.308464
-0.548242
-0.540718
-0.534812
-0.528458
-0.52149
-0.513789
-0.505086
-0.495135
-0.483756
-0.470878
-0.456565
-0.441007
-0.424486
-0.407322
-0.389825
-0.372264
-0.354846
-0.337733
-0.32092
-0.305027
-0.553793
-0.545926
-0.539791
-0.533174
-0.525866
-0.51772
-0.508443
-0.497791
-0.485607
-0.471864
-0.456683
-0.44031
-0.423066
-0.405296
-0.387316
-0.369386
-0.351701
-0.334401
-0.317486
-0.301495
-0.537896
-0.53023
-0.521608
-0.511719
-0.500323
-0.487295
-0.472662
-0.456602
-0.439415
-0.421461
-0.403102
-0.384657
-0.366376
-0.348437
-0.33096
-0.313948
-0.29786
-0.525426
-0.514883
-0.5027
-0.488794
-0.473247
-0.456301
-0.438306
-0.419658
-0.400731
-0.38184
-0.363225
-0.345045
-0.3274
-0.310295
-0.294114
-0.490076
-0.473598
-0.455762
-0.43697
-0.417644
-0.39817
-0.378855
-0.359922
-0.341515
-0.323712
-0.30652
-0.290249
-0.415409
-0.39541
-0.375691
-0.356459
-0.337838
-0.319886
-0.302614
-0.286257
-0.352824
-0.334003
-0.315913
-0.298567
-0.28213
-0.277861
-0.282197
-0.353264
-0.335242
-0.318041
-0.301653
-0.286229
-0.432468
-0.412965
-0.393555
-0.374544
-0.356136
-0.338446
-0.321514
-0.305333
-0.290121
-0.48443
-0.468388
-0.451015
-0.432741
-0.414021
-0.395264
-0.376787
-0.358813
-0.341473
-0.324829
-0.308867
-0.293879
-0.51675
-0.506567
-0.494844
-0.481451
-0.466448
-0.450084
-0.432732
-0.414817
-0.396737
-0.37882
-0.361301
-0.344331
-0.327991
-0.312263
-0.297511
-0.527156
-0.519474
-0.511054
-0.501549
-0.490666
-0.47823
-0.46424
-0.448876
-0.432454
-0.415362
-0.397984
-0.380649
-0.363608
-0.347028
-0.33101
-0.31553
-0.301024
-0.542413
-0.533964
-0.527443
-0.52059
-0.513252
-0.505303
-0.496426
-0.486326
-0.474799
-0.46179
-0.447412
-0.431922
-0.415667
-0.399011
-0.382284
-0.365743
-0.349572
-0.333893
-0.318674
-0.304427
-0.535043
-0.526959
-0.520667
-0.514065
-0.50705
-0.499534
-0.491232
-0.48186
-0.471191
-0.459124
-0.44571
-0.431149
-0.415742
-0.399829
-0.38373
-0.367713
-0.35197
-0.336647
-0.321705
-0.307726
-0.527737
-0.520025
-0.513966
-0.50761
-0.500897
-0.493779
-0.486004
-0.477301
-0.467436
-0.456267
-0.443791
-0.43015
-0.415598
-0.400443
-0.384994
-0.369522
-0.354229
-0.339281
-0.324628
-0.310929
-0.520521
-0.513186
-0.507364
-0.501248
-0.494822
-0.488067
-0.480771
-0.472684
-0.463565
-0.453245
-0.441675
-0.42894
-0.415244
-0.400861
-0.386083
-0.371178
-0.356355
-0.341799
-0.327452
-0.314045
-0.513418
-0.506464
-0.50088
-0.495002
-0.488846
-0.482426
-0.475565
-0.468037
-0.459607
-0.450085
-0.439382
-0.427533
-0.41469
-0.401089
-0.387
-0.372684
-0.358353
-0.34421
-0.330184
-0.31708
-0.506449
-0.499876
-0.494533
-0.488891
-0.482992
-0.47688
-0.470413
-0.463391
-0.455592
-0.446814
-0.436935
-0.425945
-0.413947
-0.401134
-0.38775
-0.374045
-0.360228
-0.346518
-0.332831
-0.320044
-0.499632
-0.493439
-0.48834
-0.48293
-0.477277
-0.47145
-0.465338
-0.458773
-0.451547
-0.443456
-0.434355
-0.424192
-0.413024
-0.401002
-0.388338
-0.375264
-0.361983
-0.348729
-0.335398
-0.322944
-0.49298
-0.487167
-0.482311
-0.477133
-0.471717
-0.466153
-0.460363
-0.454207
-0.447497
-0.440036
-0.431662
-0.422289
-0.411933
-0.400699
-0.388765
-0.376342
-0.363621
-0.350847
-0.337892
-0.325789
-0.486508
-0.48107
-0.47646
-0.47151
-0.466324
-0.461006
-0.455506
-0.449715
-0.443468
-0.436578
-0.428877
-0.420254
-0.410683
-0.400231
-0.389034
-0.377282
-0.365145
-0.352875
-0.340318
-0.328587
-0.480224
-0.475157
-0.470793
-0.466071
-0.461108
-0.456019
-0.450782
-0.445315
-0.43948
-0.433105
-0.426021
-0.418101
-0.409286
-0.399602
-0.389149
-0.378082
-0.366553
-0.354815
-0.342681
-0.331348
-0.474138
-0.469437
-0.465316
-0.460822
-0.456074
-0.451201
-0.446203
-0.441024
-0.435552
-0.429636
-0.423114
-0.415848
-0.407754
-0.398821
-0.38911
-0.378744
-0.367847
-0.35667
-0.344984
-0.334082
-0.468255
-0.463913
-0.460036
-0.455766
-0.451229
-0.44656
-0.441778
-0.436854
-0.431701
-0.426191
-0.420175
-0.413511
-0.406098
-0.397893
-0.388919
-0.379266
-0.369024
-0.358439
-0.347231
-0.336799
-0.462581
-0.458591
-0.454954
-0.450905
-0.446575
-0.442099
-0.437515
-0.432816
-0.427941
-0.422787
-0.417221
-0.411107
-0.404331
-0.396826
-0.388578
-0.379646
-0.370081
-0.360122
-0.349424
-0.339511
-0.457118
-0.453473
-0.450072
-0.446242
-0.442112
-0.43782
-0.433417
-0.428917
-0.424284
-0.419439
-0.41427
-0.408652
-0.402466
-0.395626
-0.388091
-0.379882
-0.371015
-0.361716
-0.351562
-0.342229
-0.45187
-0.44856
-0.445391
-0.441775
-0.43784
-0.433723
-0.429487
-0.425163
-0.420737
-0.416158
-0.411336
-0.406161
-0.400516
-0.394305
-0.387459
-0.379974
-0.37182
-0.363218
-0.353645
-0.344967
-0.446837
-0.443854
-0.440911
-0.437505
-0.433758
-0.429807
-0.425724
-0.421555
-0.417309
-0.412956
-0.408434
-0.403649
-0.398495
-0.39287
-0.386688
-0.379918
-0.372491
-0.364623
-0.35567
-0.347739
-0.442021
-0.439355
-0.436633
-0.433428
-0.429863
-0.42607
-0.422129
-0.418097
-0.414003
-0.409843
-0.405575
-0.401131
-0.396417
-0.391333
-0.385783
-0.379714
-0.373022
-0.365923
-0.357631
-0.350559
-0.437425
-0.435063
-0.432554
-0.429545
-0.426154
-0.42251
-0.418698
-0.414788
-0.410824
-0.406824
-0.402772
-0.398621
-0.394297
-0.389707
-0.38475
-0.379363
-0.373406
-0.367109
-0.359518
-0.353439
-0.433049
-0.430981
-0.428675
-0.425853
-0.422628
-0.419124
-0.41543
-0.411627
-0.407773
-0.403906
-0.400034
-0.396133
-0.39215
-0.388004
-0.383599
-0.378866
-0.373636
-0.36817
-0.361318
-0.356389
-0.428895
-0.427108
-0.424996
-0.422351
-0.419282
-0.415909
-0.412324
-0.408614
-0.404853
-0.401095
-0.39737
-0.39368
-0.38999
-0.386241
-0.382341
-0.378226
-0.373706
-0.369091
-0.363012
-0.424967
-0.423445
-0.421516
-0.419038
-0.416116
-0.412864
-0.409377
-0.405749
-0.402065
-0.398395
-0.394791
-0.391274
-0.387835
-0.384433
-0.380988
-0.37745
-0.37361
-0.369856
-0.421267
-0.419994
-0.418237
-0.415914
-0.413129
-0.409988
-0.40659
-0.403033
-0.399412
-0.395813
-0.392304
-0.388929
-0.385701
-0.382598
-0.379558
-0.376546
-0.373344
-0.417799
-0.416757
-0.415159
-0.41298
-0.41032
-0.407281
-0.403962
-0.400466
-0.396898
-0.393354
-0.38992
-0.386659
-0.383605
-0.380756
-0.378069
-0.375527
-0.372907
-0.414566
-0.413736
-0.412283
-0.410237
-0.407691
-0.404744
-0.401495
-0.398052
-0.394526
-0.391025
-0.387649
-0.384478
-0.381565
-0.378929
-0.376544
-0.374411
-0.411572
-0.410933
-0.409611
-0.407684
-0.405243
-0.402378
-0.399192
-0.395795
-0.392303
-0.388835
-0.385502
-0.382401
-0.379602
-0.377141
-0.375007
-0.408821
-0.408348
-0.407142
-0.405324
-0.402976
-0.400186
-0.397056
-0.393698
-0.390235
-0.386792
-0.383492
-0.380445
-0.377735
-0.375416
-0.373488
-0.406314
-0.405984
-0.404879
-0.403157
-0.400893
-0.39817
-0.395091
-0.391768
-0.388329
-0.384906
-0.381631
-0.378625
-0.375986
-0.37378
-0.404052
-0.403838
-0.402822
-0.401183
-0.398994
-0.396333
-0.3933
-0.390009
-0.386592
-0.383186
-0.379932
-0.376959
-0.374377
-0.402036
-0.40191
-0.400968
-0.399402
-0.39728
-0.394675
-0.391685
-0.388427
-0.385032
-0.381644
-0.378408
-0.375463
-0.372927
-0.400263
-0.400198
-0.399316
-0.397812
-0.39575
-0.393197
-0.390251
-0.387025
-0.383655
-0.380286
-0.37707
-0.374152
-0.398729
-0.398699
-0.397861
-0.396409
-0.394401
-0.391899
-0.388995
-0.385806
-0.382465
-0.379121
-0.37593
-0.37304
-0.397426
-0.397404
-0.396599
-0.39519
-0.393231
-0.390777
-0.387919
-0.384769
-0.381464
-0.378153
-0.374993
-0.396347
-0.396308
-0.395522
-0.394149
-0.392233
-0.389827
-0.387017
-0.383914
-0.380653
-0.377384
-0.374264
-0.39548
-0.395401
-0.394622
-0.393277
-0.391401
-0.389044
-0.386286
-0.383237
-0.380029
-0.376812
-0.394811
-0.394671
-0.39389
-0.392566
-0.390728
-0.388419
-0.385718
-0.38273
-0.379586
-0.376435
-0.394327
-0.394108
-0.393313
-0.392005
-0.390202
-0.387944
-0.385305
-0.382387
-0.379318
-0.394011
-0.393695
-0.392882
-0.391584
-0.389814
-0.387609
-0.385036
-0.382196
-0.379214
-0.393844
-0.393421
-0.392581
-0.39129
-0.389552
-0.387401
-0.384901
-0.382148
-0.379265
-0.393809
-0.39327
-0.392398
-0.39111
-0.389404
-0.387311
-0.384888
-0.38223
-0.393887
-0.393226
-0.39232
-0.391033
-0.389359
-0.387324
-0.384984
-0.382429
-0.39406
-0.393273
-0.392331
-0.391044
-0.389402
-0.387429
-0.385177
-0.382732
-0.394307
-0.393397
-0.392417
-0.391132
-0.389522
-0.387613
-0.385454
-0.394612
-0.393582
-0.392567
-0.391282
-0.389708
-0.387865
-0.385802
-0.394956
-0.393812
-0.392764
-0.391484
-0.389946
-0.388173
-0.38621
-0.395323
-0.394074
-0.392998
-0.391724
-0.390225
-0.388525
-0.395697
-0.394354
-0.393255
-0.391992
-0.390535
-0.38891
-0.396063
-0.394639
-0.393524
-0.392275
-0.390864
-0.389317
-0.396407
-0.394917
-0.393792
-0.392564
-0.391202
-0.389736
-0.396716
-0.395177
-0.39405
-0.392848
-0.39154
-0.396979
-0.395407
-0.394288
-0.393118
-0.391868
-0.397186
-0.395599
-0.394496
-0.393365
-0.392176
-0.397327
-0.395743
-0.394667
-0.39358
-0.392457
-0.397394
-0.395832
-0.394792
-0.393757
-0.39738
-0.39586
-0.394865
-0.393888
-0.39728
-0.39582
-0.39488
-0.393967
-0.39709
-0.39571
-0.394833
-0.39399
-0.396807
-0.395525
-0.394721
-0.393953
-0.396431
-0.395264
-0.394541
-0.393853
-0.395962
-0.394927
-0.394292
-0.393689
-0.395403
-0.394515
-0.393976
-0.393462
-0.394756
-0.394032
-0.393595
-0.394029
-0.39348
-0.393151
-0.393227
-0.392867
-0.39265
-0.39236
-0.392199
-0.392098
-0.391439
-0.391485
-0.391503
-0.390475
-0.390736
-0.390875
-0.389481
-0.389962
-0.390224
-0.388473
-0.389177
-0.389561
-0.257003
-0.261147
-0.265166
-0.269066
-0.272852
-0.27653
-0.280103
-0.283578
-0.28696
-0.290254
-0.293465
-0.296596
-0.299654
-0.302642
-0.305565
-0.308428
-0.311236
-0.313996
-0.316714
-0.319398
-0.322061
-0.324717
-0.327384
-0.330086
-0.234319
-0.238255
-0.242092
-0.245832
-0.249479
-0.253038
-0.256512
-0.259907
-0.263225
-0.266472
-0.269653
-0.272772
-0.275836
-0.27885
-0.281822
-0.284758
-0.287669
-0.290563
-0.293453
-0.296352
-0.299278
-0.302247
-0.305283
-0.308409
-0.213721
-0.217432
-0.221064
-0.224618
-0.228098
-0.231506
-0.234846
-0.238122
-0.241336
-0.244493
-0.247596
-0.250649
-0.253656
-0.256622
-0.259552
-0.26245
-0.265321
-0.268173
-0.271009
-0.273836
-0.276661
-0.279489
-0.282328
-0.285183
-0.195084
-0.198556
-0.201962
-0.205305
-0.208587
-0.21181
-0.214977
-0.218089
-0.22115
-0.224161
-0.227124
-0.230044
-0.23292
-0.235758
-0.238558
-0.241324
-0.244059
-0.246766
-0.249448
-0.252108
-0.254752
-0.257384
-0.26001
-0.262638
-0.178121
-0.181352
-0.18453
-0.187655
-0.190731
-0.193757
-0.196736
-0.19967
-0.20256
-0.205407
-0.208215
-0.210983
-0.213715
-0.216412
-0.219077
-0.221711
-0.224317
-0.226898
-0.229455
-0.231993
-0.234515
-0.237024
-0.239524
-0.242019
-0.162664
-0.16566
-0.168611
-0.17152
-0.174387
-0.177214
-0.180001
-0.182751
-0.185464
-0.188141
-0.190784
-0.193395
-0.195974
-0.198522
-0.201042
-0.203535
-0.206001
-0.208443
-0.210863
-0.21326
-0.215638
-0.217998
-0.220341
-0.22267
-0.148544
-0.151313
-0.154046
-0.156744
-0.159407
-0.162037
-0.164634
-0.1672
-0.169735
-0.17224
-0.174716
-0.177164
-0.179585
-0.18198
-0.184349
-0.186694
-0.189016
-0.191315
-0.193593
-0.19585
-0.198088
-0.200308
-0.202511
-0.204698
-0.135629
-0.138183
-0.140707
-0.143203
-0.14567
-0.148109
-0.150521
-0.152907
-0.155267
-0.157603
-0.159914
-0.162202
-0.164467
-0.166709
-0.16893
-0.171131
-0.173311
-0.175472
-0.177614
-0.179738
-0.181844
-0.183934
-0.186008
-0.188067
-0.123797
-0.126149
-0.128477
-0.13078
-0.133061
-0.135318
-0.137553
-0.139767
-0.141959
-0.144131
-0.146282
-0.148414
-0.150527
-0.152622
-0.154698
-0.156757
-0.158799
-0.160824
-0.162833
-0.164827
-0.166806
-0.168769
-0.170719
-0.172655
-0.112943
-0.115107
-0.11725
-0.119374
-0.121479
-0.123565
-0.125633
-0.127682
-0.129714
-0.13173
-0.133728
-0.135711
-0.137678
-0.139629
-0.141566
-0.143488
-0.145396
-0.147291
-0.149172
-0.15104
-0.152896
-0.154739
-0.156571
-0.158391
-0.102975
-0.104964
-0.106937
-0.108893
-0.110833
-0.112759
-0.114669
-0.116564
-0.118445
-0.120312
-0.122166
-0.124007
-0.125835
-0.12765
-0.129453
-0.131245
-0.133025
-0.134794
-0.136552
-0.1383
-0.140037
-0.141765
-0.143483
-0.145192
-0.0938111
-0.0956388
-0.0974529
-0.0992537
-0.101041
-0.102817
-0.10458
-0.106331
-0.10807
-0.109798
-0.111515
-0.113222
-0.114918
-0.116604
-0.118281
-0.119948
-0.121606
-0.123255
-0.124896
-0.126528
-0.128153
-0.129769
-0.131378
-0.13298
-0.0853754
-0.0870547
-0.0887228
-0.0903799
-0.0920264
-0.0936626
-0.0952889
-0.0969054
-0.0985126
-0.100111
-0.1017
-0.103281
-0.104853
-0.106418
-0.107975
-0.109524
-0.111067
-0.112602
-0.114131
-0.115654
-0.11717
-0.118681
-0.120185
-0.121685
-0.0776056
-0.0791481
-0.0806815
-0.082206
-0.0837218
-0.0852293
-0.0867288
-0.0882204
-0.0897045
-0.0911813
-0.0926512
-0.0941143
-0.0955709
-0.0970214
-0.0984658
-0.0999045
-0.101338
-0.102766
-0.104189
-0.105607
-0.107021
-0.10843
-0.109836
-0.111238
-0.0704405
-0.0718577
-0.0732674
-0.0746698
-0.0760653
-0.077454
-0.0788363
-0.0802123
-0.0815823
-0.0829465
-0.0843052
-0.0856587
-0.0870071
-0.0883507
-0.0896898
-0.0910245
-0.0923552
-0.0936819
-0.0950051
-0.0963248
-0.0976414
-0.0989549
-0.100266
-0.101574
-0.0638278
-0.0651301
-0.0664262
-0.0677165
-0.0690012
-0.0702804
-0.0715545
-0.0728236
-0.074088
-0.0753478
-0.0766034
-0.0778548
-0.0791025
-0.0803464
-0.081587
-0.0828244
-0.0840588
-0.0852905
-0.0865196
-0.0877464
-0.0889711
-0.0901939
-0.0914151
-0.0926347
-0.0577194
-0.0589164
-0.0601085
-0.0612959
-0.0624787
-0.0636572
-0.0648316
-0.066002
-0.0671688
-0.068332
-0.0694919
-0.0706488
-0.0718027
-0.072954
-0.0741027
-0.0752492
-0.0763936
-0.0775361
-0.078677
-0.0798164
-0.0809546
-0.0820917
-0.083228
-0.0843637
-0.052073
-0.0531736
-0.0542703
-0.0553631
-0.0564524
-0.0575381
-0.0586207
-0.0597001
-0.0607767
-0.0618506
-0.062922
-0.0639911
-0.065058
-0.0661231
-0.0671863
-0.068248
-0.0693084
-0.0703676
-0.0714258
-0.0724832
-0.0735401
-0.0745965
-0.0756528
-0.076709
-0.047862
-0.0488712
-0.0498773
-0.0508806
-0.0518811
-0.0528791
-0.0538747
-0.0548681
-0.0558595
-0.056849
-0.0578368
-0.0588231
-0.059808
-0.0607918
-0.0617746
-0.0627565
-0.0637379
-0.0647188
-0.0656994
-0.06668
-0.0676606
-0.0686416
-0.069623
-0.0429449
-0.043874
-0.0448006
-0.045725
-0.0466472
-0.0475675
-0.0484859
-0.0494026
-0.0503178
-0.0512316
-0.0521442
-0.0530558
-0.0539665
-0.0548764
-0.0557858
-0.0566949
-0.0576036
-0.0585123
-0.0594212
-0.0603303
-0.0612399
-0.0621501
-0.0630611
-0.0383911
-0.0392468
-0.0401005
-0.0409524
-0.0418026
-0.0426513
-0.0434985
-0.0443445
-0.0451894
-0.0460333
-0.0468764
-0.0477187
-0.0485606
-0.049402
-0.0502432
-0.0510843
-0.0519255
-0.0527668
-0.0536086
-0.0544509
-0.0552939
-0.0561378
-0.0569826
-0.0341704
-0.0349587
-0.0357455
-0.0365309
-0.0373149
-0.0380978
-0.0388796
-0.0396604
-0.0404404
-0.0412197
-0.0419985
-0.0427768
-0.0435549
-0.0443328
-0.0451106
-0.0458886
-0.0466669
-0.0474456
-0.0482248
-0.0490047
-0.0497855
-0.0505672
-0.0513501
-0.0521343
-0.0302575
-0.030984
-0.0317093
-0.0324334
-0.0331566
-0.0338787
-0.0346001
-0.0353208
-0.0360409
-0.0367606
-0.0374799
-0.0381989
-0.0389179
-0.0396368
-0.0403559
-0.0410753
-0.041795
-0.0425153
-0.0432362
-0.0439579
-0.0446806
-0.0454042
-0.0461291
-0.0468553
-0.026627
-0.0272968
-0.0279656
-0.0286335
-0.0293006
-0.029967
-0.0306327
-0.031298
-0.0319628
-0.0326274
-0.0332917
-0.0339559
-0.0346202
-0.0352846
-0.0359492
-0.0366141
-0.0372795
-0.0379455
-0.0386121
-0.0392796
-0.039948
-0.0406175
-0.0412882
-0.0419601
-0.0232575
-0.0238752
-0.0244921
-0.0251083
-0.0257238
-0.0263388
-0.0269533
-0.0275674
-0.0281813
-0.0287949
-0.0294084
-0.0300219
-0.0306355
-0.0312493
-0.0318634
-0.0324778
-0.0330927
-0.0337082
-0.0343244
-0.0349414
-0.0355593
-0.0361782
-0.0367983
-0.0374195
-0.0201288
-0.0206986
-0.0212678
-0.0218363
-0.0224044
-0.022972
-0.0235393
-0.0241062
-0.024673
-0.0252396
-0.0258062
-0.0263728
-0.0269395
-0.0275065
-0.0280737
-0.0286413
-0.0292094
-0.029778
-0.0303473
-0.0309173
-0.0314882
-0.03206
-0.0326329
-0.0332069
-0.0172224
-0.0177482
-0.0182735
-0.0187983
-0.0193227
-0.0198467
-0.0203705
-0.0208939
-0.0214172
-0.0219405
-0.0224637
-0.0229869
-0.0235103
-0.0240338
-0.0245576
-0.0250818
-0.0256065
-0.0261316
-0.0266573
-0.0271837
-0.0277109
-0.0282389
-0.0287679
-0.0292979
-0.0145222
-0.0150076
-0.0154925
-0.015977
-0.0164611
-0.0169449
-0.0174284
-0.0179117
-0.0183949
-0.018878
-0.0193611
-0.0198443
-0.0203275
-0.0208109
-0.0212946
-0.0217786
-0.0222629
-0.0227477
-0.023233
-0.0237189
-0.0242055
-0.0246928
-0.0251809
-0.02567
-0.0120132
-0.0124613
-0.012909
-0.0133563
-0.0138033
-0.01425
-0.0146965
-0.0151427
-0.0155889
-0.0160349
-0.0164809
-0.016927
-0.0173731
-0.0178194
-0.0182658
-0.0187125
-0.0191595
-0.0196069
-0.0200547
-0.0205031
-0.020952
-0.0214015
-0.0218517
-0.0223026
-0.00968123
-0.010095
-0.0105084
-0.0109215
-0.0113342
-0.0117467
-0.012159
-0.012571
-0.012983
-0.0133948
-0.0138066
-0.0142183
-0.0146301
-0.015042
-0.015454
-0.0158663
-0.0162787
-0.0166914
-0.0171045
-0.017518
-0.0179319
-0.0183464
-0.0187614
-0.019177
-0.00751391
-0.00789608
-0.00827789
-0.00865936
-0.00904054
-0.00942145
-0.00980213
-0.0101826
-0.0105629
-0.0109431
-0.0113232
-0.0117033
-0.0120834
-0.0124634
-0.0128436
-0.0132239
-0.0136044
-0.013985
-0.0143659
-0.0147471
-0.0151287
-0.0155106
-0.015893
-0.0162759
-0.00549958
-0.0058526
-0.00620528
-0.00655763
-0.00690967
-0.00726145
-0.00761298
-0.0079643
-0.00831543
-0.00866641
-0.00901726
-0.00936803
-0.00971874
-0.0100694
-0.0104201
-0.0107709
-0.0111217
-0.0114727
-0.0118238
-0.0121751
-0.0125267
-0.0128785
-0.0132307
-0.0135832
-0.00362777
-0.00395391
-0.00427971
-0.00460518
-0.00493034
-0.00525522
-0.00557983
-0.00590421
-0.00622838
-0.00655237
-0.00687619
-0.00719988
-0.00752346
-0.00784697
-0.00817042
-0.00849386
-0.00881731
-0.00914081
-0.00946437
-0.00978805
-0.0101119
-0.0104358
-0.01076
-0.0110845
-0.00188876
-0.0021901
-0.0024911
-0.00279176
-0.0030921
-0.00339215
-0.00369192
-0.00399142
-0.00429068
-0.00458973
-0.00488857
-0.00518724
-0.00548575
-0.00578413
-0.0060824
-0.00638059
-0.00667872
-0.00697682
-0.00727491
-0.00757302
-0.00787118
-0.00816941
-0.00846774
-0.0087662
-0.00027365
-0.000552111
-0.000830218
-0.00110798
-0.00138541
-0.00166253
-0.00193935
-0.00221588
-0.00249214
-0.00276814
-0.00304391
-0.00331946
-0.00359481
-0.00386998
-0.00414498
-0.00441984
-0.00469457
-0.00496921
-0.00524376
-0.00551825
-0.0057927
-0.00606713
-0.00634157
-0.00661604
0.00122569
0.000968354
0.000711379
0.000454759
0.000198483
-5.74596e-05
-0.000313081
-0.000568392
-0.000823405
-0.00107813
-0.00133259
-0.00158678
-0.00184074
-0.00209446
-0.00234797
-0.00260128
-0.0028544
-0.00310736
-0.00336017
-0.00361285
-0.00386541
-0.00411787
-0.00437025
-0.00462257
0.00261682
0.00237899
0.00214152
0.00190442
0.00166768
0.00143129
0.00119524
0.000959521
0.000724128
0.00048905
0.000254277
1.97978e-05
-0.000214398
-0.000448321
-0.000681984
-0.000915398
-0.00114858
-0.00138153
-0.00161427
-0.00184682
-0.00207918
-0.00231137
-0.0025434
-0.0027753
0.00390669
0.00368686
0.0034674
0.00324833
0.00302962
0.00281128
0.0025933
0.00237567
0.00215839
0.00194145
0.00172485
0.00150857
0.00129261
0.00107696
0.00086161
0.000646554
0.000431782
0.000217283
3.04852e-06
-0.000210932
-0.000424668
-0.000638172
-0.000851452
-0.00106452
0.0051017
0.00489849
0.00469566
0.00449322
0.00429116
0.00408948
0.00388818
0.00368724
0.00348668
0.00328648
0.00308664
0.00288716
0.00268802
0.00248923
0.00229077
0.00209265
0.00189484
0.00169736
0.00150019
0.00130331
0.00110674
0.000910448
0.000714439
0.000518702
0.0062078
0.00601992
0.00583243
0.00564534
0.00545865
0.00527234
0.00508642
0.0049009
0.00471575
0.004531
0.00434662
0.00416262
0.003979
0.00379574
0.00361286
0.00343033