/*--------------------------------*- C++ -*----------------------------------*\
  =========                 |
  \\      /  F ield         | OpenFOAM: The Open Source CFD Toolbox
   \\    /   O peration     | Website:  https://openfoam.org
    \\  /    A nd           | Version:  7
     \\/     M anipulation  |
\*---------------------------------------------------------------------------*/
FoamFile
{
    version     2.0;
    format      ascii;
    class       surfaceScalarField;
    location    "140";
    object      phi;
}
// * * * * * * * * * * * * * * * * * * * * * * * * * * * * * * * * * * * * * //

dimensions      [0 3 -1 0 0 0 0];

internalField   nonuniform List<scalar> 
8842
(
-1.40513e-06
-4.8014e-05
4.94191e-05
-5.32253e-06
-0.000122293
0.00012621
-0.000179656
0.000185917
-1.4859e-06
-4.65281e-05
-5.58692e-06
-0.000118192
-0.000173153
-1.55474e-06
-4.49733e-05
-5.80928e-06
-0.000113937
-0.000166452
-1.61201e-06
-4.33613e-05
-5.99109e-06
-0.000109558
-0.000159598
-1.65826e-06
-4.17031e-05
-6.13446e-06
-0.000105082
-0.00015263
-1.6943e-06
-4.00088e-05
-6.24225e-06
-0.000100534
-0.000145587
-1.72107e-06
-3.82877e-05
-6.31781e-06
-9.5937e-05
-0.000138502
-1.73959e-06
-3.65481e-05
-6.36489e-06
-9.13117e-05
-0.000131405
-1.75096e-06
-3.47972e-05
-6.38745e-06
-8.66752e-05
-1.34713e-05
-0.000124321
-0.000148822
-1.75638e-06
-3.30408e-05
-6.38988e-06
-8.20418e-05
-1.34403e-05
-0.000117271
-0.000139777
-1.75717e-06
-3.12836e-05
-6.37675e-06
-7.74222e-05
-1.33783e-05
-0.000110269
-0.000130836
-1.7547e-06
-2.95289e-05
-6.35269e-06
-7.28242e-05
-1.32949e-05
-0.000103327
-0.000122011
-1.75035e-06
-2.77785e-05
-6.32228e-06
-6.82523e-05
-1.3199e-05
-9.64501e-05
-0.00011331
-1.74536e-06
-2.60332e-05
-6.28976e-06
-6.37079e-05
-1.30994e-05
-8.96406e-05
-0.000104734
-1.74087e-06
-2.42923e-05
-6.25888e-06
-5.91898e-05
-1.30034e-05
-8.2896e-05
-9.62793e-05
-1.73779e-06
-2.25545e-05
-6.23275e-06
-5.46949e-05
-1.29175e-05
-7.62113e-05
-8.79393e-05
-1.73683e-06
-2.08177e-05
-6.21373e-06
-5.0218e-05
-1.28464e-05
-6.95787e-05
-2.10826e-05
-7.97031e-05
-8.16239e-05
-1.73845e-06
-1.90792e-05
-6.20338e-06
-4.5753e-05
-1.27932e-05
-6.29888e-05
-2.09384e-05
-7.15579e-05
-7.24479e-05
-1.74291e-06
-1.73363e-05
-6.20241e-06
-4.12935e-05
-1.27595e-05
-5.64318e-05
-2.08271e-05
-6.34903e-05
-6.34114e-05
-1.75017e-06
-1.55862e-05
-6.21063e-06
-3.68331e-05
-1.27445e-05
-4.98979e-05
-2.07477e-05
-5.5487e-05
-5.44978e-05
-1.75992e-06
-1.38263e-05
-6.22687e-06
-3.23661e-05
-1.27457e-05
-4.33791e-05
-2.06955e-05
-4.75372e-05
-2.95009e-05
-4.56924e-05
-3.8832e-05
-1.77157e-06
-1.20547e-05
-6.24891e-06
-2.78888e-05
-1.27583e-05
-3.68697e-05
-2.06624e-05
-3.96331e-05
-2.93696e-05
-3.69852e-05
-2.9863e-05
-1.78421e-06
-1.02705e-05
-6.27357e-06
-2.33994e-05
-1.27757e-05
-3.03676e-05
-2.06369e-05
-3.17719e-05
-2.92501e-05
-2.8372e-05
-2.10547e-05
-1.7967e-06
-8.47378e-06
-6.2968e-06
-1.88993e-05
-1.27893e-05
-2.38751e-05
-2.06046e-05
-2.39567e-05
-2.91204e-05
-1.98561e-05
-1.24104e-05
-1.80764e-06
-6.66613e-06
-6.31378e-06
-1.43932e-05
-1.27891e-05
-1.73997e-05
-2.05482e-05
-1.61976e-05
-2.89541e-05
-1.14502e-05
-3.74195e-05
-3.94498e-06
5.43753e-06
-1.8155e-06
-4.85063e-06
-6.31909e-06
-9.88959e-06
-1.27637e-05
-1.09551e-05
-2.04484e-05
-8.51293e-06
-2.87215e-05
-3.17705e-06
-3.69803e-05
4.31381e-06
1.31235e-05
-1.81858e-06
-3.03205e-06
-6.30688e-06
-5.4013e-06
-1.27008e-05
-4.56122e-06
-2.02843e-05
-9.2945e-07
-2.83907e-05
4.92935e-06
-3.6401e-05
1.23241e-05
2.04608e-05
-1.81515e-06
-1.2169e-06
-6.27109e-06
-9.45364e-07
-1.25877e-05
1.7554e-06
-2.00341e-05
6.51691e-06
-2.7928e-05
1.28233e-05
-3.56333e-05
2.00293e-05
-4.25525e-05
2.73801e-05
3.4034e-05
-1.80351e-06
5.86614e-07
-6.20575e-06
3.45687e-06
-1.24119e-05
7.96153e-06
-1.96762e-05
1.37812e-05
-2.73003e-05
2.04474e-05
-3.46287e-05
2.73578e-05
-4.10414e-05
3.37927e-05
3.89349e-05
-1.78205e-06
2.36866e-06
-6.1052e-06
7.78002e-06
-1.21613e-05
1.40176e-05
-1.91899e-05
2.08098e-05
-2.64753e-05
2.77328e-05
-3.33409e-05
3.42235e-05
-3.91401e-05
3.95918e-05
4.30396e-05
-1.74933e-06
4.11799e-06
-5.96434e-06
1.1995e-05
-1.1825e-05
1.98782e-05
-1.85562e-05
2.7541e-05
-2.54235e-05
3.46001e-05
-3.17266e-05
4.05265e-05
-3.67887e-05
4.4654e-05
-3.99443e-05
4.61952e-05
4.42571e-05
-1.70418e-06
5.82217e-06
-5.77887e-06
1.60697e-05
-1.13937e-05
2.5493e-05
-1.77587e-05
3.3906e-05
-2.41191e-05
4.09606e-05
-2.97479e-05
4.61554e-05
-3.39342e-05
4.88402e-05
-3.59695e-05
4.82306e-05
4.34205e-05
-1.64572e-06
7.46789e-06
-5.54551e-06
1.99695e-05
-1.086e-05
3.08075e-05
-1.67841e-05
3.98302e-05
-2.25411e-05
4.67175e-05
-2.7374e-05
5.09882e-05
-3.05332e-05
5.19995e-05
-3.12622e-05
4.89595e-05
-2.87814e-05
4.09397e-05
2.68846e-05
-1.57344e-06
9.04132e-06
-5.26209e-06
2.36582e-05
-1.02189e-05
3.57643e-05
-1.56232e-05
4.52344e-05
-2.0674e-05
5.17684e-05
-2.45815e-05
5.48958e-05
-2.65533e-05
5.39712e-05
-2.57791e-05
4.81853e-05
-2.14145e-05
3.65752e-05
1.80352e-05
-1.4872e-06
1.05285e-05
-4.92774e-06
2.70987e-05
-9.46781e-06
4.03044e-05
-1.42704e-05
5.0037e-05
-1.85086e-05
5.60066e-05
-2.13562e-05
5.77434e-05
-2.19739e-05
5.45889e-05
-1.9493e-05
4.57044e-05
-1.29993e-05
3.00814e-05
6.55361e-06
-1.38727e-06
1.19158e-05
-4.54283e-06
3.02543e-05
-8.6067e-06
4.43682e-05
-1.27247e-05
5.41549e-05
-1.60418e-05
5.93237e-05
-1.76926e-05
5.93942e-05
-1.67869e-05
5.36832e-05
-1.23938e-05
4.13113e-05
-3.5251e-06
2.12127e-05
1.08782e-05
-7.84965e-06
-4.72638e-05
-1.27427e-06
1.31901e-05
-4.10896e-06
3.3089e-05
-7.63805e-06
4.78973e-05
-1.0989e-05
5.75059e-05
-1.32768e-05
6.16115e-05
-1.3594e-05
5.97114e-05
-1.09965e-05
5.10857e-05
-4.48768e-06
3.48025e-05
6.99675e-06
9.72831e-06
2.46006e-05
-2.54535e-05
-7.22148e-05
-1.14917e-06
1.43392e-05
-3.62886e-06
3.55687e-05
-6.56656e-06
5.0835e-05
-9.0702e-06
6.00096e-05
-1.02226e-05
6.27639e-05
-9.07189e-06
5.85607e-05
-4.61762e-06
4.66315e-05
4.20433e-06
2.59805e-05
1.85353e-05
-4.60262e-06
3.96023e-05
-4.65205e-05
6.87176e-05
-0.00010133
-0.000170684
-1.0132e-06
1.53524e-05
-3.10617e-06
3.76616e-05
-5.3989e-06
5.31277e-05
-6.97819e-06
6.15888e-05
-6.89287e-06
6.26786e-05
-4.14469e-06
5.58126e-05
2.32492e-06
4.01618e-05
1.36484e-05
1.46571e-05
3.10427e-05
-2.1997e-05
5.5814e-05
-7.12919e-05
8.93504e-05
-0.000134866
-0.000214431
-8.67799e-07
1.62202e-05
-2.54524e-06
3.93391e-05
-4.14315e-06
5.47256e-05
-4.72549e-06
6.21712e-05
-3.3053e-06
6.12584e-05
1.16366e-06
5.13436e-05
9.7989e-06
3.15266e-05
2.38004e-05
6.5554e-07
4.44581e-05
-4.26546e-05
7.31498e-05
-9.99836e-05
0.000111327
-0.000173043
0.000160479
-0.000263583
-0.000373255
-7.14612e-07
1.69348e-05
-1.95099e-06
4.05754e-05
-2.80853e-06
5.55832e-05
-2.32641e-06
6.16891e-05
5.1977e-07
5.84122e-05
6.82536e-06
4.5038e-05
1.77668e-05
2.05852e-05
3.46097e-05
-1.61874e-05
5.87115e-05
-6.67564e-05
9.15121e-05
-0.000132784
0.000134509
-0.00021604
0.00018921
-0.000318284
-0.000441105
-5.55016e-07
1.74899e-05
-1.32799e-06
4.13484e-05
-1.40405e-06
5.56592e-05
2.04579e-07
6.00804e-05
4.56123e-06
5.40555e-05
1.2811e-05
3.67882e-05
2.61883e-05
7.20788e-06
4.60212e-05
-3.60203e-05
7.37273e-05
-9.44624e-05
0.000110796
-0.000169853
0.000158749
-0.000263994
0.000219082
-0.000378617
0.000293171
-0.000515193
-0.000674702
-3.90547e-07
1.78804e-05
-6.8114e-07
4.1639e-05
6.12299e-08
5.49169e-05
2.85268e-06
5.7289e-05
8.7976e-06
4.81106e-05
1.90908e-05
2.6495e-05
3.50228e-05
-8.72418e-06
5.79793e-05
-5.89768e-05
8.94288e-05
-0.000125912
0.000130894
-0.000211317
0.000183898
-0.000316998
0.000249886
-0.000444605
0.000330114
-0.000595421
0.000425519
-0.000770108
-0.000968442
-2.22447e-07
1.81029e-05
-1.28235e-08
4.14294e-05
1.57854e-06
5.33255e-05
5.60433e-06
5.32632e-05
1.32089e-05
4.0506e-05
2.56365e-05
1.40675e-05
4.42312e-05
-2.73189e-05
7.04298e-05
-8.51754e-05
0.00010574
-0.000161222
0.000151699
-0.000257277
0.000209803
-0.000375102
0.000281407
-0.000516209
0.000367593
-0.000681607
0.000469022
-0.000871536
-0.00108521
-5.21617e-08
1.8155e-05
6.68328e-07
4.07089e-05
3.1409e-06
5.08529e-05
8.44794e-06
4.79562e-05
1.77777e-05
3.11763e-05
3.24229e-05
-5.77783e-07
5.37776e-05
-4.86735e-05
8.33217e-05
-0.00011472
0.000122589
-0.00020049
0.000173108
-0.000307796
0.000236317
-0.00043831
0.000313434
-0.000593326
0.000405315
-0.000773488
0.000512278
-0.0009785
0.000633958
-0.00120689
-0.00145588
1.20012e-07
1.8035e-05
1.36503e-06
3.94639e-05
4.74321e-06
4.74748e-05
1.13743e-05
4.13251e-05
2.24895e-05
2.00611e-05
3.94286e-05
-1.75169e-05
6.36304e-05
-7.28753e-05
9.66086e-05
-0.000147698
0.000139906
-0.000243787
0.000195019
-0.000362909
0.000263288
-0.00050658
0.000345754
-0.000675792
0.000442985
-0.000870718
0.000554902
-0.00109042
0.000680632
-0.00133262
0.000818443
-0.00159369
-0.00186869
2.93528e-07
1.77415e-05
2.07371e-06
3.76837e-05
6.38187e-06
4.31666e-05
1.43769e-05
3.333e-05
2.73337e-05
7.10432e-06
4.66365e-05
-3.68198e-05
7.37628e-05
-0.000100002
0.000110248
-0.000184183
0.000157626
-0.000291164
0.00021733
-0.000422614
0.000290567
-0.000579817
0.000378149
-0.000763373
0.000480304
-0.000972874
0.000596509
-0.00120662
0.000725357
-0.00146147
0.000864542
-0.00173288
-0.00201508
4.68341e-07
1.72731e-05
2.79394e-06
3.53581e-05
8.05526e-06
3.79053e-05
1.74523e-05
2.3933e-05
3.23032e-05
-7.74662e-06
5.40337e-05
-5.85502e-05
8.4152e-05
-0.00013012
0.000124202
-0.000224233
0.000175684
-0.000342646
0.00023994
-0.00048687
0.000317999
-0.000657876
0.000410394
-0.000855769
0.000516969
-0.00107945
0.000636716
-0.00132637
0.000767695
-0.00159244
0.000907072
-0.00187225
0.0010513
-0.00215931
-0.00244783
6.44747e-07
1.66284e-05
3.52629e-06
3.24766e-05
9.76369e-06
3.16679e-05
2.05995e-05
1.30972e-05
3.73944e-05
-2.45415e-05
6.16108e-05
-8.27666e-05
9.47785e-05
-0.000163288
0.000138433
-0.000267887
0.000194016
-0.00039823
0.000262743
-0.000555596
0.000345421
-0.000740555
0.000442257
-0.000952605
0.000552668
-0.00118986
0.000675144
-0.00144885
0.000807231
-0.00172453
0.000945645
-0.00201067
0.00108656
-0.00230023
0.00122584
-0.00258711
-0.00286354
8.2336e-07
1.5805e-05
4.27223e-06
2.90277e-05
1.15091e-05
2.4431e-05
2.382e-05
7.86284e-07
4.26062e-05
-4.33277e-05
6.93611e-05
-0.000109522
0.000105624
-0.000199551
0.000152903
-0.000315166
0.000212555
-0.000457881
0.000285626
-0.000628667
0.000372661
-0.000827589
0.000473495
-0.00105344
0.000587086
-0.00130345
0.000711424
-0.00157318
0.000843583
-0.00185669
0.000979929
-0.00214701
0.0011165
-0.00243679
0.00124928
-0.0027199
0.00137498
-0.00298924
-0.0032425
1.00505e-06
1.48e-05
5.03399e-06
2.49987e-05
1.32948e-05
1.61702e-05
2.7117e-05
-1.30359e-05
4.79394e-05
-6.41502e-05
7.72792e-05
-0.000138861
0.000116672
-0.000238943
0.000167574
-0.000366068
0.000231226
-0.000521533
0.000308468
-0.000705909
0.000399535
-0.000918656
0.000503855
-0.00115776
0.000619909
-0.0014195
0.000745205
-0.00169848
0.000876413
-0.0019879
0.00100967
-0.00228027
0.00114101
-0.00256813
0.00126671
-0.0028456
0.001384
-0.00310654
-0.00335019
0.00149169
1.19086e-06
1.36091e-05
5.81431e-06
2.03753e-05
1.51249e-05
6.85961e-06
3.04945e-05
-2.84055e-05
5.33956e-05
-8.70512e-05
8.5359e-05
-0.000170825
0.0001279
-0.000281484
0.0001824
-0.000420569
0.000249948
-0.00058908
0.000331135
-0.000787097
0.000425848
-0.00101337
0.000533078
-0.00126499
0.000650829
-0.00153726
0.000776165
-0.00182381
0.000905439
-0.00211717
0.00103468
-0.00240951
0.00116007
-0.00269352
0.00127828
-0.00296381
0.00138716
-0.00321541
-0.00344896
0.00148594
1.38195e-06
1.22272e-05
6.61621e-06
1.5141e-05
1.70038e-05
-3.52796e-06
3.39569e-05
-4.53586e-05
5.89754e-05
-0.00011207
9.35927e-05
-0.000205442
0.000139284
-0.000327176
0.000197329
-0.000478614
0.000268626
-0.000660378
0.000353482
-0.000871952
0.000451395
-0.00111128
0.000560905
-0.0013745
0.000679553
-0.0016559
0.000804019
-0.00194828
0.000930442
-0.00224359
0.00105487
-0.00253393
0.00117375
-0.0028124
0.00128426
-0.00307433
0.00138484
-0.00331599
-0.00353931
0.00147518
1.5795e-06
1.06477e-05
7.44273e-06
9.27781e-06
1.89358e-05
-1.5021e-05
3.75077e-05
-6.39305e-05
6.46779e-05
-0.00013924
0.000101969
-0.000242733
0.000150794
-0.000376001
0.000212299
-0.000540118
0.000287158
-0.000735237
0.000375351
-0.000960145
0.000475964
-0.0012119
0.000587079
-0.00148561
0.00070581
-0.00177463
0.00082853
-0.002071
0.000951274
-0.00236634
0.00107023
-0.00265289
0.00118221
-0.00292438
0.00128496
-0.00317707
0.00137749
-0.00340852
-0.00362176
0.00145994
1.78463e-06
8.86304e-06
8.29663e-06
2.76581e-06
2.09246e-05
-2.7649e-05
4.11489e-05
-8.41549e-05
7.04994e-05
-0.00016859
0.000110471
-0.000282704
0.00016239
-0.000427921
0.000227238
-0.000604966
0.000305426
-0.000813425
0.000396575
-0.00105129
0.00049934
-0.00131466
0.000611357
-0.00159763
0.000729363
-0.00189264
0.000849516
-0.00219115
0.000967859
-0.00248468
0.00108083
-0.00276585
0.00118569
-0.00302924
0.00128074
-0.00327213
0.00136559
-0.00349337
-0.00369691
0.00144073
1.99832e-06
6.86471e-06
9.18019e-06
-4.41606e-06
2.29725e-05
-4.14413e-05
4.48804e-05
-0.000106063
7.6432e-05
-0.000200142
0.000119076
-0.000325348
0.000174026
-0.000482871
0.000242065
-0.000673005
0.000323305
-0.000894665
0.000416982
-0.00114497
0.000521312
-0.00141899
0.000633513
-0.00170983
0.000750014
-0.00200914
0.000866854
-0.00230799
0.000980193
-0.00259802
0.00108681
-0.00287247
0.00118446
-0.0031269
0.00127203
-0.00335969
0.00134961
-0.00357095
-0.00376535
0.00141805
2.22137e-06
4.64334e-06
1.0095e-05
-1.22897e-05
2.50805e-05
-5.64268e-05
4.86992e-05
-0.000129682
8.24635e-05
-0.000233906
0.000127754
-0.000370639
0.000185646
-0.000540763
0.000256687
-0.000744045
0.000340661
-0.000978639
0.000436396
-0.00124071
0.000541678
-0.00152427
0.00065335
-0.0018215
0.000767609
-0.0021234
0.00088048
-0.00242087
0.000988339
-0.00270588
0.00108837
-0.0029725
0.00117887
-0.00321739
0.00125924
-0.00344007
0.00133004
-0.00364174
-0.00382769
0.00139237
2.45434e-06
2.189e-06
1.10419e-05
-2.08773e-05
2.72478e-05
-7.26327e-05
5.25991e-05
-0.000155033
8.85765e-05
-0.000269884
0.000136471
-0.000418533
0.000197186
-0.000601479
0.000271004
-0.000817863
0.000357353
-0.00106499
0.000454644
-0.001338
0.000560252
-0.00162988
0.0006707
-0.00193195
0.000782045
-0.00223474
0.000890391
-0.00252921
0.000992419
-0.00280791
0.00108577
-0.00306586
0.00116927
-0.00330089
0.00124281
-0.00351362
0.00130733
-0.00370626
-0.00388449
0.00136413
2.69752e-06
-5.08516e-07
1.20207e-05
-3.02005e-05
2.94715e-05
-9.00835e-05
5.65704e-05
-0.000182132
9.47487e-05
-0.000308062
0.000145182
-0.000468966
0.000208573
-0.00066487
0.000284909
-0.000894199
0.000373239
-0.00115332
0.000471559
-0.00143632
0.000576867
-0.00173519
0.000685435
-0.00204052
0.000793266
-0.00234257
0.00089664
-0.00263259
0.000992607
-0.00290387
0.0010793
-0.00315255
0.00115603
-0.00337762
0.00122317
-0.00358075
0.00128191
-0.003765
-0.0039363
0.00133371
2.95092e-06
-3.45944e-06
1.30302e-05
-4.02798e-05
3.17467e-05
-0.0001088
6.06002e-05
-0.000210985
0.000100953
-0.000348414
0.000153838
-0.000521852
0.00021973
-0.000730762
0.000298291
-0.000972759
0.00038818
-0.00124321
0.00048699
-0.00153513
0.000591386
-0.00183959
0.000697463
-0.0021466
0.000801266
-0.00244638
0.000899327
-0.00273065
0.000989116
-0.00299366
0.00106926
-0.00323269
0.00113954
-0.0034479
0.0012007
-0.00364191
0.00125416
-0.00381846
-0.0039836
0.00130147
3.21429e-06
-6.67373e-06
1.40685e-05
-5.1134e-05
3.40665e-05
-0.000128798
6.4672e-05
-0.000241591
0.000107156
-0.000390898
0.000162386
-0.000577082
0.000230573
-0.00079895
0.000311038
-0.00105322
0.000402042
-0.00133421
0.000500798
-0.00163388
0.000603696
-0.00194248
0.000706736
-0.00224964
0.000806084
-0.00254572
0.000898597
-0.00282316
0.000982191
-0.00307726
0.00105598
-0.00330648
0.00112016
-0.00351209
0.0011758
-0.00369754
0.00122446
-0.00386712
-0.00402686
0.00126771
3.48709e-06
-1.01608e-05
1.51323e-05
-6.27792e-05
3.6422e-05
-0.000150088
6.87666e-05
-0.000273935
0.000113323
-0.000435455
0.000170764
-0.000634523
0.000241017
-0.000869203
0.000323039
-0.00113524
0.000414699
-0.00142587
0.000512867
-0.00173205
0.000613719
-0.00204334
0.000713242
-0.00234916
0.000807801
-0.00264028
0.000894626
-0.00290999
0.000972096
-0.00315473
0.00103978
-0.00337416
0.00109825
-0.00357056
0.0011488
-0.00374809
0.0011931
-0.00391142
-0.00406647
0.0012327
3.76854e-06
-1.39294e-05
1.62178e-05
-7.52285e-05
3.88027e-05
-0.000172673
7.28615e-05
-0.000307994
0.000119415
-0.000482009
0.000178913
-0.000694021
0.000250976
-0.000941265
0.000334187
-0.00121846
0.000426041
-0.00151773
0.000523103
-0.00182911
0.000621408
-0.00214164
0.000717007
-0.00244476
0.000806531
-0.00272981
0.000887618
-0.00299107
0.000959105
-0.00322621
0.00102098
-0.00343603
0.00107412
-0.00362371
0.00112001
-0.00379398
0.00116036
-0.00395177
-0.00410277
0.00119666
4.05761e-06
-1.7987e-05
1.73204e-05
-8.84913e-05
4.11964e-05
-0.000196549
7.69325e-05
-0.00034373
0.000125388
-0.000530464
0.000186768
-0.000755401
0.000260363
-0.00101486
0.000344385
-0.00130248
0.00043597
-0.00160931
0.000531437
-0.00192458
0.000626748
-0.00223695
0.000718092
-0.0025361
0.000802419
-0.00281414
0.000877795
-0.00306645
0.000943497
-0.00329192
0.000999882
-0.00349241
0.0010481
-0.00367193
0.00108973
-0.00383561
0.00112649
-0.00398852
-0.00413608
0.00115979
4.35311e-06
-2.23401e-05
1.84346e-05
-0.000102573
4.35896e-05
-0.000221704
8.09533e-05
-0.000381094
0.0001312
-0.000580711
0.000194266
-0.000818466
0.000269099
-0.00108969
0.000353541
-0.00138692
0.000444408
-0.00170018
0.000537825
-0.002018
0.000629753
-0.00232888
0.000716585
-0.00262293
0.000795631
-0.00289318
0.000865387
-0.00313621
0.000925545
-0.00335207
0.000976785
-0.00354365
0.00102045
-0.0037156
0.0010582
-0.00387335
0.00109168
-0.004022
-0.00416664
0.00112224
4.6536e-06
-2.69937e-05
1.95544e-05
-0.000117473
4.59679e-05
-0.000248117
8.48963e-05
-0.000420022
0.000136806
-0.000632621
0.000201343
-0.000883003
0.000277106
-0.00116546
0.000361579
-0.00147139
0.000451294
-0.00178989
0.000542246
-0.00210895
0.000630465
-0.0024171
0.000712601
-0.00270507
0.000786349
-0.00296693
0.000850631
-0.00320049
0.000905514
-0.00340696
0.000951951
-0.00359009
0.000991432
-0.00375508
0.00102562
-0.00390755
0.00105612
-0.0040525
-0.00419467
0.00108415
4.95755e-06
-3.19512e-05
2.06733e-05
-0.000133189
4.83157e-05
-0.000275759
8.87332e-05
-0.00046044
0.000142162
-0.00068605
0.00020794
-0.000948781
0.000284315
-0.00124183
0.000368432
-0.00155551
0.000456587
-0.00187805
0.000544705
-0.00219707
0.00062895
-0.00250134
0.000706272
-0.00278239
0.000774766
-0.00303542
0.000833759
-0.00325948
0.000883655
-0.00345685
0.000925627
-0.00363206
0.000961257
-0.00379071
0.000992199
-0.00393849
0.00101996
-0.00408026
-0.00422034
0.00104563
5.26332e-06
2.17847e-05
5.06174e-05
9.24352e-05
-0.000502258
0.000147224
-0.000740838
0.000214001
-0.00101556
0.000290664
-0.00131849
0.000374049
-0.00163889
0.000460264
-0.00196426
0.00054523
-0.00228203
0.000625295
-0.00258141
0.000697746
-0.00285484
0.000761079
-0.00309876
0.000815
-0.0033134
0.000860204
-0.00350206
0.000898035
-0.00366989
0.000930125
-0.0038228
0.000958084
-0.00396645
0.000983306
-0.00410548
-0.00424382
0.00100678
9.59738e-05
0.000151949
0.000219473
-0.00108308
0.000296101
-0.00139512
0.000378394
-0.00172119
0.000462324
-0.00204819
0.000543865
-0.00236357
0.000619603
-0.00265715
0.00068718
-0.00292242
0.000745485
-0.00315706
0.00079457
-0.00336248
0.000835378
-0.00354286
0.000869375
-0.00370389
0.000898207
-0.00385163
0.000923414
-0.00399165
0.000946277
-0.00412834
-0.00426521
0.000967671
0.000224311
0.000300584
0.000381443
0.000462779
-0.00212953
0.000540676
-0.00244147
0.000611992
-0.00272846
0.000674737
-0.00298517
0.000728178
-0.0032105
0.000772677
-0.00340698
0.000809375
-0.00357956
0.000839825
-0.00373434
0.00086565
-0.00387746
0.000888307
-0.00401431
0.000908958
-0.00414899
-0.00428462
0.000928366
0.00046166
0.000535739
0.000602586
0.000660582
0.000709345
-0.00325927
0.00074951
-0.00344715
0.000782377
-0.00361243
0.00080954
-0.0037615
0.000832582
-0.0039005
0.00085286
-0.00403459
0.00087142
-0.00416755
-0.00430212
0.00088892
0.000689166
0.000725249
0.000754544
0.000778659
-0.00378562
0.000799112
-0.00392095
0.000817157
-0.00405263
0.000833725
-0.00418412
-0.00431777
0.000849378
0.000747299
0.000765333
0.000781267
0.000795924
-0.00433163
0.000809777
0.00077015
0.00455879
0.000673862
0.0006753
0.00404838
0.000686299
0.00417408
0.000695762
0.00429824
0.000704271
0.00442337
0.00455095
0.000712112
0.000613964
0.00338477
0.000646506
0.00358067
0.000671775
0.00374905
0.000691424
0.00389738
0.00070703
0.00403278
0.000719907
0.00416121
0.000731037
0.00428711
0.000741088
0.00441332
0.00454164
0.000750404
0.000468773
0.00250971
0.000532882
0.00282274
0.000587914
0.0030998
0.000633314
0.00333937
0.000669646
0.00354434
0.000698212
0.00372048
0.000720648
0.00387494
0.000738587
0.00401484
0.000753442
0.00414635
0.000766299
0.00427425
0.000777922
0.0044017
0.00453083
0.000788723
0.00024507
0.00137382
0.000321636
0.00173084
0.000399445
0.00208959
0.000474215
0.00243494
0.000542449
0.00275451
0.000601886
0.00304036
0.000651624
0.00328964
0.000691962
0.003504
0.000724047
0.0036884
0.00074947
0.00384952
0.000769904
0.00399441
0.000786853
0.0041294
0.000801512
0.00425959
0.000814749
0.00438846
0.00451853
0.000827051
0.000109965
0.00067677
0.000170974
0.000973042
0.000242182
0.00130261
0.000320011
0.00165301
0.000400166
0.00200944
0.00047828
0.00235683
0.000550602
0.00268218
0.000614516
0.00297645
0.000668755
0.0032354
0.000713319
0.00345943
0.000749159
0.00365256
0.00077779
0.00382089
0.000800903
0.00397129
0.000820085
0.00411022
0.000836637
0.00424304
0.000851541
0.00437356
0.00450471
0.000865367
6.43959e-06
5.09672e-05
2.6086e-05
0.000196072
5.95819e-05
0.000389178
0.000106972
0.00062938
0.000167338
0.000912675
0.000238573
0.00123138
0.000317384
0.0015742
0.000399629
0.00192719
0.000480904
0.00227555
0.00055724
0.00260585
0.000625676
0.00290801
0.000684565
0.00317651
0.00073357
0.00341043
0.000773414
0.00361271
0.000805494
0.00378881
0.000831493
0.00394529
0.000853067
0.00408864
0.000871626
0.00422448
0.000888265
0.00435692
0.00448932
0.000903648
6.1313e-06
4.48359e-05
2.50107e-05
0.000177192
5.74528e-05
0.000356736
0.000103741
0.000583092
0.000163268
0.000853148
0.000234269
0.00116037
0.000313767
0.0014947
0.000397818
0.00184314
0.000482035
0.00219134
0.00056227
0.00252561
0.000635238
0.00283504
0.000698902
0.00311284
0.000752561
0.00335677
0.000796663
0.00356861
0.000832451
0.00375302
0.000861569
0.00391617
0.000885722
0.00406449
0.00090642
0.00420378
0.00092488
0.00433846
0.00447234
0.000941865
5.81962e-06
3.90163e-05
2.39072e-05
0.000159105
5.52316e-05
0.000325412
0.000100297
0.000538027
0.000158793
0.000794653
0.000229301
0.00108987
0.000309181
0.00141482
0.000394729
0.00175759
0.000481629
0.00210443
0.000565606
0.00244163
0.000643076
0.00275757
0.000711613
0.00304431
0.000770125
0.00329826
0.000818745
0.00351999
0.000858517
0.00371325
0.000891011
0.00388368
0.000917955
0.00403755
0.000940952
0.00418079
0.000961339
0.00431807
0.00445369
0.000979986
5.50621e-06
3.35101e-05
2.27821e-05
0.000141829
5.29334e-05
0.000295261
9.66665e-05
0.000494293
0.00015395
0.000737369
0.00022371
0.00102011
0.000303657
0.00133487
0.000390369
0.00167088
0.000479658
0.00201515
0.000567174
0.00235412
0.000649071
0.00267568
0.000722543
0.00297083
0.000786088
0.00323471
0.000839484
0.00346659
0.00088353
0.0036692
0.00091968
0.00384753
0.000949657
0.00400757
0.000975139
0.0041553
0.000997584
0.00429563
0.00443331
0.00101797
5.19264e-06
2.83174e-05
2.1642e-05
0.000125379
5.05731e-05
0.00026633
9.28745e-05
0.000451992
0.000148777
0.000681466
0.000217539
0.000951345
0.000297236
0.00125517
0.000384761
0.00158336
0.000476108
0.0019238
0.000566912
0.00226331
0.000653113
0.00258948
0.00073154
0.00289241
0.000800271
0.00316598
0.000858691
0.00340817
0.000907312
0.00362058
0.00094742
0.00380742
0.000980702
0.00397429
0.00100889
0.00412712
0.00103354
0.00427097
0.00441108
0.00105577
4.88033e-06
2.34371e-05
2.04932e-05
0.000109767
4.81658e-05
0.000238657
8.89483e-05
0.000411209
0.000143313
0.000627102
0.000210839
0.000883819
0.000289969
0.00117604
0.000377941
0.00149538
0.000470981
0.00183076
0.000564775
0.00216952
0.000655102
0.00249915
0.000738455
0.00280905
0.000812489
0.00309195
0.000876168
0.00334449
0.000929666
0.00356709
0.000974056
0.00376303
0.00101094
0.0039374
0.00104208
0.00409598
0.00106914
0.00424391
0.00438689
0.00109332
4.57064e-06
1.88665e-05
1.93416e-05
9.49956e-05
4.57261e-05
0.000212272
8.49152e-05
0.00037202
0.0001376
0.000574417
0.000203665
0.000817754
0.000281917
0.00109779
0.000369959
0.00140734
0.000464301
0.00173642
0.000560739
0.00207308
0.000654955
0.00240493
0.00074315
0.00272086
0.000822559
0.00301254
0.000891707
0.00327535
0.000950382
0.00350841
0.000999392
0.00371402
0.00104021
0.00389659
0.00107458
0.00406161
0.00110426
0.00421423
0.00436059
0.00113056
4.26478e-06
1.46017e-05
1.81931e-05
8.10673e-05
4.32682e-05
0.000187197
8.08021e-05
0.000334487
0.000131682
0.000523536
0.000196076
0.00075336
0.000273147
0.00102072
0.000360879
0.00131961
0.000456106
0.00164119
0.0005548
0.00197439
0.00065261
0.00230712
0.000745498
0.00262797
0.000830303
0.00292773
0.000905093
0.00320056
0.000969233
0.00344427
0.00102321
0.00366004
0.00106832
0.00385148
0.00110624
0.00402369
0.0011388
0.00418167
0.00433199
0.0011674
3.96389e-06
1.06378e-05
1.70529e-05
6.79782e-05
4.0806e-05
0.000163444
7.6636e-05
0.000298657
0.000125603
0.00047457
0.000188134
0.00069083
0.000263736
0.000945118
0.00035078
0.00123257
0.000446456
0.00154552
0.000546975
0.00187387
0.000648027
0.00220607
0.000745392
0.0025306
0.000835551
0.00283758
0.000916112
0.00312
0.000985982
0.0033744
0.00104528
0.00360075
0.00109504
0.00380172
0.00113687
0.00398186
0.0011726
0.00414594
0.00430086
0.00120373
3.669e-06
6.96879e-06
1.59264e-05
5.57208e-05
3.8353e-05
0.000141018
7.24435e-05
0.000264566
0.000119406
0.000427607
0.000179903
0.000630333
0.000253766
0.000871256
0.000339751
0.00114658
0.000435431
0.00144983
0.00053731
0.00177199
0.000641191
0.00210219
0.000742748
0.00242905
0.000838147
0.00274218
0.000924549
0.00303359
0.00100038
0.00329857
0.00106534
0.00353579
0.00112016
0.0037469
0.00116627
0.00393574
0.00120552
0.0041067
0.00426695
0.00123942
3.38109e-06
3.58771e-06
1.48184e-05
4.42835e-05
3.59221e-05
0.000119914
6.82507e-05
0.000232237
0.000113137
0.000382721
0.000171451
0.000572019
0.000243325
0.000799381
0.000327894
0.00106201
0.00042313
0.0013546
0.000525875
0.00166924
0.00063212
0.00199595
0.00073751
0.00232366
0.000837957
0.00264173
0.000930203
0.00294135
0.00101218
0.00321659
0.00108312
0.00346486
0.00114339
0.00368662
0.00119421
0.00388492
0.00123733
0.00406357
0.00422995
0.00127434
3.10111e-06
4.86601e-07
1.37338e-05
3.36508e-05
3.35262e-05
0.000100122
6.40834e-05
0.00020168
0.000106839
0.000339965
0.000162845
0.000516014
0.000232506
0.000729719
0.00031532
0.000979197
0.000409667
0.00126025
0.000512765
0.00156615
0.000620862
0.00188785
0.000729653
0.00221487
0.000834872
0.00253651
0.000932884
0.00284334
0.00102113
0.00312834
0.00109834
0.00338765
0.00116446
0.0036205
0.00122041
0.00382897
0.00126784
0.00401615
0.0041895
0.00130829
2.83002e-06
-2.34341e-06
1.26775e-05
2.38033e-05
3.1178e-05
8.16212e-05
5.99673e-05
0.000172891
0.000100558
0.000299374
0.000154154
0.000462418
0.000221406
0.000662467
0.000302151
0.000898452
0.000395175
0.00116723
0.000498104
0.00146322
0.000607498
0.00177845
0.00071919
0.00210317
0.000828819
0.00242688
0.00093243
0.00273973
0.00102699
0.00303378
0.00111071
0.00330394
0.00118306
0.00354815
0.0012446
0.00376743
0.00129677
0.00396397
0.0041452
0.00134107
2.56883e-06
-4.91225e-06
1.16544e-05
1.47177e-05
2.88901e-05
6.43855e-05
5.59279e-05
0.000145853
9.43378e-05
0.000260964
0.000145447
0.000411309
0.000210124
0.00059779
0.000288515
0.00082006
0.000379803
0.00107594
0.000482037
0.00136098
0.000592145
0.00166835
0.000706176
0.00198914
0.000819762
0.0023133
0.000928706
0.00263078
0.00102954
0.00293294
0.00111995
0.00321354
0.00119887
0.00346923
0.00126644
0.00369985
0.00132384
0.00390657
0.00409659
0.00137245
2.31868e-06
-7.23093e-06
1.06696e-05
6.36679e-06
2.66756e-05
4.83795e-05
5.19909e-05
0.000120538
8.82225e-05
0.000224733
0.000136796
0.000362736
0.00019876
0.000535826
0.000274547
0.000744274
0.000363712
0.000986775
0.000464736
0.00125996
0.000574955
0.00155813
0.000690707
0.00187339
0.000807713
0.00219629
0.00092162
0.00251687
0.00102859
0.00282597
0.00112577
0.00311636
0.00121157
0.00338343
0.00128561
0.00362581
0.00134874
0.00384345
0.00404318
0.00140215
2.08078e-06
-9.3117e-06
9.72848e-06
-1.28092e-06
2.45475e-05
3.35605e-05
4.81818e-05
9.69035e-05
8.22566e-05
0.000190658
0.000128268
0.000316724
0.000187417
0.000476677
0.000260384
0.000671308
0.000347074
0.000900085
0.000446392
0.00116064
0.00055611
0.00144841
0.000672924
0.00175658
0.000792734
0.00207648
0.000911128
0.00239848
0.00102397
0.00271313
0.00112792
0.00301241
0.00122082
0.00329053
0.00130175
0.00354488
0.0013711
0.00377409
0.00398443
0.00142986
1.8565e-06
-1.11682e-05
8.83669e-06
-8.26111e-06
2.25194e-05
1.98778e-05
4.45267e-05
7.48962e-05
7.64844e-05
0.0001587
0.000119936
0.000273272
0.000176199
0.000420414
0.000246168
0.000601338
0.000330069
0.000816184
0.000427214
0.0010635
0.000535827
0.0013398
0.000653012
0.00163939
0.000774939
0.00195455
0.000897241
0.00227618
0.00101557
0.0025948
0.00112617
0.00290181
0.00122632
0.00319039
0.00131448
0.00345672
0.00139057
0.003698
0.00391976
0.00145524
1.64734e-06
-1.28155e-05
8.0001e-06
-1.46139e-05
2.06048e-05
7.27307e-06
4.10512e-05
5.44499e-05
7.09496e-05
0.000128802
0.000111866
0.000232356
0.000165207
0.000367073
0.000232044
0.000534502
0.000312885
0.000735343
0.000407428
0.000968953
0.000514349
0.00123288
0.000631201
0.00152254
0.0007545
0.00183125
0.000880032
0.00215064
0.00100335
0.00247148
0.00112034
0.00278481
0.00122776
0.00308297
0.00132344
0.00336104
0.00140674
0.00361471
0.00384857
0.00147793
1.4549e-06
-1.42704e-05
7.22471e-06
-2.03837e-05
1.88174e-05
-4.31965e-06
3.77808e-05
3.54865e-05
6.5695e-05
0.000100888
0.000104128
0.000193923
0.000154544
0.000316657
0.000218154
0.000470891
0.000295712
0.000657785
0.000387269