/*--------------------------------*- C++ -*----------------------------------*\
  =========                 |
  \\      /  F ield         | OpenFOAM: The Open Source CFD Toolbox
   \\    /   O peration     | Website:  https://openfoam.org
    \\  /    A nd           | Version:  7
     \\/     M anipulation  |
\*---------------------------------------------------------------------------*/
FoamFile
{
    version     2.0;
    format      ascii;
    class       volVectorField;
    location    "140";
    object      U;
}
// * * * * * * * * * * * * * * * * * * * * * * * * * * * * * * * * * * * * * //

dimensions      [0 1 -1 0 0 0 0];

internalField   nonuniform List<vector> 
4575
(
(-0.000119079 -0.0281871 -1.06506e-21)
(-0.00200274 -0.0693304 -5.56346e-21)
(-0.00652152 -0.0983708 6.82996e-22)
(0.00038224 -0.0273476 -5.13057e-21)
(-0.000855475 -0.0671221 4.20001e-21)
(-0.00504591 -0.0950548 -4.83516e-21)
(0.000852177 -0.0264563 -3.9345e-20)
(0.000221989 -0.0648016 4.99943e-21)
(-0.0036507 -0.0915996 7.61654e-21)
(0.00128843 -0.0255208 6.40245e-20)
(0.00122429 -0.0623869 -2.76461e-20)
(-0.00234366 -0.0880298 -1.91817e-20)
(0.00168916 -0.0245487 -8.62719e-21)
(0.00214692 -0.0598956 1.08616e-19)
(-0.00113161 -0.0843697 5.00836e-20)
(0.00205294 -0.0235472 -4.06936e-20)
(0.00298617 -0.0573445 2.47036e-20)
(-2.08128e-05 -0.0806419 -4.13418e-20)
(0.00237872 -0.022523 4.90383e-20)
(0.00373906 -0.0547493 -6.03022e-20)
(0.000983367 -0.0768681 -9.06825e-20)
(0.00266586 -0.0214822 7.85004e-21)
(0.00440337 -0.0521245 -2.85395e-20)
(0.00187621 -0.0730679 8.14262e-20)
(0.00291398 -0.0204305 -2.253e-20)
(0.00497747 -0.0494828 1.56923e-19)
(0.00265367 -0.0692593 -3.46607e-20)
(-0.00261802 -0.0810608 -4.12652e-20)
(0.00312296 -0.0193727 -6.85656e-20)
(0.00546022 -0.046836 8.93575e-20)
(0.00331185 -0.0654572 5.02125e-20)
(-0.00184718 -0.0764553 2.25678e-20)
(0.00329278 -0.0183131 1.23088e-19)
(0.00585051 -0.0441934 -6.98699e-20)
(0.00384753 -0.0616757 2.21026e-20)
(-0.00121247 -0.0718935 8.60382e-20)
(0.00342348 -0.0172551 1.01021e-19)
(0.00614756 -0.0415633 -1.2529e-19)
(0.00425723 -0.0579252 -1.30148e-19)
(-0.000719925 -0.0673892 -6.16928e-20)
(0.00351511 -0.0162013 -1.26433e-19)
(0.00635056 -0.0389519 -1.17246e-19)
(0.00453815 -0.0542149 4.87038e-20)
(-0.000375304 -0.0629523 1.20274e-19)
(0.00356771 -0.0151537 5.16651e-20)
(0.00645881 -0.036364 7.92221e-20)
(0.00468756 -0.0505515 9.33589e-20)
(-0.000183643 -0.0585912 -1.5814e-19)
(0.00358126 -0.0141134 -3.01929e-20)
(0.00647164 -0.0338028 3.67383e-20)
(0.00470313 -0.0469395 -7.81723e-20)
(-0.000149232 -0.0543117 -1.14641e-19)
(0.00355566 -0.0130812 1.07302e-19)
(0.00638845 -0.0312702 -1.07768e-19)
(0.004583 -0.0433822 8.75917e-20)
(-0.000275518 -0.0501174 1.38255e-19)
(0.00349072 -0.0120571 -4.77506e-20)
(0.00620868 -0.0287671 -3.15071e-20)
(0.0043258 -0.0398808 8.91749e-20)
(-0.000564694 -0.0460105 -1.22418e-19)
(-0.00756967 -0.0480147 -6.85103e-20)
(0.00338617 -0.0110412 -1.07612e-19)
(0.00593184 -0.0262935 1.5038e-19)
(0.00393084 -0.0364358 2.40727e-21)
(-0.00101794 -0.0419904 -1.02157e-21)
(-0.00801284 -0.0437402 1.5216e-19)
(0.00324166 -0.0100332 3.40684e-20)
(0.00555757 -0.0238492 -1.06624e-19)
(0.00339796 -0.0330464 1.01619e-19)
(-0.0016346 -0.0380567 -1.49969e-19)
(-0.00863345 -0.0395851 1.83172e-19)
(0.0030568 -0.00903263 1.30262e-20)
(0.0050857 -0.0214336 -5.48678e-20)
(0.00272803 -0.0297118 1.75529e-19)
(-0.00241263 -0.034207 -2.24538e-19)
(-0.00942733 -0.0355467 -1.85889e-19)
(0.00283126 -0.00803934 -9.12028e-20)
(0.00451652 -0.0190463 -1.62353e-19)
(0.00192295 -0.026431 -9.43636e-20)
(-0.00334756 -0.0304393 1.23261e-19)
(-0.0103872 -0.0316207 -7.11713e-21)
(-0.0183895 -0.0305381 2.35914e-20)
(0.0025648 -0.00705331 8.28545e-20)
(0.00385089 -0.0166873 2.11044e-19)
(0.000986105 -0.0232032 -1.58781e-19)
(-0.00443265 -0.0267516 -7.56329e-20)
(-0.0115022 -0.0278024 6.3188e-20)
(-0.0194202 -0.0268465 -1.51031e-19)
(0.0022574 -0.00607492 -9.04202e-20)
(0.00309048 -0.0143573 -1.14207e-20)
(-7.74839e-05 -0.0200287 2.24049e-19)
(-0.00565854 -0.0231421 2.1913e-19)
(-0.0127577 -0.0240881 -4.40823e-20)
(-0.0205801 -0.0232842 -2.803e-20)
(0.00190934 -0.00510507 5.70898e-20)
(0.00223791 -0.0120583 1.15942e-19)
(-0.00126099 -0.0169087 -8.11395e-20)
(-0.00701302 -0.0196103 -1.00086e-19)
(-0.0141351 -0.0204738 -1.01099e-19)
(-0.0218431 -0.0198438 -2.75092e-20)
(0.00152134 -0.00414524 -7.85458e-20)
(0.00129702 -0.00979315 -2.53288e-19)
(-0.00255553 -0.0138456 7.88987e-20)
(-0.00848099 -0.0161569 4.15563e-21)
(-0.015612 -0.0169572 3.32053e-19)
(-0.0231783 -0.0165186 -1.95316e-19)
(-0.0305004 -0.0151278 -1.65562e-19)
(0.0010946 -0.00319761 -7.42252e-20)
(0.000272972 -0.00756626 2.96601e-19)
(-0.00395001 -0.0108439 -2.25081e-19)
(-0.0100442 -0.0127844 -4.56772e-20)
(-0.0171616 -0.0135375 -7.58274e-20)
(-0.0245491 -0.0133028 -1.93369e-19)
(-0.03154 -0.0123042 1.91324e-19)
(0.000630959 -0.00226505 1.04438e-19)
(-0.000827511 -0.00538355 -1.30503e-19)
(-0.005431 -0.00790948 -1.60022e-19)
(-0.0116812 -0.00949695 -1.50459e-19)
(-0.0187536 -0.0102155 4.97365e-20)
(-0.0259144 -0.0101931 2.87847e-20)
(-0.032512 -0.0095902 6.7554e-20)
(0.000132921 -0.00135117 -2.20557e-19)
(-0.00199608 -0.00325242 1.72541e-19)
(-0.0069827 -0.0050505 1.93781e-19)
(-0.0133678 -0.00630124 -1.10558e-19)
(-0.0203534 -0.00699458 1.87266e-19)
(-0.0272283 -0.0071877 1.79392e-19)
(-0.0333571 -0.00697927 -3.25029e-20)
(-0.0382017 -0.00650359 -1.76366e-19)
(-0.000396241 -0.000460242 -1.72552e-19)
(-0.00322267 -0.00118176 -1.58699e-19)
(-0.00858693 -0.00227692 1.24135e-19)
(-0.0150765 -0.00320603 7.17501e-20)
(-0.0219237 -0.0038806 2.81842e-20)
(-0.0284413 -0.00428818 -5.18803e-20)
(-0.0340117 -0.00446623 -3.69223e-20)
(-0.038107 -0.00449768 8.2236e-20)
(-0.000952479 0.000402844 8.36702e-20)
(-0.00449548 0.000818178 1.6348e-19)
(-0.0102233 0.000399408 -2.91384e-19)
(-0.0167776 -0.000222357 -2.20887e-19)
(-0.0234238 -0.000881964 1.10055e-19)
(-0.0295007 -0.00149873 1.03681e-19)
(-0.0344088 -0.00205059 -2.11607e-19)
(-0.0376302 -0.00256857 -1.8639e-20)
(-0.00153096 0.00123273 3.98456e-19)
(-0.00580103 0.002736 -2.747e-19)
(-0.0118691 0.00296493 6.70902e-20)
(-0.0184387 0.00263654 2.13979e-19)
(-0.0248108 0.00199028 -2.2849e-19)
(-0.0303512 0.00117318 1.14336e-20)
(-0.0344791 0.000265527 1.68871e-19)
(-0.0366854 -0.000713483 3.06187e-19)
(-0.0365201 -0.00178138 3.04209e-19)
(-0.0021261 0.0020237 -3.77054e-19)
(-0.00712424 0.00455945 2.73101e-19)
(-0.0135001 0.00540469 6.62399e-20)
(-0.0200259 0.00535548 -2.11047e-19)
(-0.02604 0.00472257 8.80564e-20)
(-0.0309363 0.00371703 -4.1935e-20)
(-0.0341521 0.00247555 -3.21358e-20)
(-0.0351864 0.00106689 -2.58064e-19)
(-0.0335878 -0.000484062 -4.01078e-19)
(-0.00273162 0.00276989 3.00937e-19)
(-0.00844862 0.00627571 -7.65701e-20)
(-0.0150902 0.00770268 2.58784e-19)
(-0.0215033 0.00791766 6.22522e-20)
(-0.0270655 0.00729909 -1.35468e-19)
(-0.0311986 0.00611935 2.18687e-20)
(-0.0333576 0.00456956 -2.82104e-19)
(-0.0330481 0.0027665 1.26572e-19)
(-0.0298158 0.000777596 6.6879e-20)
(-0.0232388 -0.00136083 9.68645e-21)
(-0.00334066 0.00346546 -7.70716e-20)
(-0.00975648 0.00787179 -8.20282e-20)
(-0.0166119 0.00984223 -1.61952e-19)
(-0.0228344 0.0103051 1.17044e-19)
(-0.0278407 0.00970216 2.1104e-19)
(-0.0310808 0.00836412 -2.69363e-19)
(-0.0320264 0.00653415 4.25359e-19)
(-0.0301883 0.00437563 -8.1958e-20)
(-0.0251072 0.00199759 1.1609e-20)
(-0.0163487 -0.000526778 -2.74991e-19)
(-0.00394587 0.00410479 2.33815e-20)
(-0.0110292 0.00933497 7.9787e-20)
(-0.0180372 0.0118066 9.4724e-20)
(-0.0239816 0.012499 -7.89715e-20)
(-0.028319 0.0119128 1.94959e-19)
(-0.0305266 0.0104332 2.5846e-19)
(-0.0300915 0.00835311 3.86433e-21)
(-0.0265284 0.00588064 -3.24784e-19)
(-0.0193719 0.00316534 -2.55833e-19)
(-0.00817386 0.000317561 2.64013e-19)
(-0.0045396 0.00468269 -1.4204e-19)
(-0.0122474 0.0106531 1.35268e-19)
(-0.019337 0.0135793 -9.92995e-20)
(-0.0249076 0.0144805 -4.86981e-20)
(-0.0284543 0.0139112 -1.31625e-19)
(-0.0294807 0.0123072 -9.87192e-20)
(-0.0274885 0.0100081 -1.74106e-19)
(-0.0219947 0.00726505 2.84115e-19)
(-0.0125271 0.00426686 1.11138e-19)
(0.00137636 0.00116008 -2.68486e-19)
(0.0201626 -0.00193488 -3.20076e-19)
(-0.00511402 0.00519456 -1.46909e-20)
(-0.0133916 0.0118152 -3.34055e-19)
(-0.0204825 0.0151449 8.04396e-20)
(-0.0255748 0.0162315 1.77794e-19)
(-0.0282011 0.0156776 -3.24013e-20)
(-0.02789 0.0139661 -2.10484e-19)
(-0.0241563 0.0114798 2.2901e-19)
(-0.0165188 0.0085107 2.58807e-19)
(-0.00449793 0.00528562 9.78412e-20)
(0.0123804 0.00198644 4.77202e-19)
(0.0345763 -0.0012331 -2.17598e-19)
(-0.0056613 0.00563658 -8.20671e-20)
(-0.0144419 0.0128117 -2.93408e-20)
(-0.0214447 0.0164894 -2.67046e-19)
(-0.0259463 0.0177348 1.61905e-19)
(-0.0275151 0.0171933 -1.63502e-19)
(-0.0257031 0.0153901 -1.64155e-19)
(-0.0200371 0.0127486 -1.48243e-20)
(-0.0100373 0.00959906 -2.61247e-19)
(0.00478214 0.00620451 -4.07781e-19)
(0.0249051 0.00278093 1.09677e-19)
(0.0507992 -0.000485319 1.20925e-19)
(0.0828937 -0.00342356 -4.99045e-20)
(-0.00617376 0.00600582 2.56857e-19)
(-0.0153789 0.0136345 -4.03531e-20)
(-0.0221949 0.0176007 2.3547e-19)
(-0.0259857 0.0189753 -2.39113e-19)
(-0.0263531 0.0184409 3.49338e-19)
(-0.0228705 0.0165613 2.89115e-19)
(-0.0150764 0.0137964 -2.34626e-19)
(-0.00249225 0.0105127 -4.3087e-19)
(0.0153722 0.00700746 7.04373e-19)
(0.0390061 0.0035293 1.7081e-19)
(0.0688771 0.000295528 -1.31011e-19)
(0.105401 -0.00249335 -1.26521e-19)
(-0.006644 0.00630032 -4.10237e-19)
(-0.0161835 0.014278 2.69127e-19)
(-0.0227051 0.0184693 -3.96999e-19)
(-0.0256576 0.0199404 -2.1406e-19)
(-0.024673 0.019406 7.88755e-20)
(-0.0193449 0.0174638 -3.12135e-19)
(-0.00922256 0.0146074 4.83282e-19)
(0.00617013 0.0112367 8.33481e-21)
(0.0273246 0.00768131 -2.61616e-19)
(0.0547291 0.00422048 -2.25179e-19)
(0.0888412 0.00110056 -3.951e-19)
(0.13005 -0.00145082 -4.77547e-21)
(0.178624 -0.00321335 -5.36064e-20)
(-0.00706504 0.00651916 1.45725e-19)
(-0.0168374 0.0147384 -2.68784e-19)
(-0.0229482 0.0190883 3.42475e-19)
(-0.024927 0.0206206 4.7679e-19)
(-0.0224337 0.0200772 -1.53502e-19)
(-0.0150801 0.0180856 1.98373e-20)
(-0.00242626 0.0151699 -4.07323e-19)
(0.0159996 0.0117606 -9.99911e-20)
(0.0406856 0.00821766 -3.06989e-19)
(0.0721108 0.00484894 3.94216e-19)
(0.11071 0.00192728 3.5889e-19)
(0.156827 -0.000296189 -6.2653e-20)
(0.210652 -0.00158183 -4.57978e-20)
(-0.00743039 0.00666244 3.84098e-20)
(-0.0173229 0.0150144 5.4403e-20)
(-0.0228973 0.019454 -1.79178e-19)
(-0.02376 0.0210102 -4.9101e-19)
(-0.019595 0.0204474 7.88453e-20)
(-0.0100314 0.0184193 2.35999e-19)
(0.00535992 0.0154771 1.06521e-19)
(0.0270432 0.0120796 4.51096e-19)
(0.0554968 0.00861465 -2.79339e-19)
(0.0911807 0.00541654 -3.57811e-19)
(0.134491 0.00278165 -6.47131e-20)
(0.185703 0.000980208 1.56767e-19)
(0.244903 0.00026412 3.35099e-20)
(0.311908 0.000872406 1.37389e-20)
(-0.00773399 0.0067312 -1.89996e-19)
(-0.0176231 0.0151069 1.26048e-20)
(-0.0225269 0.0195662 -3.51514e-20)
(-0.022123 0.0211077 4.25681e-19)
(-0.0161173 0.0205144 1.3322e-19)
(-0.00415432 0.0184631 -4.32027e-20)
(0.0141822 0.0155286 1.6338e-19)
(0.0393453 0.012196 1.42743e-19)
(0.071796 0.00887849 3.40514e-19)
(0.111962 0.00593422 4.09181e-20)
(0.160181 0.00367973 -3.98019e-19)
(0.216636 0.00239918 2.25747e-20)
(0.281274 0.00234874 -3.12631e-19)
(0.353723 0.00375691 -2.64932e-20)
(0.433227 0.00683013 -1.44132e-19)
(-0.00797035 0.00672738 3.11184e-19)
(-0.0177217 0.015019 2.24197e-19)
(-0.0218118 0.0194281 1.765e-19)
(-0.0199831 0.020916 -2.42908e-19)
(-0.0119608 0.0202815 1.63754e-19)
(0.00259495 0.0182212 -1.54965e-19)
(0.0240863 0.0153314 -2.42794e-19)
(0.0529492 0.0121204 -3.37121e-19)
(0.0896173 0.00902452 -1.46619e-19)
(0.13447 0.00642296 2.84697e-19)
(0.187767 0.00464834 2.48865e-19)
(0.249567 0.00399278 3.58382e-19)
(0.319642 0.00470791 3.14289e-19)
(0.397388 0.00699907 -9.41885e-20)
(0.481767 0.0110245 -1.27309e-19)
(-0.00813459 0.00665367 -1.90085e-19)
(-0.0176035 0.0147564 -5.12235e-19)
(-0.0207271 0.0190463 -2.0901e-19)
(-0.0173072 0.0204424 2.23152e-19)
(-0.00708621 0.0197574 6.43507e-20)
(0.0102605 0.017705 1.05903e-19)
(0.0351173 0.0149002 2.78483e-19)
(0.0678965 0.0118722 -2.77363e-19)
(0.108992 0.00907803 3.81045e-19)
(0.158716 0.00691431 -3.90604e-20)
(0.217225 0.00572509 -5.51458e-19)
(0.28442 0.00580351 -1.03001e-19)
(0.35986 0.00738687 -3.495e-19)
(0.442666 0.0106445 -2.3656e-19)
(0.531479 0.0156715 2.53038e-19)
(0.624398 0.0223983 2.01757e-19)
(-0.00822206 0.00651365 2.53183e-19)
(-0.017254 0.0143267 3.99747e-19)
(-0.0192482 0.0184303 -2.18235e-20)
(-0.0140624 0.0196991 -1.84671e-19)
(-0.00145351 0.0189573 -2.04593e-19)
(0.0188865 0.0169331 4.3941e-20)
(0.0473203 0.0142582 -3.29705e-19)
(0.0842271 0.0114805 3.12685e-19)
(0.129947 0.00907441 -1.22035e-19)
(0.184704 0.00745026 -2.65111e-19)
(0.248519 0.00695765 3.29279e-19)
(0.321104 0.00788258 -8.04802e-20)
(0.401761 0.010437 -1.44279e-19)
(0.489298 0.0147411 2.62941e-19)
(0.582001 0.0208131 -3.98971e-19)
(0.677612 0.028475 1.50347e-21)
(0.773732 0.0377426 1.4739e-20)
(-0.00822836 0.0063112 -2.82224e-19)
(-0.0166586 0.0137387 -1.11703e-19)
(-0.0173512 0.0175935 2.01129e-19)
(-0.0102156 0.0187032 1.6697e-19)
(0.00497744 0.017902 1.89864e-19)
(0.0285176 0.0159313 -1.09545e-19)
(0.0607396 0.0134372 -9.5044e-20)
(0.101979 0.0109835 -4.06651e-20)
(0.152504 0.0090589 -4.33321e-19)
(0.212426 0.00808241 8.04253e-19)
(0.281599 0.00840217 8.44683e-21)
(0.359505 0.0102873 1.01231e-19)
(0.44515 0.0139122 9.76192e-20)
(0.536996 0.0193341 1.96651e-19)
(0.632951 0.0264821 3.37549e-19)
(0.730413 0.0350674 1.91492e-19)
(0.826665 0.0449559 2.02127e-19)
(-0.00814932 0.00605064 7.10721e-20)
(-0.0158029 0.0130031 -5.97895e-20)
(-0.0150117 0.0165519 1.50768e-19)
(-0.00573342 0.0174758 -2.28244e-19)
(0.0122471 0.0166183 -2.8204e-20)
(0.0391978 0.0147326 1.04932e-19)
(0.0754181 0.012477 1.26276e-19)
(0.121186 0.0104284 -1.09342e-19)
(0.176678 0.00908578 3.15959e-19)
(0.241864 0.00887062 -3.2726e-19)
(0.316396 0.0101211 1.51923e-19)
(0.399485 0.0130782 -2.88524e-19)
(0.489807 0.0178648 2.91962e-19)
(0.585446 0.0244614 2.44858e-19)
(0.683935 0.0326971 -4.46379e-19)
(0.782352 0.0421728 -4.04192e-19)
(0.877739 0.0526134 -1.44699e-19)
(0.966707 0.0623319 -1.24792e-19)
(-0.00798081 0.00573651 4.4806e-19)
(-0.0146727 0.0121319 -2.58416e-19)
(-0.0122054 0.0153243 -3.66866e-19)
(-0.00058234 0.0160424 -1.53501e-19)
(0.0203958 0.0151387 -2.38154e-19)
(0.0509706 0.0133769 -2.80769e-20)
(0.0913965 0.0114253 4.20797e-19)
(0.141878 0.00987066 2.13599e-19)
(0.202474 0.00921698 3.35667e-19)
(0.272985 0.00988105 9.27106e-20)
(0.35282 0.0121807 2.57066e-19)
(0.440882 0.0163153 -2.95368e-19)
(0.535482 0.0223419 1.22773e-19)
(0.634312 0.0301501 -1.9985e-19)
(0.734546 0.0394607 2.22747e-19)
(0.832995 0.0497676 4.83326e-19)
(0.926556 0.0606699 -4.04459e-20)
(1.012 0.0705856 3.00985e-19)
(1.08848 0.081892 -1.06849e-19)
(-0.00771852 0.00537352 -2.33069e-19)
(-0.0132534 0.011138 2.26153e-21)
(-0.00890743 0.0139318 1.85154e-19)
(0.00527141 0.0144321 3.72106e-20)
(0.0294637 0.0135007 4.56076e-19)
(0.063878 0.0119101 -5.95152e-20)
(0.108711 0.0103365 -3.59291e-19)
(0.164076 0.0093723 -2.67637e-19)
(0.229887 0.00952042 -3.87152e-19)
(0.305737 0.0111838 -3.8182e-19)
(0.390757 0.0146477 -4.53213e-19)
(0.483505 0.0200553 4.92059e-19)
(0.581898 0.0273818 2.17005e-19)
(0.683241 0.036414 -3.00837e-20)
(0.78438 0.0467584 -5.95037e-20)
(0.881935 0.0578093 7.32717e-20)
(0.97277 0.0690611 2.06284e-19)
(1.05392 0.0790544 1.2107e-19)
(1.12456 0.0897025 9.6314e-20)
(1.17844 0.0922194 2.95144e-20)
(-0.00735793 0.00496642 -8.18136e-20)
(-0.0115303 0.0100353 4.75411e-20)
(-0.00509272 0.0123974 6.83269e-20)
(0.0118614 0.0126774 1.78527e-19)
(0.0394898 0.0117459 -1.37337e-19)
(0.077959 0.0103835 3.48796e-20)
(0.127394 0.00927069 3.69297e-19)
(0.187792 0.00900081 4.08314e-20)
(0.258895 0.0100679 -1.80324e-21)
(0.340049 0.0128503 5.27042e-20)
(0.430069 0.0175865 2.68181e-19)
(0.527133 0.0243475 -3.76736e-19)
(0.628755 0.0330115 -4.08603e-19)
(0.731867 0.0432517 -2.22121e-19)
(0.833042 0.0545593 -2.71631e-19)
(0.928802 0.0662405 -3.23245e-19)
(1.0161 0.077711 -4.42648e-20)
(1.09232 0.0876452 -2.04097e-19)
(1.15684 0.0975883 4.48818e-19)
(1.20522 0.100127 -2.29702e-19)
(-0.00689416 0.00451996 4.19935e-19)
(-0.0094879 0.00883832 -1.02852e-19)
(-0.000736028 0.0107459 -1.4777e-19)
(0.0192209 0.0108135 7.50619e-20)
(0.0505111 0.00992033 3.66441e-20)
(0.0932486 0.00885284 -1.06241e-19)
(0.147468 0.00829246 -3.117e-20)
(0.213026 0.00882721 -6.31217e-20)
(0.289457 0.010933 1.87636e-19)
(0.375824 0.0149506 4.59671e-19)
(0.470587 0.0210562 1.46311e-19)
(0.57152 0.0292318 4.37289e-19)
(0.675734 0.0392444 1.79379e-19)
(0.779822 0.0506464 2.48861e-19)
(0.880161 0.062818 2.84179e-19)
(0.973277 0.0749931 -2.87741e-20)
(1.05632 0.0865384 -7.31381e-20)
(1.12714 0.09627 -7.04422e-23)
(1.18541 0.105457 5.11086e-20)
(1.22824 0.107883 1.20952e-19)
(-0.0063219 0.00403886 -1.89213e-19)
(-0.00711047 0.007562 2.81281e-20)
(0.00418793 0.00900364 -2.05469e-19)
(0.0273818 0.00887812 -2.87239e-19)
(0.0625622 0.00807262 -1.22272e-19)
(0.109776 0.00737717 -1.30109e-20)
(0.168948 0.00746936 1.63461e-19)
(0.239764 0.00892426 -1.31989e-19)
(0.321515 0.0121885 2.6549e-20)
(0.412942 0.0175507 -2.95804e-20)
(0.512118 0.0251079 -3.82409e-19)
(0.616398 0.0347362 -5.94832e-19)
(0.722504 0.0460794 -8.96818e-20)
(0.826747 0.0585669 -1.97092e-19)
(0.925398 0.0714773 -1.87194e-19)
(1.0151 0.083993 -3.32363e-20)
(1.09331 0.0954625 -1.20534e-19)
(1.15839 0.104851 -7.43894e-20)
(1.21041 0.113231 -2.21061e-19)
(1.24778 0.115417 -4.20653e-21)
(-0.00563538 0.00352785 -1.84629e-19)
(-0.00438169 0.00622186 3.95554e-19)
(0.00970422 0.00719797 2.44377e-19)
(0.0363749 0.00691076 1.08123e-19)
(0.0756737 0.00625394 -3.86189e-20)
(0.127565 0.00601793 -2.50566e-19)
(0.191837 0.00687052 -1.64393e-19)
(0.267974 0.00936457 -8.00923e-20)
(0.354986 0.0139045 -1.17964e-19)
(0.451256 0.0207104 -4.20323e-19)
(0.554441 0.0297823 3.1055e-19)
(0.661478 0.0408753 2.02135e-19)
(0.768732 0.0535015 3.22374e-19)
(0.872303 0.0669696 9.2509e-20)
(0.968459 0.0804722 5.10729e-20)
(1.05406 0.0931643 1.88147e-20)
(1.12699 0.104408 -2.07015e-20)
(1.18615 0.113322 -6.78568e-20)
(1.23205 0.120854 -7.41847e-20)
(1.26415 0.122687 -2.2203e-19)
(-0.00482841 0.00299165 3.28523e-20)
(-0.00128494 0.00483384 -5.9815e-20)
(0.0158374 0.00535738 4.35363e-20)
(0.0462284 0.00495246 -1.03819e-19)
(0.0898712 0.00451714 2.17644e-19)
(0.146628 0.00483784 3.89972e-19)
(0.216124 0.00656521 1.19271e-19)
(0.297608 0.0102188 3.29888e-19)
(0.389768 0.0161461 -1.73575e-19)
(0.490596 0.0244809 4.53126e-19)
(0.597318 0.0351087 8.28818e-20)
(0.706463 0.0476502 1.97422e-19)
(0.814091 0.0614819 -3.53871e-19)
(0.91618 0.0758005 -1.25567e-19)
(1.0091 0.0897329 1.28103e-19)
(1.09004 0.102433 2.46927e-19)
(1.15737 0.113307 1.66127e-19)
(1.21055 0.121632 -7.34058e-20)
(1.25056 0.128283 3.00242e-19)
(1.27766 0.129673 9.9084e-20)
(-0.00389437 0.00243507 -1.10659e-19)
(0.00219656 0.00341437 -2.50667e-19)
(0.0226109 0.0035112 -1.87762e-19)
(0.0569677 0.00304539 5.79744e-20)
(0.105175 0.00291602 -3.10224e-19)
(0.166969 0.00389992 -3.82387e-19)
(0.241785 0.00662149 -5.09238e-20)
(0.328595 0.0115542 -1.16708e-19)
(0.425732 0.0189717 4.10845e-19)
(0.530768 0.0289036 -1.07568e-19)
(0.640491 0.0411038 -3.14294e-19)
(0.75105 0.0550488 -5.09859e-19)
(0.858269 0.0699809 2.73265e-19)
(0.958102 0.0849988 2.52839e-19)
(1.04713 0.0991887 -6.74079e-20)
(1.12297 0.111732 -1.30076e-19)
(1.1845 0.122104 5.23392e-20)
(1.23177 0.129742 -7.23771e-20)
(1.26618 0.135493 -1.37428e-20)
(1.28865 0.136375 1.78815e-19)
(-0.00282632 0.00186309 -8.53869e-20)
(0.00607949 0.00198044 -6.47614e-20)
(0.0300469 0.00168959 2.89015e-19)
(0.0686143 0.00123254 -1.76889e-19)
(0.121597 0.00150483 4.52253e-19)
(0.188583 0.00326656 1.88732e-19)
(0.26878 0.00710503 -1.22697e-19)
(0.360849 0.0134328 -2.07739e-19)
(0.462732 0.0224319 -3.27554e-19)
(0.571559 0.0340088 1.37743e-19)
(0.68369 0.0477715 2.81553e-20)
(0.794941 0.0630466 1.69663e-19)
(0.90098 0.078949 3.31592e-19)
(0.997842 0.0944997 -1.87502e-19)
(1.08242 0.108771 6.71632e-20)
(1.15282 0.121 -2.37441e-19)
(1.20849 0.130753 -7.34119e-20)
(1.25003 0.137629 -5.87921e-20)
(1.27919 0.142473 -3.43248e-20)
(1.29741 0.142801 -2.47971e-19)
(-0.00161712 0.00128088 1.67853e-19)
(0.0103801 0.000549642 2.65786e-19)
(0.0381653 -7.65805e-05 1.06275e-20)
(0.0811855 -0.000442542 1.62283e-19)
(0.139144 0.000337744 -3.88087e-19)
(0.21145 0.00299877 9.28424e-20)
(0.297051 0.008078 -5.99141e-20)
(0.39426 0.0159105 -1.16264e-20)
(0.500597 0.0265677 -1.11518e-19)
(0.612741 0.0398154 -2.42356e-19)
(0.726646 0.0551036 -5.87774e-20)
(0.837852 0.0716084 1.54484e-19)
(0.941969 0.0883306 -4.56214e-19)
(1.03522 0.104237 1.16891e-19)
(1.1149 0.118417 -3.47782e-20)
(1.17965 0.130186 2.0126e-19)
(1.2295 0.139221 3.75721e-19)
(1.26554 0.145279 7.79711e-22)
(1.28987 0.149221 -6.33148e-20)
(1.30424 0.148973 -8.22153e-20)
(-0.000259552 0.000693966 -3.01938e-20)
(0.0151139 -0.000859707 -4.01051e-19)
(0.0469837 -0.00175567 -3.05826e-19)
(0.094693 -0.00193593 -1.92467e-20)
(0.157811 -0.000531657 6.79906e-20)
(0.235538 0.00315541 -1.29995e-19)
(0.326526 0.0095982 -5.98486e-22)
(0.428703 0.0190361 4.24282e-20)
(0.539144 0.0314109 6.18762e-20)
(0.654077 0.0463307 3.44815e-19)
(0.769086 0.0630804 1.411e-19)
(0.879517 0.0806904 -3.63792e-20)
(0.981018 0.0980659 4.12771e-20)
(1.0701 0.114148 -5.35514e-20)
(1.14454 0.12807 2.40891e-19)
(1.20355 0.13925 -1.00769e-19)
(1.24771 0.147486 -1.67546e-19)
(1.27857 0.15269 -1.38603e-20)
(1.29847 0.155745 1.01628e-19)
(1.30941 0.154916 8.01055e-21)
(0.00125352 0.00010825 5.36379e-20)
(0.0202952 -0.00222848 2.12646e-19)
(0.0565165 -0.00331534 1.31549e-19)
(0.109143 -0.00320355 -2.3877e-19)
(0.177585 -0.00105072 5.07356e-20)
(0.260803 0.00379259 3.05827e-19)
(0.357115 0.0117183 1.65524e-19)
(0.464034 0.0228507 2.18418e-20)
(0.578172 0.0369826 1.97626e-19)
(0.695322 0.0535512 -3.97591e-19)
(0.810752 0.0716725 -1.10328e-19)
(0.919696 0.0902425 -4.65384e-20)
(1.01795 0.108094 2.70919e-19)
(1.1024 0.124171 -8.19103e-20)
(1.17136 0.13768 -2.24128e-20)
(1.22464 0.14816 -1.4305e-19)
(1.26332 0.155537 -1.16968e-19)
(1.28934 0.159867 -3.9484e-20)
(1.30525 0.162062 -4.26019e-20)
(1.31316 0.160658 -1.16541e-19)
(0.00292898 -0.00046991 -5.00401e-20)
(0.025937 -0.00353666 -3.01563e-20)
(0.0667745 -0.00472253 -7.70121e-20)
(0.124535 -0.00420132 2.50606e-19)
(0.198443 -0.00116814 1.66077e-19)
(0.287186 0.00496315 -5.25618e-20)
(0.388714 0.0144851 -9.31374e-21)
(0.500094 0.027387 2.02275e-19)
(0.617473 0.0432945 -3.04569e-19)
(0.736235 0.0614631 1.83864e-19)
(0.851397 0.0808423 1.85929e-19)
(0.958181 0.10021 4.88763e-20)
(1.05262 0.118354 -9.64409e-20)
(1.13208 0.134253 1.37889e-19)
(1.19543 0.147209 -3.55782e-19)
(1.24307 0.156895 4.53435e-20)
(1.27654 0.16337 -8.31112e-20)
(1.29811 0.166824 2.06948e-19)
(1.31044 0.168189 3.7389e-19)
(1.31571 0.16623 4.73185e-20)
(0.00477332 -0.00103365 -7.779e-20)
(0.0320501 -0.00476332 3.32812e-20)
(0.0777642 -0.00594351 2.17212e-19)
(0.140861 -0.00488533 3.59718e-21)
(0.220352 -0.000834254 -3.59476e-19)
(0.314617 0.00671616 -2.44232e-19)
(0.421203 0.0179394 -2.06476e-19)
(0.536714 0.0326693 -1.07248e-19)
(0.656833 0.0503481 4.03036e-19)
(0.776579 0.0700433 -1.78386e-20)
(0.890798 0.0905459 5.28937e-20)
(0.994796 0.110537 8.53282e-20)
(1.08495 0.12879 -2.81825e-19)
(1.15914 0.144345 -2.21846e-19)
(1.21686 0.156624 5.8619e-20)
(1.25902 0.165442 2.6711e-19)
(1.28759 0.17099 -2.11108e-20)
(1.3051 0.173577 2.04657e-19)
(1.31426 0.174149 -2.82428e-19)
(1.31723 0.171659 -3.43534e-20)
(0.00679246 -0.00157558 9.89323e-20)
(0.0386433 -0.00588657 1.22637e-19)
(0.0894878 -0.00694397 -2.24563e-19)
(0.158106 -0.00521208 -1.20858e-20)
(0.243269 -1.44381e-06 4.223e-19)
(0.343013 0.00909648 2.61409e-19)
(0.454452 0.0221153 -1.03964e-19)
(0.573714 0.0387134 1.51447e-19)
(0.696036 0.058136 -1.59714e-19)
(0.816128 0.0792611 -1.59469e-19)
(0.928752 0.100735 1.60533e-19)
(1.0294 0.121167 -3.20425e-19)
(1.11488 0.139348 3.97068e-20)
(1.18364 0.154407 1.49719e-19)
(1.23576 0.165903 -8.05595e-20)
(1.27266 0.173798 1.13335e-19)
(1.29669 0.178407 -1.3511e-19)
(1.31052 0.180146 -3.07389e-19)
(1.31689 0.179965 3.92749e-20)
(1.31789 0.176973 1.02431e-19)
(0.00899155 -0.00208775 1.15941e-19)
(0.0457225 -0.00688364 -3.73087e-19)
(0.101942 -0.0076891 5.92474e-20)
(0.176248 -0.00513868 -6.11979e-20)
(0.26714 0.00137555 -1.48757e-19)
(0.372277 0.0121444 -1.17827e-19)
(0.488318 0.0270401 1.04648e-19)
(0.610908 0.0455268 -4.74534e-19)
(0.73487 0.0666424 -1.09778e-19)
(0.854671 0.0890795 6.99278e-20)
(0.965087 0.111357 -8.76936e-20)
(1.06189 0.132046 2.47951e-19)
(1.14239 0.14998 1.71597e-19)
(1.20563 0.164407 5.88239e-20)
(1.25227 0.175031 3.19909e-19)
(1.2842 0.181964 -3.10733e-19)
(1.30403 0.185635 1.88363e-19)
(1.31458 0.186552 2.61122e-19)
(1.31851 0.18566 -2.37376e-20)
(1.31783 0.182197 -1.63362e-19)
(0.0113749 -0.0025617 9.26601e-21)
(0.053291 -0.00773093 -3.96147e-21)
(0.115119 -0.0081438 2.69859e-19)
(0.195257 -0.00462315 -3.844e-20)
(0.2919 0.00333925 -1.65401e-20)
(0.402303 0.0158953 2.80026e-19)
(0.52265 0.0327343 3.18377e-19)
(0.648108 0.0531091 8.62863e-20)
(0.773129 0.0758444 1.8328e-19)
(0.892018 0.0994563 -1.18994e-19)
(0.999658 0.122361 -9.96836e-20)
(1.0922 0.14312 -2.00875e-21)
(1.1675 0.160645 -1.18843e-19)
(1.22521 0.174317 -4.36411e-21)
(1.26655 0.183999 -2.25196e-19)
(1.29382 0.189947 8.72898e-20)
(1.30982 0.192691 2.01199e-19)
(1.31744 0.192819 -9.95659e-20)
(1.31926 0.191256 1.12907e-19)
(1.31716 0.187354 1.98833e-19)
(0.0139458 -0.00298847 3.57038e-20)
(0.0613485 -0.00840412 -9.5855e-20)
(0.129004 -0.00827285 -5.59387e-21)
(0.215092 -0.00362472 2.59317e-21)
(0.317475 0.00592906 -1.86347e-19)
(0.432977 0.0203794 -2.61643e-20)
(0.557289 0.0392113 -3.28434e-19)
(0.685125 0.0614521 3.37704e-19)
(0.810619 0.0857122 1.7218e-19)
(0.927998 0.110346 1.51484e-20)
(1.03235 0.133695 -1.59174e-21)
(1.12028 0.154343 -8.65962e-20)
(1.19024 0.171307 5.05324e-20)
(1.2425 0.184121 1.36091e-19)
(1.27877 0.192806 -2.33153e-19)
(1.30169 0.197757 1.74921e-19)
(1.31423 0.199595 -2.07129e-19)
(1.31927 0.198967 -9.14618e-21)
(1.31927 0.196773 8.1274e-22)
(1.31598 0.192463 8.98217e-20)
(0.0167064 -0.00335863 -7.81058e-20)
(0.0698915 -0.00887832 -8.67419e-20)
(0.143579 -0.00804127 1.22836e-19)
(0.235708 -0.00210422 -5.41319e-20)
(0.343784 0.00918093 -1.6823e-20)
(0.464173 0.0256213 -1.63101e-19)
(0.592075 0.0464776 1.80612e-19)
(0.721775 0.070541 -3.20483e-19)
(0.847156 0.0962113 2.90945e-20)
(0.962462 0.121701 4.83652e-20)
(1.06308 0.145308 -2.60544e-20)
(1.14613 0.165671 1.85557e-20)
(1.2107 0.181936 -2.11332e-19)
(1.25762 0.193804 -1.58998e-19)
(1.28909 0.201454 1.31821e-19)
(1.308 0.205408 -4.18093e-20)
(1.31743 0.206365 -2.4661e-19)
(1.3202 0.205019 -4.60564e-20)
(1.31865 0.20223 -1.99391e-19)
(1.31435 0.197539 -2.42782e-19)
(0.0196576 -0.00366236 -1.85251e-20)
(0.0789129 -0.00912826 1.28128e-19)
(0.158815 -0.00741449 9.21627e-20)
(0.25705 -2.45747e-05 2.67156e-19)
(0.370735 0.0131268 -9.41563e-21)
(0.495761 0.03164 1.39582e-19)
(0.626844 0.0545332 -2.93034e-19)
(0.757879 0.0803545 1.01946e-19)
(0.882577 0.107302 -8.47881e-20)
(0.995288 0.133473 1.21327e-19)
(1.09179 0.157152 2.96031e-20)
(1.16977 0.177065 6.91861e-20)
(1.22894 0.19251 1.96319e-19)
(1.27071 0.203359 2.40333e-20)
(1.29766 0.209949 -1.18803e-19)
(1.3129 0.212915 1.93782e-19)
(1.31955 0.213021 6.70141e-20)
(1.32036 0.210992 -3.15035e-20)
(1.31748 0.207643 1.8779e-19)
(1.31235 0.202596 1.22283e-19)
(0.279057 0.00264895 -3.91593e-20)
(0.398229 0.0177942 4.72369e-20)
(0.527605 0.0384483 -2.74689e-20)
(0.661432 0.0633713 1.6608e-19)
(0.793268 0.0908656 -5.22075e-20)
(0.916732 0.118944 -6.34702e-20)
(1.02638 0.145613 -2.14412e-19)
(1.11844 0.169182 -1.35458e-19)
(1.19123 0.188492 -1.23686e-19)
(1.24507 0.20301 -9.96013e-20)
(1.28191 0.212785 3.77211e-20)
(1.30465 0.218301 -7.24907e-20)
(1.31655 0.220295 8.749e-21)
(1.32074 0.219582 1.34289e-19)
(1.31984 0.216903 1.40415e-19)
(1.31584 0.213026 9.96909e-21)
(1.31002 0.207645 8.54718e-20)
(0.559567 0.0460535 -2.86743e-20)
(0.69568 0.072979 -9.12697e-20)
(0.827783 0.102043 2.17036e-19)
(0.949491 0.131091 -5.41114e-20)
(1.05565 0.158073 -2.02617e-21)
(1.14302 0.181357 1.45267e-19)
(1.21056 0.199923 -1.2944e-19)
(1.25921 0.213423 5.59708e-20)
(1.29135 0.22208 -1.39899e-19)
(1.31019 0.226519 2.32717e-19)
(1.31909 0.227563 -1.74214e-19)
(1.3211 0.226064 -1.03509e-19)
(1.31873 0.222769 -1.00658e-21)
(1.31378 0.218389 -1.48002e-19)
(1.30739 0.212693 -1.71524e-21)
(0.980744 0.143698 -3.88248e-20)
(1.08305 0.170809 6.62048e-20)
(1.16556 0.193639 -8.89681e-20)
(1.22785 0.211335 1.12308e-19)
(1.27145 0.22374 1.06948e-19)
(1.29917 0.231249 2.36445e-20)
(1.31443 0.234615 -6.61432e-20)
(1.32062 0.234735 -1.55079e-20)
(1.32074 0.232482 -8.8976e-20)
(1.3171 0.2286 -3.72665e-20)
(1.31137 0.223742 6.08089e-20)
(1.3045 0.217745 -1.02273e-19)
(1.28192 0.233955 -2.73179e-21)
(1.30551 0.240298 9.84166e-20)
(1.31749 0.242603 -2.79499e-20)
(1.32127 0.241826 1.57961e-19)
(1.31973 0.23885 8.26346e-20)
(1.31502 0.234408 -1.3458e-20)
(1.30863 0.229091 4.44161e-20)
(1.30138 0.222806 1.67115e-19)