/*--------------------------------*- C++ -*----------------------------------*\
  =========                 |
  \\      /  F ield         | OpenFOAM: The Open Source CFD Toolbox
   \\    /   O peration     | Website:  https://openfoam.org
    \\  /    A nd           | Version:  7
     \\/     M anipulation  |
\*---------------------------------------------------------------------------*/
FoamFile
{
    version     2.0;
    format      ascii;
    class       surfaceScalarField;
    location    "280";
    object      phi;
}
// * * * * * * * * * * * * * * * * * * * * * * * * * * * * * * * * * * * * * //

dimensions      [0 3 -1 0 0 0 0];

internalField   nonuniform List<scalar> 
14029
(
0.000519351
0.00674511
-0.00681439
0.0005659
0.00720657
-0.00725312
0.000586261
0.00743957
-0.00745994
0.000579859
0.00756507
-0.00755867
0.00055305
0.00765869
-0.00763189
0.000524681
0.00766146
-0.00763309
0.000522813
0.00733464
-0.00733277
0.000566965
0.00638337
-0.00642752
0.000653772
0.00470482
-0.00479163
0.000765497
0.00246958
-0.00258131
0.000885047
-1.2951e-05
-0.000106599
0.000999504
-0.00241399
0.00229953
0.00109864
-0.00445067
0.00435153
0.00117563
-0.00595712
0.00588014
0.00122834
-0.00691559
0.00686289
0.00125839
-0.00742192
0.00739187
0.00126943
-0.00762438
0.00761335
0.00126632
-0.0076565
0.00765961
0.00125278
-0.00760521
0.00761875
0.00122795
-0.00755829
0.00758312
0.00118828
-0.00762709
0.00766676
0.00113539
-0.0078196
0.00787249
0.0010815
-0.00788109
0.00793498
0.00104478
-0.00734945
0.00738617
0.00103803
-0.00586592
0.00587267
0.00106295
-0.00346137
0.00343645
0.00111271
-0.000548398
0.000498638
0.00117582
0.0023121
-0.0023752
0.00123914
0.00466432
-0.00472764
0.0063124
-0.00636478
0.000507614
0.00667135
0.000557996
0.00715619
0.000581473
0.0074161
0.000577946
0.0075686
0.000554873
0.00768177
0.000532038
0.00768429
0.00053692
0.00732976
0.000586669
0.00633362
0.000675882
0.00461561
0.000786737
0.00235873
0.000903173
-0.000129387
0.00101334
-0.00252415
0.00110779
-0.00454512
0.00118026
-0.00602959
0.00122899
-0.00696432
0.00125582
-0.00744875
0.00126435
-0.00763292
0.00125928
-0.00765143
0.00124423
-0.00759016
0.00121829
-0.00753235
0.00117769
-0.00758649
0.00112379
-0.0077657
0.0010689
-0.0078262
0.00103174
-0.00731229
0.00102574
-0.00585992
0.00105271
-0.00348833
0.00110535
-0.000601038
0.00117158
0.00224586
0.00123782
0.00459809
0.00625753
0.000496002
0.00659319
0.000550181
0.00710201
0.000576831
0.00738945
0.000576378
0.00756906
0.000557356
0.00770079
0.000540329
0.00770132
0.000551976
0.00731811
0.000607042
0.00627856
0.000698283
0.00452437
0.000807959
0.00224905
0.000921079
-0.000242507
0.00102683
-0.0026299
0.00111656
-0.00463485
0.00118451
-0.00609754
0.00122929
-0.0070091
0.00125295
-0.00747242
0.00125905
-0.00763901
0.00125208
-0.00764446
0.00123559
-0.00757367
0.00120861
-0.00750536
0.00116716
-0.00754504
0.00111236
-0.00771089
0.00105651
-0.00777035
0.00101886
-0.00727464
0.00101352
-0.00585457
0.00104241
-0.00351723
0.00109783
-0.000656459
0.00116713
0.00217656
0.00123624
0.00452897
0.00620018
0.000484521
0.00651072
0.00054246
0.00704407
0.000572347
0.00735956
0.000575175
0.00756623
0.00056051
0.00771545
0.000549533
0.0077123
0.000567921
0.00729972
0.000628007
0.00621847
0.000720909
0.00443147
0.000829116
0.00214084
0.000938734
-0.000352124
0.00103998
-0.00273115
0.00112494
-0.00471981
0.00118838
-0.00616098
0.00122926
-0.00704998
0.00124981
-0.00749297
0.00125353
-0.00764274
0.00124474
-0.00763567
0.00122687
-0.00755581
0.00119892
-0.00747742
0.00115673
-0.00750285
0.00110109
-0.00765526
0.00104433
-0.00771359
0.00100616
-0.00723648
0.00100136
-0.00584977
0.00103206
-0.00354792
0.00109016
-0.000714561
0.00116244
0.00210428
0.0012344
0.004457
0.00614034
0.000473177
0.00642404
0.000534839
0.00698241
0.000568035
0.00732636
0.000574355
0.00755991
0.000564343
0.00772547
0.000559624
0.00771702
0.00058469
0.00727466
0.000649485
0.00615368
0.000743691
0.00433726
0.000850159
0.00203437
0.00095611
-0.000458076
0.00105277
-0.00282781
0.00113294
-0.00479998
0.00119188
-0.00621992
0.0012289
-0.00708699
0.00124639
-0.00751047
0.00124782
-0.00764416
0.00123726
-0.00762511
0.00121807
-0.00753662
0.00118923
-0.00744857
0.00114638
-0.00745999
0.00109001
-0.00759889
0.00103237
-0.00765595
0.00099364
-0.00719775
0.000989274
-0.0058454
0.00102165
-0.0035803
0.00108233
-0.000775234
0.00115752
0.00202909
0.00123228
0.00438224
0.00607802
0.000461972
0.00633324
0.000527322
0.00691706
0.000563906
0.00728978
0.000573933
0.00754988
0.000568855
0.00773055
0.000570568
0.0077153
0.000602213
0.00724301
0.000671398
0.00608449
0.000766564
0.0042421
0.00087104
0.0019299
0.000973178
-0.000560213
0.00106518
-0.00291981
0.00114054
-0.00487533
0.00119501
-0.00627439
0.00122821
-0.0071202
0.00124271
-0.00752497
0.0012419
-0.00764335
0.00122965
-0.00761286
0.00120921
-0.00751618
0.00117955
-0.00741891
0.00113612
-0.00741657
0.00107911
-0.00754189
0.00102065
-0.00759748
0.000981317
-0.00715842
0.000977275
-0.00584136
0.0010112
-0.00361423
0.00107433
-0.000838367
0.00115236
0.00195107
0.00122989
0.00430471
0.00601322
0.000450908
0.00623844
0.000519912
0.00684805
0.000559972
0.00724972
0.000573924
0.00753593
0.000574045
0.00773042
0.000582325
0.00770702
0.000620418
0.00720492
0.000693665
0.00601124
0.000789461
0.0041463
0.000891713
0.00182765
0.00098991
-0.00065841
0.0010772
-0.0030071
0.00114774
-0.00494587
0.00119777
-0.00632442
0.00122721
-0.00714964
0.00123878
-0.00753654
0.0012358
-0.00764037
0.00122193
-0.00759899
0.00120029
-0.00749453
0.00116986
-0.00738849
0.00112596
-0.00737266
0.00106841
-0.00748433
0.00100917
-0.00753824
0.0009692
-0.00711845
0.000965369
-0.00583753
0.00100071
-0.00364957
0.00106618
-0.000903844
0.00114696
0.0018703
0.0012272
0.00422446
0.00594597
0.000439985
0.00613974
0.000512615
0.00677542
0.000556245
0.00720609
0.000574338
0.00751783
0.000579903
0.00772486
0.00059485
0.00769208
0.000639229
0.00716054
0.000716206
0.00593427
0.000812316
0.00405019
0.000912134
0.00172783
0.00100628
-0.000752558
0.00108882
-0.00308964
0.00115454
-0.0050116
0.00120016
-0.00637004
0.00122589
-0.00717537
0.00123459
-0.00754524
0.00122952
-0.0076353
0.00121409
-0.00758356
0.00119131
-0.00747176
0.0011602
-0.00735737
0.0011159
-0.00732837
0.0010579
-0.00742633
0.000997938
-0.00747828
0.000957299
-0.00707781
0.000953564
-0.00583379
0.000990174
-0.00368618
0.00105787
-0.000971542
0.00114131
0.00178686
0.00122423
0.00414154
0.00587625
0.000429203
0.00603725
0.000505438
0.00669919
0.000552738
0.00715879
0.000575185
0.00749539
0.000586414
0.00771363
0.000608092
0.0076704
0.000658567
0.00711006
0.000738943
0.00585389
0.000835066
0.00395407
0.000932257
0.00163064
0.00102226
-0.000842565
0.00110002
-0.0031674
0.00116095
-0.00507252
0.00120219
-0.00641129
0.00122427
-0.00719745
0.00123016
-0.00755113
0.00122306
-0.00762819
0.00120614
-0.00756664
0.00118228
-0.0074479
0.00115054
-0.00732563
0.00110594
-0.00728377
0.00104759
-0.00736797
0.000986961
-0.00741765
0.000945622
-0.00703647
0.000941868
-0.00583004
0.000979605
-0.00372392
0.0010494
-0.00104134
0.00113541
0.00170085
0.00122096
0.00405599
0.00580408
0.000418566
0.00593109
0.000498387
0.00661937
0.000549465
0.00710771
0.00057647
0.00746838
0.000593562
0.00769654
0.000621996
0.00764197
0.000678354
0.00705371
0.000761796
0.00577045
0.000857648
0.00385822
0.000952041
0.00153624
0.00103784
-0.000928361
0.00111081
-0.00324037
0.00116695
-0.00512866
0.00120387
-0.00644821
0.00122235
-0.00721593
0.0012255
-0.00755427
0.00121643
-0.00761913
0.00119809
-0.0075483
0.00117321
-0.00742302
0.0011409
-0.00729333
0.00109609
-0.00723896
0.00103747
-0.00730936
0.000976243
-0.00735642
0.000934177
-0.0069944
0.000930288
-0.00582615
0.000969004
-0.00376263
0.00104076
-0.0011131
0.00112926
0.00161235
0.00121738
0.00396787
0.00572947
0.000408074
0.00582136
0.000491471
0.00653597
0.000546438
0.00705275
0.0005782
0.00743662
0.000601324
0.00767341
0.000636504
0.00760679
0.000698508
0.0069917
0.000784688
0.00568427
0.000880002
0.0037629
0.000971446
0.0014448
0.00105298
-0.00100989
0.00112115
-0.00330855
0.00117254
-0.00518004
0.00120518
-0.00648085
0.00122013
-0.00723089
0.0012206
-0.00755474
0.00120964
-0.00760817
0.00118994
-0.0075286
0.00116409
-0.00739717
0.00113128
-0.00726052
0.00108633
-0.00719401
0.00102755
-0.00725058
0.000965784
-0.00729465
0.00092297
-0.00695159
0.000918833
-0.00582201
0.000958375
-0.00380217
0.00103197
-0.00118669
0.00112285
0.00152147
0.0012135
0.00387721
0.00565244
0.000397732
0.00570817
0.000484703
0.006449
0.000543671
0.00699378
0.000580375
0.00739992
0.000609672
0.00764412
0.000651552
0.0075649
0.000718949
0.0069243
0.000807542
0.00559568
0.000902069
0.00366837
0.000990434
0.00135644
0.00106766
-0.00108711
0.00113106
-0.00337195
0.00117772
-0.00522671
0.00120614
-0.00650927
0.00121763
-0.00724237
0.00121548
-0.00755259
0.00120269
-0.00759538
0.00118169
-0.00750761
0.00115494
-0.00737041
0.00112168
-0.00722726
0.00107668
-0.00714901
0.00101783
-0.00719173
0.000955586
-0.00723241
0.000912006
-0.00690801
0.000907509
-0.00581752
0.000947722
-0.00384239
0.00102301
-0.00126197
0.00111618
0.0014283
0.0012093
0.00378409
0.00557299
0.000387548
0.00559163
0.000478096
0.00635845
0.000541179
0.00693069
0.000582996
0.0073581
0.000618576
0.00760854
0.000667078
0.0075164
0.000739595
0.00685179
0.000830284
0.00550499
0.000923793
0.00357486
0.00100897
0.00127126
0.00108187
-0.00116001
0.00114051
-0.00343059
0.0011825
-0.00526869
0.00120674
-0.00653351
0.00121483
-0.00725046
0.00121013
-0.00754789
0.00119558
-0.00758082
0.00117336
-0.00748539
0.00114575
-0.0073428
0.00111209
-0.0071936
0.00106711
-0.00710403
0.00100829
-0.00713291
0.000945649
-0.00716977
0.000901292
-0.00686365
0.000896322
-0.00581255
0.000937049
-0.00388311
0.00101388
-0.0013388
0.00110924
0.00133294
0.00120478
0.00368854
0.00549115
0.000377536
0.00547183
0.000471668
0.00626432
0.000538976
0.00686339
0.000586062
0.00731101
0.000628002
0.0075666
0.000683013
0.00746139
0.000760367
0.00677443
0.000852843
0.00541251
0.00094512
0.00348259
0.00102701
0.00118937
0.00109558
-0.00122858
0.0011495
-0.00348451
0.00118686
-0.00530605
0.001207
-0.00655365
0.00121175
-0.00725521
0.00120457
-0.00754071
0.00118831
-0.00756457
0.00116493
-0.00746201
0.00113652
-0.00731439
0.00110252
-0.0071596
0.00105764
-0.00705915
0.000998946
-0.00707421
0.000935969
-0.00710679
0.000890829
-0.00681851
0.00088528
-0.005807
0.00092636
-0.00392419
0.00100459
-0.00141704
0.00110204
0.0012355
0.00119994
0.00359064
0.00540692
0.000367711
0.00534888
0.00046544
0.00616659
0.00053708
0.00679175
0.000589568
0.00725853
0.000637913
0.00751825
0.00069929
0.00740001
0.000781185
0.00669254
0.000875149
0.00531855
0.000965999
0.00339174
0.00104454
0.00111083
0.00110879
-0.00129283
0.00115803
-0.00353376
0.00119081
-0.00533883
0.0012069
-0.00656975
0.00120839
-0.0072567
0.00119879
-0.00753111
0.0011809
-0.00754667
0.00115642
-0.00743753
0.00112726
-0.00728523
0.00109296
-0.00712531
0.00104825
-0.00701444
0.000989776
-0.00701574
0.000926544
-0.00704356
0.00088062
-0.00677259
0.000874389
-0.00580077
0.00091566
-0.00396547
0.000995144
-0.00149652
0.00109456
0.00113608
0.00119477
0.00349043
0.00532033
0.000358097
0.00522289
0.000459437
0.00606525
0.000535506
0.00671568
0.000593509
0.00720052
0.000648271
0.00746349
0.000715842
0.00733244
0.000801975
0.00660641
0.000897136
0.00522339
0.000986381
0.00330249
0.00106151
0.0010357
0.00112147
-0.00135279
0.00116608
-0.00357837
0.00119434
-0.00536709
0.00120646
-0.00658186
0.00120476
-0.007255
0.00119281
-0.00751916
0.00117334
-0.0075272
0.00114782
-0.00741201
0.00111797
-0.00725537
0.00108342
-0.00709076
0.00103895
-0.00696997
0.000980778
-0.00695757
0.000917369
-0.00698015
0.000870666
-0.00672588
0.000863654
-0.00579376
0.000904954
-0.00400677
0.000985533
-0.0015771
0.00108681
0.00103481
0.00118926
0.00338798
0.0052314
0.000348725
0.00509395
0.000453688
0.00596029
0.000534273
0.00663509
0.000597878
0.00713692
0.000659034
0.00740234
0.000732599
0.00725888
0.000822659
0.00651635
0.000918738
0.00512731
0.00100622
0.00321501
0.00107791
0.000964011
0.0011336
-0.00140848
0.00117365
-0.00361841
0.00119746
-0.00539091
0.00120567
-0.00659007
0.00120085
-0.00725019
0.00118662
-0.00750492
0.00116563
-0.00750621
0.00113914
-0.00738552
0.00110864
-0.00722487
0.00107388
-0.007056
0.00102971
-0.00692579
0.000971944
-0.0068998
0.000908438
-0.00691664
0.000860968
-0.00667841
0.000853081
-0.00578587
0.000894247
-0.00404793
0.000975761
-0.00165861
0.00107879
0.00093178
0.00118341
0.00328336
0.00514014
0.000339633
0.00496217
0.000448226
0.00585169
0.0005334
0.00654992
0.000602667
0.00706765
0.00067016
0.00733484
0.000749495
0.00717954
0.000843168
0.00642267
0.000939898
0.00503058
0.00102548
0.00312943
0.00109371
0.000895783
0.00114519
-0.00145996
0.00118073
-0.00365396
0.00120016
-0.00541034
0.00120453
-0.00659443
0.00119667
-0.00724233
0.00118022
-0.00748847
0.00115777
-0.00748377
0.00113036
-0.00735812
0.00109927
-0.00719378
0.00106434
-0.00702107
0.00102053
-0.00688198
0.000963263
-0.00684253
0.000899744
-0.00685312
0.000851523
-0.00663019
0.000842674
-0.00577702
0.000883544
-0.0040888
0.000965832
-0.0017409
0.00107049
0.000827126
0.00117721
0.00317663
0.0050466
0.000330866
0.00482767
0.000443089
0.00573947
0.000532906
0.0064601
0.000607867
0.00699269
0.000681605
0.0072611
0.000766463
0.00709468
0.000863431
0.00632571
0.000960557
0.00493345
0.00104411
0.00304587
0.00110888
0.000831018
0.00115621
-0.00150729
0.00118733
-0.00368508
0.00120245
-0.00542546
0.00120305
-0.00659504
0.00119222
-0.00723149
0.00117362
-0.00746987
0.00114977
-0.00745992
0.00112151
-0.00732985
0.00108987
-0.00716215
0.00105481
-0.00698601
0.00101141
-0.00683859
0.000954725
-0.00678584
0.000891277
-0.00678968
0.000842331
-0.00658125
0.000832439
-0.00576713
0.000872852
-0.00412921
0.000955746
-0.0018238
0.00106191
0.000720966
0.00117067
0.00306787
0.00495078
0.000322479
0.00469056
0.000438318
0.00562363
0.000532812
0.00636561
0.000613465
0.00691204
0.000693325
0.00718125
0.000783437
0.00700457
0.000883383
0.00622576
0.000980664
0.00483617
0.00106209
0.00296444
0.00112341
0.000769701
0.00116666
-0.00155055
0.00119343
-0.00371185
0.00120432
-0.00543634
0.00120123
-0.00659195
0.0011875
-0.00721777
0.00116682
-0.00744918
0.00114162
-0.00743473
0.00111256
-0.00730079
0.00108043
-0.00713001
0.00104527
-0.00695086
0.00100234
-0.00679566
0.000946319
-0.00672982
0.00088303
-0.00672639
0.000833387
-0.0065316
0.000822379
-0.00575612
0.000862176
-0.00416901
0.000945508
-0.00190713
0.00105305
0.000613425
0.00116378
0.00295713
0.00485273
0.000314537
0.00455099
0.00043396
0.00550421
0.000533139
0.00626643
0.000619453
0.00682572
0.000705276
0.00709542
0.000800356
0.00690949
0.000902963
0.00612315
0.00100017
0.00473896
0.00107938
0.00288523
0.00113728
0.000711805
0.00117653
-0.0015898
0.00119903
-0.00373435
0.00120577
-0.00544307
0.00119907
-0.00658525
0.00118252
-0.00720122
0.00115981
-0.00742647
0.00113333
-0.00740825
0.00110352
-0.00727097
0.00107094
-0.00709744
0.00103572
-0.00691564
0.000993304
-0.00675324
0.000938032
-0.00667455
0.00087499
-0.00666334
0.000824686
-0.0064813
0.000812498
-0.00574393
0.000851523
-0.00420803
0.000935121
-0.00199073
0.00104391
0.000504634
0.00115654
0.00284451
0.00475247
0.000307112
0.000430065
0.00538125
0.00053391
0.00616258
0.000625816
0.00673382
0.000717414
0.00700382
0.000817158
0.00680975
0.000922112
0.0060182
0.00101903
0.00464205
0.00109595
0.00280831
0.00115047
0.000657288
0.00118581
-0.00162514
0.00120414
-0.00375268
0.0012068
-0.00544573
0.00119656
-0.00657502
0.00117728
-0.00718193
0.00115262
-0.00740181
0.0011249
-0.00738053
0.00109439
-0.00724047
0.00106141
-0.00706446
0.00102616
-0.00688038
0.000984292
-0.00671137
0.000929851
-0.00662011
0.000867147
-0.00660064
0.000816223
-0.00643038
0.000802797
-0.00573051
0.000840899
-0.00424614
0.000924591
-0.00207442
0.0010345
0.000394726
0.00114893
0.00273008
0.00465004
0.000426688
0.00525485
0.000535147
0.00605412
0.000632542
0.00663642
0.000729696
0.00690667
0.000833788
0.00670566
0.000940776
0.00591121
0.0010372
0.00454562
0.00111178
0.00273372
0.00116298
0.000606092
0.0011945
-0.00165666
0.00120874
-0.00376693
0.00120741
-0.00544439
0.00119372
-0.00656133
0.00117177
-0.00715998
0.00114522
-0.00737527
0.00111631
-0.00735162
0.00108516
-0.00720931
0.00105184
-0.00703114
0.00101657
-0.00684511
0.000975296
-0.0066701
0.000921763
-0.00656658
0.000859488
-0.00653836
0.000807992
-0.00637888
0.000793279
-0.00571579
0.000830313
-0.00428317
0.000913921
-0.00215803
0.00102481
0.000283838
0.00114097
0.00261391
0.00454547
0.000423883
0.00512512
0.000536873
0.00594113
0.000639619
0.00653368
0.000742079
0.00680421
0.000850189
0.00659755
0.000958905
0.00580249
0.00105465
0.00444988
0.00112685
0.00266152
0.00117479
0.000558154
0.00120259
-0.00168446
0.00121284
-0.00377718
0.0012076
-0.00543916
0.00119054
-0.00654428
0.001166
-0.00713543
0.00113763
-0.0073469
0.00110758
-0.00732158
0.00107584
-0.00717757
0.00104221
-0.00699751
0.00100696
-0.00680987
0.000966304
-0.00662944
0.000913752
-0.00651402
0.000851999
-0.00647661
0.000799983
-0.00632686
0.000783945
-0.00569975
0.00081977
-0.004319
0.000903119
-0.00224138
0.00101484
0.000172113
0.00113265
0.00249611
0.00443881
0.000421711
0.0049922
0.000539111
0.00582373
0.000647031
0.00642576
0.000754523
0.00669672
0.000866312
0.00648576
0.000976455
0.00569235
0.00107134
0.00435499
0.00114114
0.00259173
0.00118589
0.000513396
0.00121008
-0.00170865
0.00121644
-0.00378353
0.00120738
-0.0054301
0.00118703
-0.00652392
0.00115997
-0.00710837
0.00112984
-0.00731677
0.00109871
-0.00729045
0.00106641
-0.00714527
0.00103252
-0.00696362
0.000997321
-0.00677467
0.000957305
-0.00658942
0.000905803
-0.00646252
0.000844668
-0.00641548
0.00079219
-0.00627439
0.000774794
-0.00568236
0.000809279
-0.00435348
0.000892193
-0.00232429
0.00100461
5.96951e-05
0.00112397
0.00237675
0.00433009
0.00042023
0.0048563
0.000541881
0.00570208
0.000654766
0.00631287
0.000766989
0.0065845
0.000882109
0.00637064
0.000993383
0.00558108
0.00108725
0.00426112
0.00115463
0.00252436
0.00119629
0.000471732
0.00121697
-0.00172933
0.00121952
-0.00378609
0.00120673
-0.0054173
0.00118317
-0.00650036
0.00115367
-0.00707888
0.00112185
-0.00728495
0.00108968
-0.00725827
0.00105688
-0.00711247
0.00102278
-0.00692952
0.000987642
-0.00673953
0.00094829
-0.00655007
0.000897902
-0.00641213
0.000837478
-0.00635505
0.000784601
-0.00622151
0.000765827
-0.00566358
0.000798847
-0.0043865
0.000881149
-0.00240659
0.000994109
-5.32645e-05
0.00111493
0.00225593
0.00421937
0.000419501
0.00471763
0.000545205
0.00557638
0.000662809
0.00619527
0.000779438
0.00646787
0.000897536
0.00625254
0.00100965
0.00546896
0.00110236
0.00416842
0.00116732
0.0024594
0.00120598
0.000433069
0.00122327
-0.00174661
0.00122211
-0.00378493
0.00120567
-0.00540086
0.00117898
-0.00647368
0.00114712
-0.00704701
0.00111367
-0.00725149
0.0010805
-0.00722511
0.00104724
-0.00707921
0.00101297
-0.00689525
0.000977919
-0.00670448
0.000939246
-0.0065114
0.000890031
-0.00636292
0.000830416
-0.00629544
0.000777208
-0.0061683
0.00075704
-0.00564342
0.00078848
-0.00441794
0.00087
-0.00248811
0.000983343
-0.000166607
0.00110552
0.00213375
0.00410669
0.000419582
0.00457646
0.000549102
0.00544686
0.000671144
0.00607323
0.000791835
0.00634718
0.000912553
0.00613182
0.00102524
0.00535628
0.00111664
0.00407702
0.0011792
0.00239684
0.00121496
0.000397302
0.00122896
-0.00176061
0.00122419
-0.00378016
0.00120419
-0.00538086
0.00117446
-0.00644395
0.00114031
-0.00701286
0.00110529
-0.00721647
0.00107117
-0.00719099
0.00103748
-0.00704553
0.00100308
-0.00686085
0.000968147
-0.00666955
0.000930163
-0.00647341
0.000882174
-0.00631493
0.000823463
-0.00623673
0.000769998
-0.00611484
0.000748432
-0.00562185
0.000778186
-0.0044477
0.000858752
-0.00256868
0.000972324
-0.000280179
0.00109576
0.00201031
0.00399211
0.000420529
0.0044331
0.000553588
0.0053138
0.000679756
0.00594706
0.000804145
0.00622279
0.000927125
0.00600884
0.0010401
0.0052433
0.00113008
0.00398704
0.00119026
0.00233665
0.00122324
0.000364328
0.00123406
-0.00177144
0.00122577
-0.00377186
0.00120229
-0.00535739
0.0011696
-0.00641125
0.00113324
-0.0069765
0.00109671
-0.00717994
0.00106168
-0.00715597
0.00102761
-0.00701146
0.000993123
-0.00682636
0.000958319
-0.00663475
0.00092103
-0.00643612
0.000874315
-0.00626822
0.000816605
-0.00617902
0.00076296
-0.00606119
0.000739999
-0.00559889
0.000767971
-0.00447567
0.000847414
-0.00264812
0.000961057
-0.000393822
0.00108565
0.00188572
0.00387568
0.000422393
0.00428788
0.000558677
0.00517751
0.000688628
0.00581711
0.000816337
0.00609508
0.000941218
0.00588396
0.00105422
0.0051303
0.00114266
0.0038986
0.00120051
0.0022788
0.00123081
0.000334032
0.00123857
-0.0017792
0.00122684
-0.00376013
0.00119998
-0.00533052
0.00116441
-0.00637568
0.00112591
-0.006938
0.00108793
-0.00714196
0.00105204
-0.00712008
0.00101762
-0.00697704
0.000983081
-0.00679182
0.00094843
-0.00660009
0.000911838
-0.00639953
0.000866437
-0.00622281
0.000809823
-0.0061224
0.000756083
-0.00600745
0.000731736
-0.00557454
0.00075784
-0.00450177
0.000836
-0.00272628
0.00094955
-0.000507372
0.00107518
0.00176009
0.00375746
0.00042522
0.0041412
0.000564379
0.00503836
0.000697742
0.00568374
0.000828381
0.00596444
0.000954804
0.00575754
0.00106759
0.00501751
0.0011544
0.00381179
0.00120995
0.00222324
0.00123769
0.000306297
0.00124249
-0.001784
0.00122741
-0.00374506
0.00119725
-0.00530036
0.00115888
-0.00633732
0.00111831
-0.00689743
0.00107895
-0.0071026
0.00104224
-0.00708337
0.0010075
-0.0069423
0.000972952
-0.00675727
0.000938474
-0.00656562
0.000902575
-0.00636363
0.000858523
-0.00617876
0.0008031
-0.00606698
0.000749353
-0.0059537
0.000723638
-0.00554883
0.000747798
-0.00452593
0.000824519
-0.002803
0.000937813
-0.000620665
0.00106436
0.00163354
0.00363752
0.000429049
0.00399346
0.000570699
0.00489671
0.000707081
0.00554736
0.000840246
0.00583127
0.000967856
0.00562993
0.00108017
0.00490519
0.00116526
0.0037267
0.0012186
0.00216991
0.00124388
0.000281012
0.00124583
-0.00178595
0.00122749
-0.00372672
0.0011941
-0.00526697
0.00115303
-0.00629624
0.00111046
-0.00685487
0.00106977
-0.00706191
0.00103228
-0.00704587
0.000997249
-0.00690727
0.000962728
-0.00672275
0.000928444
-0.00653133
0.000893233
-0.00632842
0.000850557
-0.00613609
0.000796417
-0.00601284
0.000742757
-0.00590004
0.000715699
-0.00552177
0.000737848
-0.00454808
0.000812985
-0.00287814
0.000925856
-0.000733537
0.0010532
0.0015062
0.00351592
0.000433907
0.0038451
0.000577636
0.00475298
0.000716623
0.00540838
0.000851907
0.00569599
0.000980352
0.00550149
0.00109197
0.00479357
0.00117528
0.0036434
0.00122645
0.00211874
0.00124941
0.000258049
0.0012486
-0.00178513
0.00122707
-0.00370519
0.00119054
-0.00523044
0.00114684
-0.00625254
0.00110236
-0.00681039
0.00106039
-0.00701995
0.00102215
-0.00700763
0.000986863
-0.00687198
0.000952403
-0.00668829
0.000918334
-0.00649726
0.000883803
-0.00629389
0.000842521
-0.0060948
0.000789755
-0.00596008
0.000736282
-0.00584657
0.000707913
-0.0054934
0.000727994
-0.00456816
0.00080141
-0.00295156
0.000913694
-0.000845821
0.00104171
0.00137819
0.00116488
0.00339275
0.00500089
0.000439812
0.00369657
0.000585186
0.0046076
0.000726347
0.00526721
0.000863338
0.005559
0.000992272
0.00537255
0.00110298
0.00468287
0.00118443
0.00356195
0.00123352
0.00206965
0.00125428
0.000237283
0.0012508
-0.00178165
0.00122616
-0.00368055
0.00118657
-0.00519085
0.00114032
-0.00620629
0.00109399
-0.00676405
0.00105081
-0.00697678
0.00101186
-0.00696868
0.000976337
-0.00683645
0.000941972
-0.00665393
0.000908139
-0.00646343
0.000874276
-0.00626003
0.0008344
-0.00605493
0.000783095
-0.00590877
0.000729915
-0.00579339
0.000700272
-0.00546376
0.000718238
-0.00458613
0.000789807
-0.00302313
0.00090134
-0.000957353
0.00102988
0.00124964
0.00115455
0.00326809
0.00489299
0.00044677
0.00354835
0.000593334
0.00446104
0.000736227
0.00512432
0.000874512
0.00542071
0.0010036
0.00524346
0.00111318
0.00457329
0.00119274
0.00348238
0.00123983
0.00202257
0.0012585
0.000218612
0.00125244
-0.00177558
0.00122475
-0.00365287
0.00118219
-0.00514829
0.00113347
-0.00615757
0.00108536
-0.00671594
0.00104102
-0.00693244
0.0010014
-0.00692906
0.000965668
-0.00680071
0.000931428
-0.00661969
0.000897853
-0.00642986
0.000864643
-0.00622682
0.000826179
-0.00601646
0.000776418
-0.00585901
0.00072364
-0.00574061
0.00069277
-0.00543289
0.000708579
-0.00460194
0.000778187
-0.00309273
0.000888809
-0.00106797
0.00101775
0.00112071
0.00114382
0.00314201
0.00478316
0.000454771
0.0034009
0.00060206
0.00431375
0.000746237
0.00498014
0.000885406
0.00528154
0.00101432
0.00511455
0.00112258
0.00446503
0.00120023
0.00340474
0.00124541
0.00197738
0.0012621
0.000201924
0.00125354
-0.00176702
0.00122286
-0.0036222
0.00117739
-0.00510281
0.0011263
-0.00610648
0.00107647
-0.00666612
0.00103103
-0.006887
0.000990777
-0.0068888
0.000954851
-0.00676479
0.000920764
-0.0065856
0.000887469
-0.00639656
0.000854897
-0.00619425
0.000817841
-0.00597941
0.000769702
-0.00581087
0.000717443
-0.00568835
0.0006854
-0.00540084
0.000699018
-0.00461555
0.000766559
-0.00316027
0.000876116
-0.00117753
0.00100531
0.000991516
0.0011327
0.00301462
0.00467144
0.000463794
0.0032547
0.000611338
0.00416621
0.000756347
0.00483514
0.000895997
0.00514189
0.00102442
0.00498612
0.00113119
0.00435827
0.00120689
0.00332903
0.00125027
0.001934
0.00126511
0.000187088
0.0012541
-0.00175601
0.00122049
-0.00358859
0.00117219
-0.00505451
0.00111879
-0.00605308
0.00106732
-0.00661465
0.00102083
-0.00684051
0.000979978
-0.00684795
0.000943881
-0.00672869
0.000909974
-0.00655169
0.000876981
-0.00636357
0.000845032
-0.0061623
0.000809372
-0.00594375
0.000762928
-0.00576443
0.000711309
-0.00563674
0.000678153
-0.00536769
0.000689553
-0.00462696
0.000754932
-0.00322565
0.000863279
-0.00128588
0.000992575
0.00086222
0.00112118
0.00288602
0.00455789
0.000473804
0.00062113
0.00401888
0.000766523
0.00468974
0.00090626
0.00500215
0.0010339
0.00485848
0.001139
0.00425316
0.00121278
0.00325526
0.00125446
0.00189232
0.00126756
0.00017399
0.00125413
-0.00174258
0.00121764
-0.0035521
0.00116658
-0.00500345
0.00111096
-0.00599746
0.00105792
-0.0065616
0.00101043
-0.00679302
0.000969004
-0.00680653
0.000932755
-0.00669244
0.000899052
-0.00651799
0.000866384
-0.0063309
0.000835041
-0.00613095
0.000800759
-0.00590947
0.000756075
-0.00571974
0.00070522
-0.00558588
0.000671024
-0.00533349
0.000680183
-0.00463611
0.000743313
-0.00328878
0.000850314
-0.00139288
0.000979569
0.000732965
0.00110928
0.0027563
0.00444257
0.000631397
0.00387224
0.000776734
0.00454441
0.000916175
0.00486271
0.00104274
0.00473192
0.00114604
0.00414986
0.0012179
0.0031834
0.00125803
0.00185219
0.00126945
0.000162571
0.00125365
-0.00172679
0.00121431
-0.00351276
0.00116056
-0.00494971
0.00110281
-0.00593971
0.00104825
-0.00650705
0.000999808
-0.00674457
0.000957854
-0.00676457
0.00092147
-0.00665606
0.000887991
-0.00648451
0.000855672
-0.00629858
0.000824918
-0.0061002
0.000791988
-0.00587654
0.000749123
-0.00567688
0.000699162
-0.00553592
0.000664003
-0.00529833
0.000670904
-0.00464301
0.000731709
-0.00334959
0.00083724
-0.00149841
0.000966308
0.000603897
0.00109702
0.00262559
0.00432554
0.000642096
0.00372675
0.000786943
0.00439956
0.000925722
0.00472393
0.00105095
0.00460669
0.00115232
0.00404848
0.00122232
0.0031134
0.00126101
0.0018135
0.00127083
0.000152754
0.00125267
-0.00170863
0.00121051
-0.00347059
0.00115414
-0.00489334
0.00109433
-0.0058799
0.00103833
-0.00645105
0.00098898
-0.00669522
0.000946525
-0.00672212
0.000910021
-0.00661955
0.000876786
-0.00645127
0.000844838
-0.00626663
0.000814657
-0.00607002
0.000783048
-0.00584493
0.00074205
-0.00563588
0.000693115
-0.00548698