/*--------------------------------*- C++ -*----------------------------------*\
  =========                 |
  \\      /  F ield         | OpenFOAM: The Open Source CFD Toolbox
   \\    /   O peration     | Website:  https://openfoam.org
    \\  /    A nd           | Version:  7
     \\/     M anipulation  |
\*---------------------------------------------------------------------------*/
FoamFile
{
    version     2.0;
    format      ascii;
    class       volVectorField;
    location    "280";
    object      U;
}
// * * * * * * * * * * * * * * * * * * * * * * * * * * * * * * * * * * * * * //

dimensions      [0 1 -1 0 0 0 0];

internalField   nonuniform List<vector> 
7156
(
(0.309242 0.653821 3.34389e-22)
(0.346847 0.68752 -3.98612e-23)
(0.368749 0.698572 -2.571e-22)
(0.373202 0.699228 -1.29577e-23)
(0.360948 0.697139 2.47618e-22)
(0.339318 0.687675 2.35791e-22)
(0.325237 0.65035 -1.87868e-22)
(0.338263 0.560135 -1.88117e-22)
(0.384314 0.409404 -1.40981e-22)
(0.453217 0.214666 -1.9312e-23)
(0.532036 0.00383487 1.86204e-22)
(0.611167 -0.194949 -8.4542e-23)
(0.683048 -0.358902 -2.08573e-22)
(0.741771 -0.475894 2.21465e-22)
(0.784412 -0.5462 1.02297e-22)
(0.811303 -0.579049 5.94523e-23)
(0.824405 -0.587317 3.04079e-23)
(0.82657 -0.582115 -1.45993e-22)
(0.821298 -0.570555 4.80295e-24)
(0.809943 -0.55956 6.42434e-23)
(0.790088 -0.557327 1.50729e-22)
(0.759537 -0.563883 -1.78635e-22)
(0.72237 -0.56043 6.22778e-23)
(0.690093 -0.514874 -5.96584e-23)
(0.674624 -0.404436 1.95942e-22)
(0.680745 -0.234334 1.1003e-23)
(0.706187 -0.0350581 -2.81539e-23)
(0.744675 0.154865 1.19147e-22)
(0.7878 0.305964 2.45007e-23)
(0.827085 0.407233 8.39081e-23)
(0.290849 0.646794 -2.51806e-22)
(0.33069 0.6828 -1.23256e-21)
(0.354665 0.696428 1.10653e-21)
(0.360907 0.699623 -6.15383e-22)
(0.350625 0.699373 -1.99119e-22)
(0.332086 0.689957 -4.25732e-22)
(0.32289 0.650211 1.39749e-21)
(0.341817 0.556026 -9.41406e-22)
(0.392893 0.401805 -1.0943e-22)
(0.464989 0.205174 -3.59728e-22)
(0.545324 -0.0061136 7.72183e-22)
(0.624676 -0.204315 5.86437e-22)
(0.695775 -0.366891 -1.17698e-21)
(0.752983 -0.482005 -8.40492e-22)
(0.793697 -0.550321 9.69416e-22)
(0.818593 -0.581364 -3.36702e-22)
(0.82989 -0.588154 -1.07619e-22)
(0.830479 -0.581877 2.23446e-22)
(0.823849 -0.569549 4.70194e-22)
(0.811436 -0.557741 -4.41617e-22)
(0.790844 -0.554452 2.55684e-22)
(0.759682 -0.560087 1.8754e-23)
(0.721689 -0.556608 -2.33688e-22)
(0.688182 -0.51232 1.82614e-22)
(0.67132 -0.404028 -3.61703e-22)
(0.676267 -0.23614 2.84883e-22)
(0.700961 -0.0385492 -8.75894e-23)
(0.739197 0.150514 -5.8693e-22)
(0.782556 0.301655 1.08926e-22)
(0.822444 0.403695 2.78418e-22)
(0.272831 0.63934 1.75939e-21)
(0.314807 0.677716 1.50392e-21)
(0.34078 0.693987 -1.34068e-21)
(0.348816 0.69974 -7.91933e-22)
(0.340632 0.701249 7.15406e-23)
(0.325412 0.691726 1.21782e-21)
(0.321302 0.649467 -7.48034e-22)
(0.34614 0.551437 1.40517e-21)
(0.402088 0.394011 -2.1745e-21)
(0.477202 0.195767 2.84339e-21)
(0.55891 -0.0157946 -2.76712e-21)
(0.63838 -0.213323 1.41689e-21)
(0.708621 -0.374495 1.58817e-21)
(0.764261 -0.487749 -1.09181e-21)
(0.803015 -0.554122 -5.87665e-23)
(0.825903 -0.583424 5.4719e-22)
(0.835397 -0.588794 -7.90038e-22)
(0.834428 -0.581487 -3.78038e-22)
(0.826458 -0.568426 9.77416e-23)
(0.813003 -0.555837 3.87498e-22)
(0.791697 -0.551506 -4.3227e-22)
(0.759959 -0.556216 2.58018e-22)
(0.72118 -0.552711 -3.6268e-22)
(0.686469 -0.509729 2.4576e-22)
(0.668211 -0.403664 2.98246e-22)
(0.671964 -0.238078 -2.95397e-22)
(0.695883 -0.0422285 -4.26248e-22)
(0.73384 0.145959 -3.85343e-22)
(0.777404 0.297155 1.16757e-22)
(0.817869 0.399993 -5.04825e-22)
(0.255203 0.631467 3.99504e-22)
(0.299208 0.672272 1.73179e-21)
(0.327105 0.691244 -3.57724e-22)
(0.336947 0.699561 1.96446e-21)
(0.330998 0.702738 -1.02894e-21)
(0.319321 0.692957 7.38661e-22)
(0.320474 0.648121 5.33191e-23)
(0.351204 0.546391 -1.55523e-21)
(0.411865 0.386055 1.42864e-21)
(0.489822 0.186468 -1.06747e-21)
(0.572765 -0.0251915 6.30679e-22)
(0.652258 -0.221961 -2.40242e-21)
(0.721571 -0.38171 -5.9095e-22)
(0.775595 -0.493127 1.0343e-21)
(0.812362 -0.557608 1.5465e-21)
(0.83323 -0.585233 -6.17351e-22)
(0.840927 -0.589243 -3.20154e-22)
(0.838418 -0.580949 4.79464e-22)
(0.829126 -0.567192 -1.36977e-22)
(0.814647 -0.553853 -1.56786e-23)
(0.792648 -0.548496 6.81982e-22)
(0.760368 -0.552277 -4.62465e-22)
(0.720846 -0.548742 1.21116e-22)
(0.684961 -0.507097 -7.24442e-22)
(0.665303 -0.403337 3.95439e-22)
(0.667841 -0.240139 1.2888e-21)
(0.690958 -0.0460888 -1.01187e-21)
(0.728607 0.141205 8.46001e-22)
(0.772344 0.292468 -4.35467e-22)
(0.81336 0.396129 -7.54258e-22)
(0.237978 0.623184 3.38085e-21)
(0.283901 0.666473 2.65578e-21)
(0.313651 0.688193 -5.7087e-21)
(0.32532 0.699066 2.42539e-21)
(0.321748 0.703812 -1.96285e-21)
(0.313833 0.693631 1.41198e-21)
(0.320404 0.646174 -1.0078e-21)
(0.356983 0.540916 -1.50736e-21)
(0.422187 0.377967 3.33494e-21)
(0.502813 0.177304 -4.60537e-22)
(0.58686 -0.0342891 1.85469e-21)
(0.666288 -0.230223 1.92566e-21)
(0.734612 -0.388533 -1.73974e-21)
(0.786975 -0.498139 6.38615e-22)
(0.821731 -0.560781 -5.36192e-23)
(0.840573 -0.586796 -4.2566e-22)
(0.84648 -0.589506 9.0039e-22)
(0.84245 -0.580269 1.02956e-22)
(0.831857 -0.56585 -1.69376e-22)
(0.816368 -0.551794 -4.29749e-22)
(0.793699 -0.545428 -1.95085e-22)
(0.760911 -0.548276 -1.4283e-22)
(0.720688 -0.544703 -1.33237e-21)
(0.68366 -0.504423 -3.59508e-22)
(0.662604 -0.403038 7.81758e-22)
(0.663904 -0.242315 -1.73193e-22)
(0.686191 -0.0501228 -1.22252e-21)
(0.7235 0.136257 4.26911e-22)
(0.767378 0.287595 -1.55397e-21)
(0.808916 0.392103 -2.05509e-23)
(0.221167 0.614502 3.25265e-21)
(0.268896 0.660322 -1.79015e-21)
(0.300431 0.684826 -1.82148e-21)
(0.313957 0.698235 -1.0889e-21)
(0.31291 0.704445 -2.2925e-21)
(0.308966 0.693729 -2.66367e-22)
(0.321084 0.643636 4.5292e-21)
(0.363446 0.535039 -1.92958e-22)
(0.433019 0.369778 -1.02446e-21)
(0.516141 0.168296 -8.06206e-22)
(0.601168 -0.043074 1.59279e-21)
(0.680451 -0.238102 -6.37442e-21)
(0.747728 -0.394962 1.41099e-21)
(0.798392 -0.502786 1.88822e-21)
(0.831119 -0.563645 -1.23168e-21)
(0.84793 -0.588116 2.01426e-21)
(0.852055 -0.589588 8.28193e-22)
(0.846524 -0.579451 -1.68792e-22)
(0.83465 -0.564406 -4.63337e-22)
(0.818168 -0.549665 -7.39252e-22)
(0.79485 -0.542311 6.13474e-22)
(0.761587 -0.54422 -3.67114e-22)
(0.720709 -0.5406 2.48067e-21)
(0.682572 -0.501702 1.46286e-21)
(0.660118 -0.402761 -2.13371e-21)
(0.660158 -0.244597 3.3712e-21)
(0.681585 -0.0543228 -1.94439e-21)
(0.718522 0.13112 5.57892e-22)
(0.762507 0.28254 2.86097e-21)
(0.804538 0.387916 3.50834e-22)
(0.20478 0.605431 2.63205e-21)
(0.254201 0.653822 3.51379e-21)
(0.287457 0.681137 -5.50534e-22)
(0.302879 0.697048 5.24685e-23)
(0.304509 0.704612 2.11579e-21)
(0.304736 0.693239 -8.27217e-22)
(0.322503 0.640515 -2.61621e-21)
(0.370561 0.528788 1.30233e-22)
(0.444321 0.361517 -1.54336e-21)
(0.529769 0.159465 -2.18896e-21)
(0.61566 -0.0515341 4.52279e-21)
(0.694725 -0.245592 -4.73979e-22)
(0.760906 -0.400996 -3.95723e-22)
(0.809837 -0.50707 -1.12538e-22)
(0.84052 -0.566203 -1.12476e-21)
(0.855299 -0.589198 -4.55788e-21)
(0.857651 -0.589494 1.754e-21)
(0.850641 -0.5785 -1.22242e-21)
(0.837507 -0.562863 1.93254e-21)
(0.820049 -0.547472 -6.4866e-22)
(0.796102 -0.539149 3.75742e-22)
(0.762398 -0.540116 -2.05691e-22)
(0.720908 -0.536434 -9.58931e-22)
(0.681698 -0.498933 -2.22096e-21)
(0.65785 -0.402498 -1.16368e-21)
(0.656609 -0.246975 3.81299e-21)
(0.677145 -0.0586809 -7.83064e-22)
(0.713675 0.125799 -1.7522e-21)
(0.757731 0.277307 -2.65332e-22)
(0.800225 0.383568 -2.72941e-22)
(0.188826 0.595981 -2.65045e-21)
(0.239824 0.646976 2.02975e-21)
(0.274744 0.677115 1.20501e-21)
(0.292112 0.695486 -6.74285e-21)
(0.29657 0.70429 4.49462e-21)
(0.301156 0.692148 -2.24519e-21)
(0.324647 0.636824 -1.42349e-21)
(0.378295 0.522192 9.7523e-22)
(0.456055 0.353213 2.66288e-21)
(0.543662 0.150831 4.34058e-21)
(0.630307 -0.0596592 -1.29907e-21)
(0.70909 -0.252689 -2.15584e-21)
(0.774133 -0.406633 -2.84108e-21)
(0.821301 -0.510993 -1.97356e-21)
(0.849928 -0.568458 2.67308e-21)
(0.862676 -0.590046 2.38708e-21)
(0.863268 -0.589228 4.99197e-22)
(0.854801 -0.577422 -2.29229e-21)
(0.840429 -0.561226 2.17144e-22)
(0.82201 -0.54522 8.24786e-22)
(0.797455 -0.535949 -5.50982e-22)
(0.763342 -0.53597 -4.20202e-22)
(0.721286 -0.532209 1.0867e-21)
(0.681042 -0.496113 2.23436e-21)
(0.655805 -0.402241 -1.51782e-21)
(0.65326 -0.249441 6.97042e-23)
(0.672874 -0.0631888 -2.42643e-22)
(0.708961 0.120302 3.13305e-21)
(0.753051 0.271897 -4.63679e-22)
(0.795978 0.37906 -1.25144e-21)
(0.173311 0.586162 -3.60668e-21)
(0.225777 0.639787 -4.88042e-21)
(0.262311 0.672752 1.63781e-21)
(0.281679 0.693527 -1.25298e-21)
(0.28912 0.703457 6.62963e-22)
(0.298236 0.690449 6.26799e-21)
(0.327501 0.63258 -3.84751e-21)
(0.386614 0.515281 2.05239e-21)
(0.468181 0.344891 -3.13706e-21)
(0.557786 0.14241 1.78684e-22)
(0.645082 -0.0674405 3.7313e-21)
(0.723527 -0.25939 -4.04773e-21)
(0.787393 -0.411874 2.45259e-21)
(0.832775 -0.514558 3.49746e-21)
(0.859338 -0.570415 2.33146e-22)
(0.870061 -0.590666 -1.47055e-21)
(0.868905 -0.588797 -1.00804e-21)
(0.859004 -0.576222 -3.53537e-22)
(0.843418 -0.559499 1.27119e-21)
(0.824052 -0.542912 -9.56469e-22)
(0.798908 -0.532719 -7.50494e-22)
(0.764419 -0.53179 -6.61645e-22)
(0.721843 -0.527931 -1.08226e-21)
(0.680605 -0.49324 -6.93715e-22)
(0.653988 -0.401981 1.46242e-21)
(0.650117 -0.251984 -3.11404e-21)
(0.668775 -0.0678381 1.90965e-21)
(0.704382 0.114633 -1.27693e-21)
(0.748468 0.266316 6.6082e-22)
(0.791797 0.374394 3.43542e-21)
(0.158245 0.575987 -4.7672e-21)
(0.212069 0.632257 -1.03934e-21)
(0.250175 0.668039 1.44958e-21)
(0.271607 0.691154 -6.38981e-21)
(0.282182 0.702093 1.10239e-21)
(0.295983 0.688139 -4.97122e-21)
(0.331043 0.627799 6.15384e-21)
(0.395481 0.508083 9.21525e-22)
(0.480661 0.336578 -1.3851e-20)
(0.572104 0.134219 1.7439e-20)
(0.659959 -0.0748707 -1.92265e-20)
(0.738016 -0.265692 4.39672e-21)
(0.800675 -0.416719 -2.99665e-21)
(0.844249 -0.517767 7.8396e-21)
(0.868746 -0.572078 -4.85062e-21)
(0.877452 -0.591062 -6.86213e-23)
(0.874562 -0.588205 1.09802e-21)
(0.863249 -0.574903 6.65744e-23)
(0.846472 -0.557687 7.59042e-22)
(0.826177 -0.540554 1.62655e-21)
(0.800462 -0.529463 -6.80304e-22)
(0.765628 -0.527583 2.63851e-22)
(0.722576 -0.523602 -7.72154e-22)
(0.680388 -0.490313 1.54891e-21)
(0.6524 -0.401711 -1.20962e-21)
(0.647182 -0.254593 3.17262e-21)
(0.664851 -0.0726199 -3.0659e-21)
(0.699939 0.1088 -6.45074e-22)
(0.743982 0.260565 -9.34166e-22)
(0.787681 0.369569 -6.78329e-22)
(0.143634 0.565465 3.97013e-21)
(0.198713 0.624387 -7.07687e-21)
(0.238358 0.662965 -6.73122e-22)
(0.261923 0.688346 4.80048e-21)
(0.27578 0.700183 1.61648e-21)
(0.294403 0.685217 2.99478e-21)
(0.335253 0.622503 -2.25468e-21)
(0.404859 0.500627 3.71482e-21)
(0.493455 0.328297 7.07928e-21)
(0.586582 0.126271 -1.08297e-20)
(0.674911 -0.0819441 -5.44713e-21)
(0.75254 -0.271595 2.87769e-21)
(0.813965 -0.421171 6.16947e-21)
(0.855717 -0.520625 -2.08515e-21)
(0.878146 -0.573452 -2.41934e-21)
(0.884845 -0.591238 1.97087e-21)
(0.880237 -0.587457 -1.9246e-21)
(0.867538 -0.573472 -5.21171e-22)
(0.849594 -0.555794 -1.35759e-21)
(0.828384 -0.53815 -7.65e-22)
(0.802116 -0.526189 -5.53556e-22)
(0.766968 -0.523355 6.00637e-21)
(0.723486 -0.519228 1.43122e-21)
(0.680392 -0.487328 -5.864e-21)
(0.651047 -0.401423 2.00454e-21)
(0.64446 -0.25726 -2.25144e-21)
(0.661104 -0.0775251 6.45993e-22)
(0.695634 0.102808 1.64016e-21)
(0.739594 0.254649 2.44286e-21)
(0.783629 0.364588 -1.02362e-21)
(0.129488 0.554607 -5.68896e-21)
(0.185725 0.616178 1.30092e-20)
(0.226883 0.657519 -1.08386e-20)
(0.252656 0.685087 -1.73546e-21)
(0.269937 0.697712 -1.62098e-21)
(0.293497 0.681686 3.16293e-21)
(0.340107 0.616712 3.97278e-21)
(0.414711 0.492942 -7.82406e-21)
(0.506523 0.320071 3.51445e-21)
(0.601187 0.118579 1.13338e-20)
(0.689913 -0.0886563 -7.04107e-21)
(0.767079 -0.277098 8.34049e-21)
(0.82725 -0.425231 -6.66243e-21)
(0.867168 -0.523133 -1.76944e-21)
(0.887533 -0.574541 -4.971e-21)
(0.892239 -0.5912 2.92336e-21)
(0.88593 -0.586558 2.81885e-21)
(0.871869 -0.571933 -4.48682e-22)
(0.852783 -0.553824 4.00871e-21)
(0.830674 -0.535704 4.15132e-22)
(0.803868 -0.522902 -1.5128e-21)
(0.768436 -0.519113 -3.92392e-21)
(0.724569 -0.514812 2.89931e-21)
(0.680617 -0.484286 -6.61347e-22)
(0.649929 -0.401109 2.93981e-22)
(0.641953 -0.259972 3.50008e-22)
(0.657537 -0.0825442 1.40703e-21)
(0.691468 0.0966648 -2.1212e-21)
(0.735303 0.248572 -1.8524e-21)
(0.779642 0.359451 -9.60315e-22)
(0.115818 0.543423 6.49154e-21)
(0.173122 0.60763 -6.31467e-21)
(0.215777 0.651692 5.19717e-21)
(0.243836 0.681359 -4.58551e-22)
(0.264674 0.694668 1.88625e-21)
(0.293264 0.67755 -5.4661e-21)
(0.345579 0.610451 2.82286e-21)
(0.424999 0.485057 2.15965e-21)
(0.519827 0.311921 -5.69803e-21)
(0.615885 0.111154 4.96482e-21)
(0.70494 -0.0950046 -1.14773e-20)
(0.781617 -0.282203 5.80076e-21)
(0.840519 -0.428902 3.59277e-22)
(0.878594 -0.525297 -7.65364e-22)
(0.896901 -0.57535 4.09109e-21)
(0.899631 -0.590952 -3.4418e-21)
(0.891641 -0.585513 3.19531e-21)
(0.876241 -0.570291 -6.18066e-21)
(0.856039 -0.55178 4.40613e-21)
(0.833046 -0.53322 -3.67948e-21)
(0.805719 -0.519608 3.38912e-21)
(0.770032 -0.514864 -1.53634e-21)
(0.725823 -0.510361 -2.8357e-21)
(0.68106 -0.481185 2.23043e-21)
(0.64905 -0.400761 2.96427e-21)
(0.639664 -0.26272 -3.8719e-21)
(0.654152 -0.0876674 7.04349e-22)
(0.687442 0.090377 1.7329e-21)
(0.731111 0.242337 -2.69266e-21)
(0.775719 0.354159 2.45853e-22)
(0.102638 0.531923 1.61518e-21)
(0.160925 0.598742 -9.78153e-22)
(0.205069 0.645472 1.40151e-22)
(0.235492 0.677149 -7.57623e-21)
(0.260011 0.691044 8.31084e-21)
(0.293703 0.672819 -9.19814e-21)
(0.351642 0.603745 2.93407e-21)
(0.435685 0.476999 3.65217e-21)
(0.533327 0.303866 -2.19416e-21)
(0.630646 0.104005 -2.08076e-22)
(0.71997 -0.100987 1.24483e-21)
(0.796137 -0.286911 -6.56075e-21)
(0.85376 -0.432187 5.17862e-21)
(0.889989 -0.527121 -6.28206e-21)
(0.906247 -0.575885 8.64766e-21)
(0.907019 -0.5905 3.83411e-21)
(0.897367 -0.584327 2.01867e-21)
(0.880654 -0.568551 -4.97415e-21)
(0.859362 -0.549668 3.98469e-22)
(0.835501 -0.530703 1.30411e-21)
(0.807666 -0.516312 1.65416e-22)
(0.771752 -0.510616 3.02057e-21)
(0.727246 -0.505878 -1.10056e-21)
(0.681722 -0.478024 -6.07477e-22)
(0.648411 -0.400372 7.11582e-22)
(0.637597 -0.265491 2.1821e-22)
(0.650951 -0.0928845 2.71177e-21)
(0.683557 0.0839519 -1.59075e-21)
(0.727018 0.235949 1.65701e-21)
(0.77186 0.348715 3.12507e-21)
(0.0899665 0.520117 -3.86974e-21)
(0.14916 0.589514 1.59876e-21)
(0.19479 0.63885 -6.88565e-22)
(0.227658 0.672442 1.13346e-20)
(0.255969 0.686833 -3.44269e-22)
(0.294807 0.667505 6.17256e-22)
(0.358269 0.596618 -9.79621e-21)
(0.446731 0.468794 2.45288e-21)
(0.546987 0.295924 5.11824e-21)
(0.645437 0.0971383 -1.75318e-21)
(0.73498 -0.106604 -1.92151e-21)
(0.810624 -0.291225 -1.56856e-21)
(0.86696 -0.43509 1.21503e-20)
(0.901342 -0.52861 -1.60363e-21)
(0.915564 -0.57615 2.06047e-21)
(0.914401 -0.589848 -1.73256e-21)
(0.903109 -0.583004 -1.85671e-21)
(0.885107 -0.566718 2.76901e-21)
(0.862751 -0.54749 -1.23326e-21)
(0.838037 -0.528155 -4.64656e-21)
(0.809708 -0.51302 3.54634e-21)
(0.773595 -0.506374 -7.72023e-22)
(0.728834 -0.50137 5.88997e-22)
(0.682598 -0.474804 -8.633e-22)
(0.648012 -0.399934 3.57648e-21)
(0.635754 -0.268276 -3.85105e-21)
(0.647935 -0.0981854 -5.90839e-23)
(0.679813 0.0773968 -8.87753e-23)
(0.723022 0.229411 -4.74551e-22)
(0.768064 0.343118 6.31918e-22)
(0.0778254 0.508016 2.53507e-21)
(0.137856 0.579944 4.83158e-21)
(0.184975 0.631816 -1.1168e-21)
(0.220364 0.667227 3.21293e-22)
(0.252564 0.682033 -2.83295e-21)
(0.29657 0.661622 -3.7174e-21)
(0.365431 0.589099 6.69825e-21)
(0.458099 0.46047 1.66925e-21)
(0.56077 0.288112 -2.81815e-21)
(0.660231 0.0905603 -4.49784e-21)
(0.74995 -0.111856 -5.84754e-22)
(0.825061 -0.295149 2.70937e-21)
(0.880108 -0.437616 -6.16077e-21)
(0.912648 -0.529768 -4.09596e-21)
(0.924848 -0.576151 -2.53104e-21)
(0.921774 -0.589002 -3.47873e-21)
(0.908864 -0.58155 -9.10872e-22)
(0.8896 -0.564796 2.29091e-21)
(0.866207 -0.545251 -8.44566e-22)
(0.840655 -0.52558 2.58696e-22)
(0.811843 -0.509736 9.98558e-22)
(0.775556 -0.502146 -2.24606e-21)
(0.730583 -0.496842 -1.87028e-21)
(0.683687 -0.471524 1.13893e-21)
(0.647855 -0.39944 -2.90565e-21)
(0.634136 -0.271063 -1.77551e-21)
(0.645105 -0.10356 3.96064e-21)
(0.676212 0.0707193 1.47763e-21)
(0.719125 0.222728 -2.31982e-21)
(0.764331 0.337372 3.57121e-22)
(0.0662437 0.495629 6.49446e-21)
(0.127047 0.570032 -3.80782e-21)
(0.175663 0.624361 1.7395e-22)
(0.213644 0.661496 -6.68857e-21)
(0.249814 0.676646 1.05761e-20)
(0.298982 0.655187 -1.04211e-20)
(0.373097 0.581214 5.92978e-21)
(0.469751 0.45205 -5.0379e-22)
(0.57464 0.280445 6.60696e-21)
(0.675 0.0842748 -1.97895e-20)
(0.76486 -0.116746 1.29425e-20)
(0.839435 -0.298687 -5.50759e-21)
(0.893195 -0.439768 1.5582e-20)
(0.923897 -0.530601 2.43831e-21)
(0.934095 -0.575893 3.41442e-23)
(0.929135 -0.587966 -1.88207e-21)
(0.914632 -0.579967 -4.70446e-21)
(0.89413 -0.562789 5.85767e-21)
(0.869728 -0.542954 -1.74129e-21)
(0.843354 -0.522981 8.29965e-22)
(0.814069 -0.506466 -1.0363e-21)
(0.777634 -0.497938 -5.70747e-23)
(0.73249 -0.492298 2.48795e-21)
(0.684984 -0.468185 -2.16812e-21)
(0.647938 -0.398884 2.3369e-21)
(0.632745 -0.273841 -2.75533e-22)
(0.642464 -0.108996 -9.78161e-22)
(0.672753 0.0639274 3.07623e-21)
(0.715327 0.215905 -1.49279e-21)
(0.76066 0.331478 5.22518e-23)
(0.0552565 0.482966 6.05437e-21)
(0.116772 0.559776 -5.00543e-21)
(0.166893 0.616479 -1.01865e-21)
(0.207533 0.655241 3.98775e-22)
(0.247734 0.670675 1.07324e-22)
(0.302034 0.64822 5.03944e-22)
(0.381238 0.572991 6.52358e-23)
(0.481651 0.44356 1.4735e-20)
(0.588564 0.272934 4.91056e-22)
(0.689718 0.0782842 -2.62111e-21)
(0.779692 -0.121277 1.35513e-21)
(0.853732 -0.301844 -7.8625e-21)
(0.906208 -0.441552 -3.33853e-21)
(0.935083 -0.531113 2.40498e-21)
(0.943299 -0.575382 -3.15028e-21)
(0.936483 -0.586745 -3.28875e-21)
(0.920412 -0.578262 3.98027e-21)
(0.898697 -0.560703 -9.49827e-22)
(0.873313 -0.540604 -1.94778e-21)
(0.846134 -0.520361 2.96631e-21)
(0.816385 -0.503214 -1.14071e-21)
(0.779824 -0.493756 1.22822e-21)
(0.73455 -0.487746 -1.77239e-21)
(0.686486 -0.464788 7.03785e-22)
(0.648261 -0.398259 1.51298e-21)
(0.631584 -0.276598 -3.18151e-21)
(0.640013 -0.114484 -3.65741e-22)
(0.669438 0.0570292 2.93835e-21)
(0.711627 0.208946 9.61794e-22)
(0.75705 0.325438 -9.08473e-22)
(0.0449064 0.470038 -1.08577e-21)
(0.107075 0.549177 5.01104e-21)
(0.158711 0.608164 -5.84403e-21)
(0.202064 0.64846 6.58046e-21)
(0.246339 0.664128 1.50665e-20)
(0.305712 0.640742 -9.88527e-21)
(0.389825 0.56446 -1.43977e-21)
(0.493764 0.435022 -3.67383e-21)
(0.602508 0.265593 4.67866e-21)
(0.70436 0.0725899 7.79355e-21)
(0.794429 -0.125452 -2.96007e-21)
(0.86794 -0.304625 -3.2114e-21)
(0.919139 -0.442974 2.58579e-21)
(0.946198 -0.531311 -3.69967e-21)
(0.952456 -0.574624 -3.18408e-21)
(0.943815 -0.585344 3.02279e-21)
(0.926202 -0.576438 2.3549e-21)
(0.903299 -0.558541 -8.00117e-22)
(0.876962 -0.538203 -2.93079e-21)
(0.848993 -0.517722 1.77469e-21)
(0.818789 -0.499983 -4.63537e-22)
(0.782123 -0.489607 -2.68921e-21)
(0.736759 -0.483191 -5.00889e-22)
(0.688188 -0.461335 -1.01286e-21)
(0.648822 -0.39756 2.92067e-22)
(0.630653 -0.279323 2.61594e-21)
(0.637752 -0.120012 1.03224e-21)
(0.666267 0.0500328 -7.8984e-21)
(0.708026 0.201856 5.67117e-21)
(0.753502 0.319254 -2.62621e-21)
(0.0352439 0.456856 5.75992e-21)
(0.0980073 0.538234 8.64449e-21)
(0.151162 0.599412 -1.57835e-21)
(0.19727 0.641151 -9.36592e-21)
(0.245639 0.657014 1.86766e-20)
(0.310005 0.632776 -1.13041e-20)
(0.398828 0.555648 1.29077e-20)
(0.506054 0.426459 -8.60354e-21)
(0.616443 0.258432 -9.80157e-21)
(0.718904 0.0671924 -9.1214e-21)
(0.809056 -0.129277 3.67809e-21)
(0.882046 -0.307036 -3.83395e-21)
(0.931977 -0.444039 1.4729e-21)
(0.957236 -0.5312 9.32936e-21)
(0.961561 -0.573624 -2.43201e-21)
(0.951128 -0.583769 7.11564e-22)
(0.932001 -0.5745 -1.27569e-21)
(0.907935 -0.556308 2.19229e-21)
(0.880672 -0.535755 -1.6005e-22)
(0.851931 -0.515069 -1.25059e-21)
(0.821278 -0.496778 -1.81977e-21)
(0.784527 -0.485498 1.44218e-21)
(0.739113 -0.478639 -5.37156e-23)
(0.690084 -0.457827 4.55204e-21)
(0.649618 -0.396781 -3.29017e-21)
(0.629954 -0.282006 2.76914e-22)
(0.635683 -0.125569 3.40376e-21)
(0.663239 0.042947 -3.74994e-21)
(0.704523 0.194641 1.44508e-21)
(0.750014 0.312928 3.66519e-21)
(0.0263278 0.443433 7.08792e-21)
(0.0896225 0.526951 -1.49333e-20)
(0.144294 0.590221 -9.55777e-21)
(0.193188 0.633315 1.48562e-20)
(0.245647 0.649348 8.48048e-21)
(0.314897 0.624349 -7.29852e-21)
(0.408216 0.546584 -1.40739e-21)
(0.518488 0.417891 1.06676e-20)
(0.630339 0.251458 -2.36865e-20)
(0.733331 0.0620894 2.68943e-20)
(0.82356 -0.132758 -8.18578e-21)
(0.89604 -0.309084 4.67657e-21)
(0.944713 -0.444754 -1.7357e-20)
(0.968189 -0.530787 9.22412e-21)
(0.970609 -0.572388 -5.1321e-21)
(0.95842 -0.582024 1.31588e-21)
(0.937809 -0.572451 5.99581e-21)
(0.912604 -0.554008 -9.27094e-22)
(0.884443 -0.533265 3.34187e-21)
(0.854947 -0.512401 -4.9857e-22)
(0.82385 -0.493602 -1.69469e-21)
(0.787032 -0.481433 2.21639e-22)
(0.741606 -0.474097 7.92895e-22)
(0.692171 -0.454266 -2.59722e-21)
(0.650647 -0.395917 3.73914e-22)
(0.629486 -0.284635 1.23168e-21)
(0.633808 -0.131143 2.07601e-21)
(0.660356 0.0357805 1.82871e-21)
(0.701118 0.187304 -1.18409e-21)
(0.746586 0.306462 8.83253e-22)
(0.0182255 0.429784 -1.46519e-20)
(0.0819809 0.515332 1.82198e-21)
(0.13816 0.580592 7.45553e-21)
(0.189851 0.624959 -9.67952e-21)
(0.246371 0.641145 5.2941e-21)
(0.320374 0.615488 1.04443e-20)
(0.417961 0.537297 -1.37374e-20)
(0.531034 0.409338 -1.0141e-21)
(0.644169 0.244679 -2.50708e-21)
(0.747621 0.0572773 1.41038e-20)
(0.837927 -0.135903 -1.65359e-20)
(0.909911 -0.310775 6.132e-21)
(0.957338 -0.445124 1.81531e-20)
(0.97905 -0.530076 -7.31187e-21)
(0.979597 -0.570921 -1.70118e-20)
(0.965687 -0.580115 3.50578e-21)
(0.943623 -0.570296 9.3105e-21)
(0.917303 -0.551645 -2.71093e-22)
(0.888273 -0.530735 -1.4608e-21)
(0.85804 -0.509723 -2.41306e-21)
(0.826503 -0.490458 2.63698e-21)
(0.789634 -0.477419 -3.74094e-21)
(0.744233 -0.469569 1.49149e-21)
(0.69444 -0.450656 2.38975e-21)
(0.651905 -0.394964 -3.56141e-21)
(0.629252 -0.2872 3.33613e-21)
(0.632126 -0.136722 1.27226e-21)
(0.657618 0.0285423 -1.67714e-21)
(0.697812 0.179853 2.2772e-21)
(0.743217 0.29986 -4.07379e-21)
(0.0751474 0.503384 7.58383e-21)
(0.132812 0.570529 -1.66849e-20)
(0.187291 0.616091 1.27667e-20)
(0.247821 0.632424 -1.19853e-20)
(0.326419 0.60622 1.75617e-22)
(0.428034 0.527815 -4.28778e-21)
(0.543661 0.400819 8.87683e-21)
(0.65791 0.238101 1.22454e-20)
(0.76176 0.0527541 -4.0689e-20)
(0.852148 -0.138717 3.0596e-21)
(0.92365 -0.312117 3.68355e-20)
(0.969843 -0.445156 -2.3561e-20)
(0.989814 -0.529075 6.36468e-21)
(0.988519 -0.569231 7.73664e-21)
(0.972928 -0.578046 -5.16681e-21)
(0.949442 -0.568038 -2.2224e-21)
(0.922032 -0.549222 2.01806e-21)
(0.892159 -0.528169 1.26268e-21)
(0.861208 -0.507035 -5.43932e-21)
(0.829235 -0.487349 5.26189e-21)
(0.792329 -0.473462 -1.4325e-21)
(0.746989 -0.465064 -2.2661e-21)
(0.696888 -0.446999 9.69734e-22)
(0.653387 -0.393919 3.19053e-21)
(0.629249 -0.289691 -5.02987e-22)
(0.630641 -0.142294 -7.94739e-21)
(0.655026 0.0212419 -7.84277e-22)
(0.694604 0.172291 -1.27992e-21)
(0.739908 0.293123 -1.67072e-21)
(0.0691908 0.491115 1.1504e-20)
(0.128303 0.56004 -1.16744e-20)
(0.185543 0.606722 3.46357e-21)
(0.250002 0.623209 -4.26064e-21)
(0.333018 0.596575 1.68279e-20)
(0.438408 0.518165 -4.57819e-21)
(0.556341 0.392352 -7.0959e-22)
(0.671537 0.231728 -7.56012e-21)
(0.775732 0.0485147 1.12884e-20)
(0.866213 -0.141209 -1.96057e-20)
(0.937248 -0.313117 6.42152e-21)
(0.982219 -0.444856 1.2058e-21)
(1.00047 -0.527789 2.46182e-21)
(0.997372 -0.567322 9.46024e-21)
(0.98014 -0.575822 -6.09253e-21)
(0.955265 -0.565682 -2.04852e-21)
(0.926789 -0.546743 -3.16891e-22)
(0.8961 -0.52557 -2.54824e-21)
(0.86445 -0.504341 4.26366e-21)
(0.832044 -0.484276 -2.19724e-21)
(0.795112 -0.469566 1.0656e-21)
(0.749869 -0.460587 -3.60977e-21)
(0.699508 -0.4433 -3.43501e-21)
(0.655089 -0.392778 4.20895e-21)
(0.629479 -0.292099 1.29969e-21)
(0.629352 -0.147847 -1.86032e-21)
(0.65258 0.0138884 8.58746e-21)
(0.691495 0.164627 -8.79839e-21)
(0.736658 0.286255 4.44371e-21)
(0.0641832 0.478539 -8.63685e-21)
(0.12469 0.549133 1.39293e-21)
(0.184638 0.596868 -5.32582e-23)
(0.252919 0.613523 -5.57247e-21)
(0.340152 0.586585 4.17063e-21)
(0.449056 0.508376 -5.77688e-21)
(0.569047 0.383952 2.82176e-21)
(0.685032 0.225564 -1.06799e-20)
(0.789526 0.0445508 3.95636e-20)
(0.880115 -0.143387 -2.81445e-20)
(0.950696 -0.313782 2.00299e-20)
(0.99446 -0.444232 -1.27385e-20)
(1.01102 -0.526224 -8.40698e-21)
(1.00615 -0.5652 2.10974e-20)
(0.98732 -0.573448 -1.58482e-20)
(0.961091 -0.56323 9.57971e-21)
(0.931573 -0.544212 3.02886e-21)
(0.900094 -0.522942 -1.04794e-21)
(0.867765 -0.50164 -3.3061e-21)
(0.834927 -0.481242 5.03934e-21)
(0.797979 -0.465737 -3.21073e-21)
(0.752867 -0.456145 4.58849e-21)
(0.702293 -0.43956 8.15074e-22)
(0.657004 -0.39154 -1.16937e-21)
(0.62994 -0.294412 -8.18125e-22)
(0.628263 -0.153369 1.54508e-21)
(0.650281 0.00649365 -7.11058e-22)
(0.688485 0.156864 -1.35431e-21)
(0.733466 0.279259 -2.58731e-22)
(0.060199 0.465674 -3.23597e-21)
(0.122025 0.537823 1.14949e-20)
(0.184605 0.586548 -5.70603e-21)
(0.256575 0.603393 1.47424e-20)
(0.347806 0.57628 -3.76287e-21)
(0.459952 0.498473 -2.66108e-21)
(0.581753 0.375636 -6.91788e-21)
(0.698375 0.21961 2.03132e-20)
(0.803133 0.0408572 -2.49121e-20)
(0.893846 -0.14526 1.31529e-20)
(0.963988 -0.314121 -9.58181e-21)
(1.00656 -0.44329 1.79839e-20)
(1.02145 -0.524388 -1.00631e-20)
(1.01485 -0.562872 2.53797e-21)
(0.994465 -0.57093 -7.61114e-21)
(0.966918 -0.560687 6.51878e-21)
(0.936381 -0.541632 9.4442e-22)
(0.904139 -0.520288 5.69864e-22)
(0.871152 -0.498936 1.52673e-21)
(0.837883 -0.478249 -1.30732e-21)
(0.800925 -0.461979 1.86682e-21)
(0.755978 -0.451744 -1.65581e-21)
(0.705237 -0.435786 -7.10109e-22)
(0.659126 -0.390201 -4.47343e-22)
(0.63063 -0.296624 4.48865e-21)
(0.627373 -0.158849 -1.55242e-21)
(0.64813 -0.000923752 -7.04037e-21)
(0.685573 0.149011 -2.56388e-22)
(0.730332 0.272138 1.57792e-21)
(0.0573138 0.452538 1.99287e-21)
(0.120363 0.526128 -1.17538e-20)
(0.185473 0.575782 4.33772e-21)
(0.260974 0.592848 1.21967e-20)
(0.355963 0.565694 -1.77126e-20)
(0.471072 0.488485 5.0404e-21)
(0.594436 0.367416 1.57755e-20)
(0.711552 0.213867 -5.0098e-21)
(0.816546 0.0374256 -5.60434e-21)
(0.907403 -0.146838 -8.14919e-21)
(0.977117 -0.31414 1.2049e-20)
(1.0185 -0.442036 -2.43346e-21)
(1.03176 -0.522287 -2.18312e-21)
(1.02347 -0.560343 -6.17632e-21)
(1.00157 -0.568271 2.79052e-21)
(0.972744 -0.558056 -6.22639e-22)
(0.941212 -0.539006 -1.14801e-21)
(0.908232 -0.51761 -6.14853e-21)
(0.874608 -0.496229 4.22459e-22)
(0.84091 -0.475296 1.05126e-21)
(0.803946 -0.458297 1.7534e-23)
(0.759194 -0.447392 2.51874e-21)
(0.708335 -0.431981 -7.15865e-22)
(0.66145 -0.388761 -2.13227e-21)
(0.631548 -0.298725 3.25213e-21)
(0.626687 -0.164274 4.03504e-21)
(0.64613 -0.00837047 -4.02296e-21)
(0.682761 0.141073 2.7504e-21)
(0.727256 0.264895 -1.82681e-21)
(0.0556029 0.439157 -9.28346e-21)
(0.119756 0.514067 3.31751e-21)
(0.187268 0.564596 5.56022e-21)
(0.266114 0.58192 -1.05802e-20)
(0.364605 0.554857 7.91999e-21)
(0.482393 0.478435 -1.71384e-20)
(0.607075 0.359305 1.00508e-20)
(0.72455 0.208335 1.32355e-20)
(0.829759 0.0342519 -3.58091e-21)
(0.920782 -0.148128 -1.41907e-20)
(0.990077 -0.313847 1.58578e-20)
(1.03028 -0.440479 -9.83492e-21)
(1.04194 -0.519927 9.17867e-21)
(1.03201 -0.557618 -1.00154e-20)
(1.00864 -0.565477 3.93778e-21)
(0.978568 -0.555339 -5.99029e-21)
(0.946065 -0.536337 9.65926e-21)
(0.912371 -0.514913 -8.40356e-21)
(0.878132 -0.493522 4.903e-21)
(0.844006 -0.472386 -3.01157e-21)
(0.807036 -0.454694 3.93276e-21)
(0.762511 -0.443094 -7.7444e-22)
(0.71158 -0.428149 -2.38808e-21)
(0.663968 -0.387219 2.13144e-21)
(0.632689 -0.300709 -1.03014e-21)
(0.626204 -0.169632 1.32967e-21)
(0.644281 -0.0158409 1.53099e-21)
(0.68005 0.133057 -4.05615e-21)
(0.724239 0.257535 3.08945e-21)
(0.05514 0.425557 -3.23466e-21)
(0.120254 0.501666 6.05544e-21)
(0.190012 0.553018 -4.97716e-21)
(0.271994 0.570642 1.0333e-21)
(0.373716 0.543803 -1.3189e-20)
(0.493891 0.468349 2.80552e-20)
(0.619651 0.351316 1.77139e-21)
(0.737359 0.203011 -4.44098e-21)
(0.842771 0.0313247 -1.25119e-20)
(0.933981 -0.14914 1.34682e-20)
(1.00286 -0.31325 -7.65775e-21)
(1.0419 -0.438625 4.93481e-21)
(1.05198 -0.517314 -1.43276e-20)
(1.04045 -0.554705 1.18247e-20)
(1.01567 -0.562552 2.9315e-21)
(0.984388 -0.552542 -3.96181e-21)
(0.950937 -0.533628 2.43235e-21)
(0.916553 -0.512198 -3.606e-21)
(0.881721 -0.490815 -2.43057e-22)
(0.847168 -0.469519 2.82323e-21)
(0.810193 -0.451173 -2.5779e-21)
(0.765921 -0.438858 -4.00463e-21)
(0.714966 -0.424298 -1.62455e-21)
(0.666674 -0.385575 1.9152e-21)
(0.634051 -0.302567 -6.7018e-22)
(0.625926 -0.174913 6.58445e-21)
(0.642587 -0.0233069 -2.80165e-21)
(0.67744 0.124971 -4.18888e-21)
(0.721279 0.250061 1.67249e-21)
(0.0559952 0.411771 5.92448e-22)
(0.121903 0.488954 9.68001e-21)
(0.193727 0.54108 -1.51299e-21)
(0.278611 0.559048 -4.58969e-21)
(0.383278 0.532566 -1.04092e-21)
(0.505547 0.458251 1.13956e-20)
(0.632147 0.343459 3.98614e-21)
(0.74997 0.197894 2.67807e-21)
(0.855581 0.0286301 -6.10319e-21)
(0.946999 -0.149884 -1.54523e-20)
(1.01547 -0.312356 3.81564e-22)
(1.05335 -0.43648 3.4025e-21)
(1.06189 -0.514456 9.12056e-22)
(1.04881 -0.551608 -9.54373e-21)
(1.02265 -0.559501 4.6386e-21)
(0.990203 -0.549666 -1.87192e-21)
(0.955829 -0.530882 -2.72747e-21)
(0.920776 -0.509469 3.26828e-21)
(0.885375 -0.48811 2.4456e-21)
(0.850396 -0.466693 3.59785e-22)
(0.813411 -0.447738 -4.48771e-21)
(0.769419 -0.43469 4.31581e-21)
(0.718487 -0.420431 -2.73188e-21)
(0.66956 -0.38383 1.93694e-21)
(0.635628 -0.304295 -4.50116e-23)
(0.625854 -0.180105 -4.29355e-21)
(0.641049 -0.0307641 5.5195e-21)
(0.674934 0.116822 -2.31125e-21)
(0.718378 0.242477 2.96909e-21)
(0.0582333 0.397831 -2.01792e-21)