/*--------------------------------*- C++ -*----------------------------------*\
  =========                 |
  \\      /  F ield         | OpenFOAM: The Open Source CFD Toolbox
   \\    /   O peration     | Website:  https://openfoam.org
    \\  /    A nd           | Version:  7
     \\/     M anipulation  |
\*---------------------------------------------------------------------------*/
FoamFile
{
    version     2.0;
    format      ascii;
    class       volVectorField;
    location    "60";
    object      U;
}
// * * * * * * * * * * * * * * * * * * * * * * * * * * * * * * * * * * * * * //

dimensions      [0 1 -1 0 0 0 0];

internalField   nonuniform List<vector> 
4575
(
(0.803584 0.300614 -1.52857e-19)
(0.794662 0.293803 2.80058e-19)
(0.785936 0.286678 -1.56943e-19)
(0.763308 0.295006 -8.80626e-20)
(0.777412 0.279243 -6.39114e-20)
(0.75449 0.286839 1.03502e-19)
(0.769102 0.271502 5.08354e-20)
(0.745899 0.278359 -2.72175e-20)
(0.761013 0.263463 1.0149e-19)
(0.737547 0.269572 -2.95793e-20)
(0.753157 0.255131 -1.40851e-19)
(0.712131 0.275411 1.37157e-19)
(0.729444 0.260486 8.71572e-20)
(0.745542 0.246514 6.53252e-20)
(0.70378 0.265517 -8.98533e-20)
(0.721603 0.251107 -6.38142e-20)
(0.738179 0.237621 6.18264e-21)
(0.695717 0.25532 -7.74587e-20)
(0.714033 0.241445 -2.79407e-20)
(0.731077 0.228459 4.71092e-20)
(0.687954 0.244831 -3.03961e-20)
(0.706747 0.231508 2.38296e-19)
(0.724245 0.219038 -1.50762e-19)
(0.66052 0.247553 6.68383e-20)
(0.680504 0.234058 -5.44065e-20)
(0.699754 0.221307 -4.71877e-20)
(0.717693 0.209367 1.02831e-19)
(0.652895 0.2359 1.01128e-19)
(0.673377 0.223014 1.38512e-19)
(0.693064 0.21085 2.72927e-20)
(0.711429 0.199457 -1.21579e-19)
(0.645626 0.223967 -2.51151e-20)
(0.666584 0.211709 -1.46823e-20)
(0.686688 0.20015 1.98911e-20)
(0.705463 0.189318 1.11539e-19)
(0.638725 0.211767 4.68786e-20)
(0.660134 0.200156 -6.8715e-20)
(0.680634 0.189217 -6.27531e-20)
(0.699802 0.17896 -1.19897e-19)
(0.632202 0.199314 2.23304e-20)
(0.654039 0.188367 -6.6724e-21)
(0.674913 0.178063 2.04308e-21)
(0.694455 0.168396 6.60082e-20)
(0.602599 0.197593 8.0249e-20)
(0.626066 0.186621 -8.91347e-20)
(0.648306 0.176355 1.68069e-19)
(0.669533 0.1667 -1.4911e-19)
(0.689429 0.157636 5.34506e-20)
(0.596456 0.183932 -5.2186e-20)
(0.620328 0.173703 5.19325e-21)
(0.642945 0.164134 -1.47763e-19)
(0.664502 0.155141 1.0379e-19)
(0.684731 0.146693 9.45491e-20)
(0.590747 0.170045 7.22648e-20)
(0.614997 0.160575 9.40995e-21)
(0.637965 0.151717 2.33615e-20)
(0.659827 0.143398 9.2669e-21)
(0.680369 0.135578 -1.04236e-19)
(0.585482 0.155948 -1.01921e-19)
(0.61008 0.147252 1.30966e-20)
(0.633372 0.139119 8.36543e-20)
(0.655516 0.131486 -1.16819e-19)
(0.676347 0.124306 -6.11078e-22)
(0.580669 0.141658 9.39067e-20)
(0.605586 0.13375 -7.00589e-20)
(0.629174 0.126354 -8.54198e-21)
(0.651576 0.119417 6.68505e-20)
(0.672673 0.112888 -1.21548e-19)
(0.576316 0.127193 -8.37959e-20)
(0.601522 0.120084 1.83617e-20)
(0.625377 0.113437 -1.20268e-20)
(0.648013 0.107205 -4.17753e-20)
(0.669351 0.101337 1.63048e-20)
(0.57243 0.112569 1.78955e-20)
(0.597893 0.106271 4.14307e-20)
(0.621988 0.100384 7.31986e-21)
(0.644832 0.0948661 -8.9016e-21)
(0.666387 0.0896675 1.05043e-21)
(0.569016 0.097805 5.08147e-20)
(0.594706 0.0923284 4.21042e-20)
(0.619011 0.0872089 2.04073e-20)
(0.642039 0.0824131 4.62595e-20)
(0.663784 0.0778924 1.83665e-20)
(0.566081 0.082919 -1.72986e-20)
(0.591966 0.0782721 -3.44146e-20)
(0.616452 0.0739286 -3.52822e-21)
(0.639637 0.0698611 -6.68587e-20)
(0.661547 0.0660254 1.28989e-21)
(0.563629 0.0679293 -3.60757e-20)
(0.589677 0.0641194 -5.03168e-21)
(0.614315 0.0605587 -1.08882e-20)
(0.637631 0.0572252 5.10353e-20)
(0.659679 0.0540805 -8.53035e-21)
(0.561664 0.0528545 5.11264e-20)
(0.587843 0.0498877 6.39557e-20)
(0.612602 0.0471152 -9.25483e-21)
(0.636023 0.0445203 2.31509e-20)
(0.658183 0.0420717 -1.0261e-20)
(0.532386 0.0399798 1.74713e-20)
(0.560189 0.0377134 4.32555e-21)
(0.586467 0.0355944 -2.15232e-20)
(0.611317 0.0336144 -2.07921e-21)
(0.634817 0.0317616 -4.99602e-20)
(0.65706 0.0300131 2.04526e-20)
(0.531334 0.023881 8.57626e-21)
(0.559207 0.0225248 -2.36049e-20)
(0.585551 0.021257 2.19669e-21)
(0.610461 0.0200726 -1.02814e-21)
(0.634014 0.0189646 1.26791e-20)
(0.656313 0.0179189 2.79666e-22)
(0.530811 0.00775158 -4.35725e-21)
(0.558719 0.00730778 5.72112e-21)
(0.585096 0.00689324 1.10002e-20)
(0.610037 0.00650624 8.08095e-22)
(0.633616 0.0061445 1.18515e-21)
(0.655942 0.00580334 5.12257e-21)
(0.530819 -0.00838797 -5.17543e-21)
(0.558727 -0.00791863 5.08697e-21)
(0.585103 -0.00747927 1.12903e-20)
(0.610044 -0.00706822 9.52123e-22)
(0.633622 -0.00668317 8.26172e-22)
(0.655949 -0.00631924 5.45665e-21)
(0.531357 -0.0245171 3.57445e-21)
(0.559229 -0.0231354 -1.87398e-20)
(0.585572 -0.0218428 5.52732e-21)
(0.610482 -0.0206343 -8.84614e-22)
(0.634034 -0.019503 9.36258e-21)
(0.656333 -0.0184346 9.41997e-22)
(0.532424 -0.0406154 1.14512e-20)
(0.560226 -0.0383235 3.72069e-21)
(0.586503 -0.0361797 -2.85899e-20)
(0.611352 -0.0341756 1.67346e-21)
(0.634851 -0.0322996 -4.0237e-20)
(0.657093 -0.0305283 8.85913e-21)
(0.561715 -0.0534639 5.24487e-20)
(0.587894 -0.0504723 4.74403e-20)
(0.612651 -0.0476757 -2.41481e-20)
(0.636071 -0.0450574 3.13446e-20)
(0.658229 -0.0425862 -6.82754e-22)
(0.563695 -0.0685377 -5.14268e-20)
(0.589742 -0.064703 -9.00155e-21)
(0.614378 -0.0611182 -1.1798e-20)
(0.637692 -0.0577613 1.85713e-20)
(0.659738 -0.054594 -1.32622e-21)
(0.566162 -0.0835261 -5.27475e-21)
(0.592045 -0.0788544 -2.46113e-20)
(0.616529 -0.0744869 1.28639e-20)
(0.639711 -0.070396 -1.07372e-19)
(0.66162 -0.0665376 3.78529e-20)
(0.569112 -0.0984106 6.84656e-20)
(0.5948 -0.0929093 1.79888e-20)
(0.619102 -0.0877657 2.62637e-20)
(0.642127 -0.0829465 6.04366e-20)
(0.66387 -0.0784031 -3.15146e-20)
(0.57254 -0.113173 5.6544e-20)
(0.598001 -0.10685 -2.3244e-20)
(0.622092 -0.100939 1.64621e-20)
(0.644934 -0.0953978 3.44272e-20)
(0.666486 -0.0901765 -1.24351e-20)
(0.576442 -0.127794 -1.07701e-19)
(0.601644 -0.120661 -1.37997e-20)
(0.625495 -0.11399 -3.11759e-20)
(0.648128 -0.107735 -1.99264e-20)
(0.669463 -0.101844 5.06045e-20)
(0.58081 -0.142258 7.01224e-20)
(0.605722 -0.134324 -7.89099e-20)
(0.629306 -0.126905 -1.69011e-20)
(0.651705 -0.119944 6.13777e-20)
(0.672798 -0.113392 -4.9045e-20)
(0.585638 -0.156545 -1.3992e-19)
(0.610231 -0.147824 5.82189e-20)
(0.633518 -0.139667 7.84862e-20)
(0.655659 -0.132011 -1.40538e-19)
(0.676485 -0.124808 4.80347e-22)
(0.590917 -0.170639 1.21121e-19)
(0.615162 -0.161145 1.41495e-20)
(0.638125 -0.152263 -4.00946e-21)
(0.659983 -0.14392 6.6491e-21)
(0.68052 -0.136078 -8.76099e-20)
(0.596641 -0.184523 3.40403e-20)
(0.620508 -0.17427 -1.00151e-19)
(0.643119 -0.164677 -1.21596e-19)
(0.664671 -0.15566 1.38741e-19)
(0.684896 -0.147189 8.52953e-20)
(0.602799 -0.198181 -1.29445e-19)
(0.62626 -0.187185 2.97451e-20)
(0.648494 -0.176895 6.31545e-20)
(0.669716 -0.167216 -7.75946e-20)
(0.689606 -0.158129 -1.55253e-20)
(0.63241 -0.199874 8.00799e-20)
(0.654241 -0.188903 -9.16332e-20)
(0.67511 -0.178575 5.2071e-20)
(0.694646 -0.168885 7.42018e-20)
(0.638948 -0.212324 -5.21351e-21)
(0.66035 -0.200688 -4.10231e-21)
(0.680844 -0.189725 -7.52205e-20)
(0.700006 -0.179446 -1.73621e-19)
(0.645863 -0.224519 -2.38548e-20)
(0.666813 -0.212237 -8.48941e-20)
(0.686911 -0.200654 3.20712e-20)
(0.70568 -0.189799 1.61859e-19)
(0.653146 -0.236448 5.82211e-20)
(0.673621 -0.223537 1.2191e-19)
(0.693301 -0.211351 1.54104e-20)
(0.711659 -0.199934 -1.60463e-19)
(0.660785 -0.248097 -1.48195e-19)
(0.680762 -0.234577 -2.85435e-20)
(0.700004 -0.221802 -2.42028e-20)
(0.717936 -0.20984 1.01814e-19)
(0.688226 -0.245345 -4.74377e-21)
(0.707011 -0.231999 1.11256e-19)
(0.724501 -0.219506 5.21913e-20)
(0.696002 -0.25583 -5.64543e-20)
(0.714311 -0.241931 -6.44901e-21)
(0.731346 -0.228922 6.34224e-20)
(0.704079 -0.266021 -3.75452e-21)
(0.721894 -0.251588 -1.13686e-19)
(0.738461 -0.238078 -4.83655e-20)
(0.712444 -0.27591 8.86162e-20)
(0.729748 -0.260961 8.4911e-20)
(0.745838 -0.246966 8.2717e-20)
(0.737864 -0.270041 -3.25955e-20)
(0.753465 -0.255576 -8.83176e-20)
(0.74623 -0.278822 -1.34655e-19)
(0.761335 -0.263902 6.03295e-20)
(0.754834 -0.287295 2.19915e-19)
(0.769436 -0.271935 4.66121e-20)
(0.77776 -0.279669 -3.00038e-20)
(0.786296 -0.287097 -1.27682e-19)
(0.795036 -0.294215 2.21958e-19)
(0.999958 0.00240141 0)
(0.998627 0.0071337 0)
(0.996021 0.0119403 0)
(0.992479 0.0169534 0)
(0.987939 0.0223381 0)
(0.98268 0.0282392 0)
(0.976581 0.034794 0)
(0.969946 0.0421481 0)
(0.962607 0.0504517 0)
(0.954954 0.0598516 0)
(0.946763 0.0705304 0)
(0.938584 0.0826201 0)
(0.9301 0.0963435 0)
(0.922145 0.111774 0)
(0.914191 0.129184 0)
(0.907583 0.14848 0)
(0.901294 0.170053 0)
(0.897657 0.193352 0)
(0.894434 0.219282 -1.17618e-28)
(0.896066 0.245813 1.25152e-28)
(0.897381 0.276502 0)
(0.999959 0.00254619 0)
(0.998683 0.0075682 0)
(0.996176 0.0126551 0)
(0.992778 0.0179481 0)
(0.988425 0.0236224 0)
(0.983414 0.0298091 0)
(0.977618 0.0366639 0)
(0.971372 0.0443015 0)
(0.964498 0.0528963 0)
(0.957435 0.0625417 0)
(0.949935 0.0734526 0)
(0.942626 0.0856721 0)
(0.935135 0.0994756 0)
(0.928416 0.114782 0)
(0.921822 0.131978 0)
(0.916893 0.150674 0)
(0.912339 0.171566 0)
(0.910841 0.193428 -5.06752e-29)
(0.909586 0.218083 5.39408e-29)
(0.913697 0.241616 -6.54842e-29)
(0.916604 0.270424 6.96929e-29)
(0.999959 0.00269169 0)
(0.998744 0.00800393 0)
(0.99635 0.0133757 0)
(0.993119 0.0189523 0)
(0.988983 0.0249207 0)
(0.984254 0.0313958 0)
(0.9788 0.0385525 0)
(0.972986 0.0464721 0)
(0.96662 0.0553538 0)
(0.960187 0.0652339 0)
(0.95341 0.0763613 0)
(0.946985 0.0886827 0)
(0.940481 0.102532 0)
(0.93495 0.117658 0)
(0.929629 0.134579 0)
(0.926199 0.152578 0)
(0.923157 0.17269 0)
(0.923373 0.192999 0)
(0.923684 0.216194 0)
(0.929387 0.236921 0)
(0.933461 0.263274 0)
(0.99996 0.00283543 0)
(0.998809 0.00843301 0)
(0.996538 0.014084 0)
(0.993488 0.0199345 0)
(0.989588 0.0261836 0)
(0.985166 0.0329295 0)
(0.980083 0.0403645 0)
(0.97473 0.0485382 0)
(0.968905 0.0576707 0)
(0.963128 0.0677452 0)
(0.957101 0.0790396 0)
(0.951566 0.0914109 0)
(0.94605 0.105246 0)
(0.941657 0.120138 0)
(0.937553 0.136723 0)
(0.935459 0.154002 0)
(0.933784 0.173291 0)
(0.935355 0.192161 0)
(0.93699 0.213872 0)
(0.943655 0.232364 0)
(0.948761 0.256346 0)
(0.999961 0.00297512 0)
(0.998878 0.0088484 0)
(0.996736 0.014768 0)
(0.993877 0.0208781 0)
(0.990227 0.0273898 0)
(0.986127 0.034384 0)
(0.981435 0.0420677 0)
(0.976561 0.0504594 0)
(0.971298 0.0597968 0)
(0.966189 0.0700112 0)
(0.960926 0.0814061 0)
(0.95627 0.0937528 0)
(0.951732 0.107487 0)
(0.948414 0.122058 0)
(0.945473 0.138211 0)
(0.94456 0.154708 0)
(0.944127 0.173085 0)
(0.94677 0.190571 0)
(0.949535 0.210755 0)
(0.956792 0.227332 0)
(0.962742 0.249077 0)
(0.999962 0.00310982 0)
(0.998949 0.00924744 0)
(0.996943 0.0154236 0)
(0.994282 0.0217781 0)
(0.990893 0.0285338 0)
(0.987125 0.0357528 0)
(0.982839 0.0436554 0)
(0.978451 0.0522285 0)
(0.973763 0.061725 0)
(0.969319 0.0720251 0)
(0.964821 0.0834549 0)
(0.961015 0.0957045 0)
(0.957431 0.109253 0)
(0.955113 0.123425 0)
(0.953262 0.139051 0)
(0.953384 0.154715 0)
(0.954056 0.172101 0)
(0.957552 0.188248 0)
(0.961249 0.206885 0)
(0.968864 0.221737 0)
(0.975413 0.241355 0)
(0.999964 0.00323891 0)
(0.999022 0.00962849 0)
(0.997158 0.016048 0)
(0.994699 0.0226309 0)
(0.991582 0.0296107 0)
(0.988151 0.0370303 0)
(0.98428 0.0451213 0)
(0.980381 0.0538389 0)
(0.976272 0.0634493 0)
(0.97248 0.073783 0)
(0.968737 0.0851861 0)
(0.965742 0.0972742 0)
(0.963071 0.110563 0)
(0.961669 0.124273 0)
(0.96082 0.139298 0)
(0.96184 0.154104 0)
(0.963471 0.170453 0)
(0.967641 0.185325 0)
(0.972078 0.202441 0)
(0.979879 0.215738 0)
(0.986813 0.233368 0)
(0.999966 0.00336174 0)
(0.999097 0.00998975 0)
(0.99738 0.0166383 0)
(0.995128 0.0234323 0)
(0.992289 0.0306151 0)
(0.989198 0.0382097 0)
(0.985748 0.0464576 0)
(0.982333 0.0552827 0)
(0.978801 0.0649619 0)
(0.975644 0.0752796 0)
(0.972634 0.0865975 0)
(0.970405 0.0984673 0)
(0.968591 0.111431 0)
(0.968021 0.124631 0)
(0.968074 0.139001 0)
(0.969865 0.152944 0)
(0.972308 0.168239 0)
(0.977 0.18191 0)
(0.982004 0.197568 0)
(0.989857 0.209472 0)
(0.997017 0.22529 -6.95301e-30)
(0.999969 0.00347765 0)
(0.999173 0.0103293 0)
(0.997608 0.0171911 0)
(0.995565 0.0241777 0)
(0.99301 0.0315412 0)
(0.990259 0.0392847 0)
(0.987232 0.0476571 0)
(0.984295 0.0565528 0)
(0.98133 0.0662567 0)
(0.978786 0.0765116 0)
(0.976477 0.0876897 0)
(0.974965 0.0992918 0)
(0.973944 0.111874 0)
(0.974121 0.124531 0)
(0.974971 0.138204 0)
(0.977415 0.151293 0)
(0.98053 0.165542 0)
(0.985612 0.178087 0)
(0.991035 0.192371 0)
(0.998839 0.20303 0)
(1.0061 0.217219 0)
(0.999972 0.00358598 0)
(0.999251 0.0106454 0)
(0.997841 0.0177033 0)
(0.996009 0.0248632 0)
(0.993741 0.032384 0)
(0.99133 0.0402495 0)
(0.988722 0.0487139 0)
(0.986254 0.0576443 0)
(0.983841 0.06733 0)
(0.981882 0.077479 0)
(0.980237 0.0884672 0)
(0.97939 0.0997598 0)
(0.979092 0.111913 0)
(0.979935 0.124003 0)
(0.981476 0.136957 0)
(0.984464 0.149207 0)
(0.988122 0.162434 0)
(0.993481 0.173928 0)
(0.999196 0.186934 0)
(1.00687 0.196482 0)
(1.01415 0.209213 0)
(0.999975 0.00368608 0)
(0.99933 0.0109362 0)
(0.998076 0.018172 0)
(0.996457 0.0254849 0)
(0.994476 0.0331389 0)
(0.992402 0.0410994 0)
(0.990208 0.0496234 0)
(0.988197 0.058554 0)
(0.986315 0.0681804 0)
(0.984913 0.0781846 0)
(0.983889 0.0889382 0)
(0.983653 0.0998867 0)
(0.984007 0.111574 0)
(0.985433 0.123083 0)
(0.987567 0.135307 0)
(0.990997 0.146742 0)
(0.995085 0.158985 0)
(1.00062 0.169503 0)
(1.00652 0.18133 0)
(1.01402 0.189885 0)
(1.02123 0.201313 0)
(0.999979 0.00377735 0)
(0.99941 0.0112002 0)
(0.998313 0.0185945 0)
(0.996906 0.0260395 0)
(0.99521 0.0338019 0)
(0.993469 0.0418306 0)
(0.99168 0.050382 0)
(0.99011 0.0592799 0)
(0.988736 0.0688089 0)
(0.987859 0.078633 0)
(0.987411 0.0891135 0)
(0.987731 0.0996899 0)
(0.988665 0.110885 0)
(0.990597 0.121806 0)
(0.99323 0.133302 2.1273e-28)
(0.997013 0.143952 -2.26482e-28)
(1.00143 0.155259 0)
(1.00707 0.164872 0)
(1.01306 0.175619 -3.8054e-29)
(1.02033 0.183288 4.68463e-30)
(1.02742 0.193555 3.81218e-29)
(0.999982 0.00385922 0)
(0.99949 0.0114359 0)
(0.99855 0.0189683 0)
(0.997353 0.0265239 0)
(0.995939 0.0343696 0)
(0.994524 0.0424401 0)
(0.993127 0.0509877 0)
(0.991982 0.0598219 0)
(0.991089 0.0692181 0)
(0.990702 0.0788312 0)
(0.990783 0.0890062 0)
(0.991603 0.0991887 0)
(0.993049 0.109874 0)
(0.995412 0.120207 0)
(0.998458 0.130988 0)
(1.00251 0.140887 0)
(1.00717 0.15131 0)
(1.01284 0.16009 0)
(1.01886 0.169851 0)
(1.02588 0.176731 0)
(1.0328 0.185965 0)
(0.999986 0.00393116 0)
(0.99957 0.0116419 0)
(0.998784 0.0192913 0)
(0.997796 0.0269358 0)
(0.996659 0.0348394 0)
(0.995561 0.0429256 0)
(0.994541 0.0514394 0)
(0.993801 0.0601808 0)
(0.993358 0.0694125 0)
(0.993427 0.0787875 0)
(0.993987 0.0886308 0)
(0.995254 0.0984035 0)
(0.997145 0.10857 0)
(0.999871 0.118322 0)
(1.00325 0.128406 0)
(1.00751 0.137592 0)
(1.01233 0.147187 0)
(1.01798 0.155201 0)
(1.02397 0.164067 0)
(1.03071 0.170245 0)
(1.03744 0.17856 0)
(0.999989 0.00399273 0)
(0.999649 0.0118171 0)
(0.999016 0.0195617 0)
(0.998233 0.0272729 0)
(0.997363 0.0352093 0)
(0.996572 0.0432859 0)
(0.995913 0.0517375 0)
(0.995555 0.0603593 0)
(0.995533 0.0693983 0)
(0.996018 0.0785121 0)
(0.997011 0.0880035 0)
(0.998672 0.0973556 0)
(1.00094 0.107001 0)
(1.00397 0.116183 0)
(1.00762 0.125597 0)
(1.01201 0.134108 0)
(1.01693 0.142933 0)
(1.02252 0.150246 0)
(1.02843 0.158299 0)
(1.03489 0.163853 0)
(1.0414 0.171351 0)
(0.999992 0.00404353 0)
(0.999727 0.0119606 0)
(0.999242 0.0197781 0)
(0.998659 0.0275339 0)
(0.998048 0.0354784 0)
(0.997552 0.0435208 0)
(0.997234 0.0518835 0)
(0.997235 0.0603611 0)
(0.9976 0.069183 0)
(0.998465 0.0780165 0)
(0.999842 0.0871411 0)
(1.00185 0.0960671 0)
(1.00444 0.105196 0)
(1.00771 0.113822 0)
(1.01156 0.122597 0)
(1.01604 0.130473 0)
(1.02101 0.138583 0)
(1.0265 0.145256 0)
(1.0323 0.152575 0)
(1.03847 0.157574 0)
(1.04474 0.164345 0)
(0.999994 0.00408326 0)
(0.999803 0.0120716 0)
(0.999462 0.0199395 0)
(0.999073 0.0277177 0)
(0.99871 0.0356461 0)
(0.998495 0.0436309 0)
(0.998497 0.0518801 0)
(0.998832 0.0601913 0)
(0.999552 0.0687754 0)
(1.00076 0.0773131 0)
(1.00247 0.0860612 0)
(1.00477 0.0945596 0)
(1.00763 0.10318 0)
(1.01109 0.111271 0)
(1.01509 0.119436 0)
(1.01962 0.126719 0)
(1.02459 0.134169 0)
(1.02995 0.140259 0)
(1.03562 0.146915 0)
(1.0415 0.151421 0)
(1.04753 0.157545 1.05863e-29)
(0.999997 0.00411172 0)
(0.999877 0.0121495 0)
(0.999675 0.0200453 0)
(0.999472 0.0278239 0)
(0.999344 0.035713 0)
(0.999395 0.0436178 0)
(0.999695 0.0517312 0)
(1.00034 0.059856 0)
(1.00138 0.0681853 0)
(1.00289 0.0764153 0)
(1.0049 0.0847816 0)
(1.00744 0.0928551 0)
(1.01052 0.10098 0)
(1.01413 0.108556 0)
(1.01822 0.116147 0)
(1.02276 0.122876 0)
(1.02769 0.129718 -6.14545e-29)
(1.03292 0.135278 6.54201e-29)
(1.03842 0.141334 0)
(1.04402 0.145402 0)
(1.04981 0.150949 0)
(0.999999 0.00412877 0)
(0.999948 0.0121941 0)
(0.999878 0.0200952 0)
(0.999853 0.0278527 0)
(0.999948 0.0356802 0)
(1.00025 0.043484 0)
(1.00082 0.0514412 0)
(1.00175 0.0593625 0)
(1.00307 0.0674232 0)
(1.00485 0.0753373 0)
(1.00711 0.0833202 0)
(1.00986 0.0909747 0)
(1.01311 0.0986192 0)
(1.01682 0.105705 0)
(1.02098 0.112754 0)
(1.02549 0.118969 0)
(1.03036 0.125252 0)
(1.03542 0.130331 0)
(1.04076 0.135846 0)
(1.04608 0.139524 0)
(1.05163 0.144556 0)
(1 0.00413439 0)
(1.00002 0.0122051 0)
(1.00007 0.0200897 0)
(1.00021 0.0278047 0)
(1.00052 0.0355496 0)
(1.00105 0.0432328 0)
(1.00188 0.051016 0)
(1.00305 0.0587189 0)
(1.00463 0.0665005 0)
(1.00664 0.0740933 0)
(1.00912 0.0816948 0)
(1.01204 0.088939 0)
(1.01542 0.0961212 0)
(1.01919 0.10274 0)
(1.02337 0.109282 0)
(1.02783 0.11502 0)
(1.03261 0.12079 0)
(1.03751 0.125432 0)
(1.04266 0.13046 -1.1288e-29)
(1.04771 0.13379 2.02725e-30)
(1.05302 0.138362 1.06295e-29)
(1 0.00412862 0)
(1.00008 0.0121829 0)
(1.00025 0.0200292 0)
(1.00055 0.0276813 0)
(1.00105 0.0353238 0)
(1.00179 0.0428683 0)
(1.00285 0.0504618 0)
(1.00425 0.0579339 0)
(1.00606 0.0654289 0)
(1.00826 0.072698 0)
(1.01091 0.0799228 0)
(1.01396 0.0867677 0)
(1.01744 0.0935069 0)
(1.02124 0.0996846 0)
(1.02542 0.105752 0)
(1.0298 0.111049 0)
(1.03448 0.11635 0)
(1.0392 0.120595 0)
(1.04416 0.125182 0)
(1.04896 0.128203 0)
(1.05403 0.132362 0)
(1 0.00411162 0)
(1.00014 0.0121277 0)
(1.00042 0.0199149 0)
(1.00087 0.0274844 0)
(1.00154 0.035006 0)
(1.00248 0.0423955 0)
(1.00374 0.0497857 0)
(1.00534 0.057017 0)
(1.00734 0.0642204 0)
(1.00971 0.0711659 0)
(1.0125 0.0780212 0)
(1.01565 0.0844795 0)
(1.01918 0.0907962 0)
(1.023 0.0965574 0)
(1.02714 0.102183 0)
(1.03143 0.107072 8.31337e-29)
(1.03599 0.111943 -8.85034e-29)
(1.04054 0.11583 0)
(1.0453 0.120018 0)
(1.04986 0.122763 0)
(1.0547 0.126551 0)
(1.00001 0.00408361 0)
(1.0002 0.0120403 0)
(1.00058 0.0197481 0)
(1.00116 0.0272162 0)
(1.002 0.0346001 0)
(1.00311 0.0418197 0)
(1.00455 0.0489953 0)
(1.00632 0.0559781 0)
(1.00848 0.0628872 0)
(1.01099 0.0695117 0)
(1.01389 0.0760062 0)
(1.0171 0.0820921 0)
(1.02067 0.0880072 0)
(1.02447 0.0933767 0)
(1.02855 0.0985906 0)
(1.03275 0.103105 0)
(1.03717 0.107582 0)
(1.04154 0.111143 0)
(1.04611 0.114971 0)
(1.05043 0.117469 0)
(1.05505 0.120924 0)
(1.00001 0.0040449 0)
(1.00025 0.0119216 0)
(1.00073 0.0195308 0)
(1.00143 0.0268798 0)
(1.00241 0.0341103 0)
(1.00367 0.041147 0)
(1.00527 0.0480986 0)
(1.0072 0.0548272 0)
(1.00949 0.0614418 0)
(1.01211 0.0677493 0)
(1.01508 0.0738936 0)
(1.01834 0.0796221 0)
(1.02191 0.0851567 0)
(1.02567 0.0901587 0)
(1.02969 0.0949906 0)
(1.03377 0.099159 0)
(1.03805 0.103277 0)
(1.04224 0.106541 0)
(1.04662 0.110044 0)
(1.05071 0.11232 0)
(1.05511 0.115476 -7.2321e-30)
(1.00001 0.00399587 0)
(1.0003 0.0117726 0)
(1.00086 0.019265 0)
(1.00167 0.0264784 0)
(1.00278 0.0335415 0)
(1.00418 0.0403839 0)
(1.00591 0.047104 -8.71062e-30)
(1.00796 0.0535748 9.27598e-30)
(1.01036 0.0598961 0)
(1.01306 0.0658927 0)
(1.01609 0.0716982 3.99392e-29)
(1.01936 0.077085 -4.25277e-29)
(1.02292 0.08226 0)
(1.02663 0.0869179 0)
(1.03056 0.0913955 0)
(1.03451 0.0952456 0)
(1.03865 0.0990346 0)
(1.04266 0.10203 0)
(1.04686 0.105238 0)
(1.05073 0.107316 0)
(1.05492 0.1102 0)
(1.00001 0.00393697 0)
(1.00034 0.0115948 0)
(1.00097 0.0189531 0)
(1.00188 0.0260156 0)
(1.00311 0.0328989 0)
(1.00462 0.0395373 0)
(1.00647 0.0460201 0)
(1.00862 0.052231 0)
(1.0111 0.0582621 0)
(1.01386 0.0639549 0)
(1.01692 0.0694341 0)
(1.02019 0.0744951 0)
(1.02371 0.0793311 0)
(1.02735 0.0836674 0)
(1.03118 0.0878165 0)
(1.03501 0.0913738 0)
(1.03899 0.0948619 0)
(1.04283 0.0976137 0)
(1.04684 0.100553 0)
(1.05052 0.102453 0)
(1.0545 0.105092 0)
(1.00001 0.00386871 0)
(1.00038 0.0113896 5.72086e-30)
(1.00108 0.0185979 -6.09255e-30)
(1.00207 0.0254955 0)
(1.00339 0.0321878 0)
(1.005 0.0386142 0)
(1.00694 0.0448556 0)
(1.00917 0.0508063 0)
(1.01172 0.0565515 0)
(1.01451 0.0619486 0)
(1.01758 0.0671145 0)
(1.02083 0.0718656 0)
(1.0243 0.0763826 0)
(1.02786 0.0804186 0)
(1.03158 0.0842637 0)
(1.03528 0.0875516 0)
(1.03911 0.0907643 0)
(1.04278 0.0932941 0)
(1.04661 0.0959907 -8.65737e-30)
(1.05009 0.09773 2.81153e-30)
(1.05387 0.100147 6.81477e-30)
(1.00001 0.00379166 0)
(1.00041 0.0111587 0)
(1.00117 0.0182022 0)
(1.00223 0.0249223 0)
(1.00363 0.0314142 0)
(1.00533 0.0376219 0)
(1.00734 0.0436193 0)
(1.00963 0.0493108 0)
(1.01221 0.0547756 0)
(1.01502 0.059886 0)
(1.01808 0.0647517 0)
(1.0213 0.0692088 0)
(1.0247 0.073426 0)
(1.02817 0.077182 0)
(1.03178 0.0807455 0)
(1.03534 0.0837856 0)
(1.03902 0.0867461 0)
(1.04252 0.0890741 0)
(1.04617 0.0915495 0)
(1.04947 0.0931442 0)
(1.05307 0.0953591 0)
(1.00001 0.00370643 0)
(1.00044 0.0109041 0)
(1.00124 0.0177693 0)
(1.00237 0.0243006 0)
(1.00384 0.0305839 0)
(1.00559 0.0365677 0)
(1.00766 0.0423199 0)
(1.00999 0.0477543 0)
(1.0126 0.0529451 0)
(1.0154 0.0577784 0)
(1.01844 0.0623572 0)
(1.0216 0.0665358 0)
(1.02494 0.0704717 0)
(1.0283 0.0739667 0)
(1.03179 0.0772696 0)
(1.03522 0.0800816 0)
(1.03875 0.0828111 0)
(1.04209 0.084955 0)
(1.04556 0.087229 0)
(1.04868 0.0886933 0)
(1.0521 0.0907246 0)
(1.00001 0.00361367 0)
(1.00046 0.0106275 0)
(1.0013 0.0173023 0)
(1.00248 0.023635 0)
(1.004 0.0297028 0)
(1.0058 0.0354591 0)
(1.00791 0.0409659 0)
(1.01026 0.0461466 0)
(1.01287 0.0510703 0)
(1.01567 0.0556364 0)
(1.01866 0.0599416 0)
(1.02176 0.0638568 0)
(1.02501 0.0675288 0)
(1.02828 0.0707807 0)
(1.03164 0.0738424 0)
(1.03493 0.0764445 0)
(1.03831 0.0789621 0)
(1.04149 0.0809382 0)
(1.0448 0.0830285 0)
(1.04775 0.0843748 0)
(1.05099 0.0862388 2.12934e-31)
(1.00001 0.00351406 0)
(1.00048 0.0103312 0)
(1.00135 0.0168047 0)
(1.00257 0.0229302 0)
(1.00413 0.0287771 0)
(1.00596 0.0343032 0)
(1.0081 0.0395658 0)
(1.01045 0.0444967 0)
(1.01305 0.049161 3.71651e-29)
(1.01582 0.05347 -3.95757e-29)
(1.01876 0.0575147 0)
(1.02179 0.061181 0)
(1.02495 0.0646057 0)
(1.0281 0.0676311 0)
(1.03134 0.0704695 0)
(1.0345 0.0728782 0)
(1.03772 0.0752015 0)
(1.04075 0.0770242 0)
(1.0439 0.0789468 0)
(1.0467 0.0801862 0)
(1.04977 0.0818974 0)
(1.00001 0.00340831 0)
(1.00049 0.010017 0)
(1.00139 0.0162798 0)
(1.00264 0.022191 0)
(1.00422 0.0278128 0)
(1.00608 0.0331073 0)
(1.00822 0.0381276 0)
(1.01057 0.0428135 0)
(1.01314 0.0472264 0)
(1.01587 0.0512885 0)
(1.01875 0.0550854 0)
(1.0217 0.0585166 0)
(1.02476 0.0617097 0)
(1.0278 0.0645241 0)
(1.03092 0.0671557 0)
(1.03393 0.0693861 0)
(1.03701 0.0715308 0)
(1.0399 0.0732133 0)
(1.04289 0.0749826 0)
(1.04554 0.0761248 0)
(1.04844 0.0776966 0)
(1.00001 0.00329713 0)
(1.0005 0.00968728 0)
(1.00142 0.0157312 0)
(1.00268 0.021422 0)
(1.00428 0.0268156 0)
(1.00614 0.0318782 0)
(1.00828 0.0366589 0)
(1.01061 0.0411052 0)
(1.01315 0.0452749 0)
(1.01582 0.0491003 0)
(1.01863 0.0526618 0)
(1.0215 0.0558713 0)
(1.02445 0.0588473 0)
(1.02739 0.0614652 0)
(1.03037 0.0639052 0)
(1.03326 0.065971 0)
(1.03619 0.0679515 0)
(1.03894 0.0695055 0)
(1.04177 0.0711345 -2.93298e-31)
(1.04428 0.0721883 2.22205e-30)
(1.04704 0.0736324 -2.03264e-30)
(1.00001 0.00318124 0)
(1.00051 0.00934402 0)
(1.00143 0.0151622 0)
(1.00271 0.0206279 0)
(1.00431 0.0257913 0)
(1.00617 0.0306226 0)
(1.00829 0.0351672 0)
(1.01059 0.0393797 0)
(1.01309 0.0433146 0)
(1.0157 0.0469133 0)
(1.01843 0.0502512 0)
(1.02121 0.0532515 0)
(1.02406 0.0560243 0)
(1.02687 0.0584589 0)
(1.02973 0.0607212 0)
(1.03249 0.062635 0)
(1.03528 0.0644643 0)
(1.03789 0.0659004 0)
(1.04058 0.0674007 0)
(1.04296 0.068374 0)
(1.04556 0.0697011 0)
(1.00001 0.00306134 0)
(1.00051 0.00898934 0)
(1.00144 0.0145762 0)
(1.00271 0.0198133 0)
(1.00431 0.0247456 0)
(1.00616 0.0293468 0)
(1.00825 0.0336594 0)
(1.01052 0.0376442 0)
(1.01296 0.0413527 0)
(1.0155 0.0447344 0)
(1.01815 0.0478602 0)
(1.02083 0.0506633 0)
(1.02357 0.0532455 0)
(1.02628 0.0555093 0)
(1.02901 0.0576067 0)
(1.03164 0.0593798 0)
(1.0343 0.0610698 0)
(1.03678 0.0623976 0)
(1.03933 0.0637797 0)
(1.04158 0.0646794 0)
(1.04404 0.0658991 0)
(1.00001 0.00293813 0)
(1.00051 0.00862526 0)
(1.00143 0.0139764 0)
(1.0027 0.0189824 0)
(1.00429 0.0236835 0)
(1.00611 0.0280568 0)
(1.00817 0.0321419 0)
(1.01039 0.0359054 0)
(1.01277 0.0393958 0)
(1.01524 0.0425702 0)
(1.0178 0.0454948 0)
(1.02038 0.0481118 0)
(1.02302 0.0505154 0)
(1.02561 0.0526196 0)
(1.02822 0.0545638 0)
(1.03073 0.0562068 0)
(1.03325 0.0577681 0)
(1.0356 0.0589961 0)
(1.03802 0.0602696 0)
(1.04015 0.0611018 0)
(1.04247 0.0622228 5.01763e-30)
(1.00001 0.00281226 0)
(1.00051 0.00825371 0)
(1.00142 0.0133659 0)
(1.00268 0.0181394 0)
(1.00424 0.0226101 0)
(1.00604 0.0267582 0)
(1.00805 0.0306208 0)
(1.01022 0.0341695 0)
(1.01253 0.0374501 0)
(1.01492 0.0404263 0)
(1.0174 0.04316 0)
(1.01988 0.0456014 0)
(1.0224 0.0478375 0)
(1.02488 0.0497926 0)
(1.02737 0.0515944 0)
(1.02976 0.0531165 0)
(1.03216 0.054559 0)
(1.03439 0.0556949 0)
(1.03667 0.0568684 0)
(1.03869 0.0576386 0)
(1.04088 0.0586689 0)
(1.00001 0.00268438 0)
(1.0005 0.00787657 0)
(1.0014 0.0127478 0)
(1.00264 0.0172882 0)
(1.00418 0.02153 0)
(1.00594 0.0254563 0)
(1.0079 0.0291014 0)
(1.01001 0.0324419 0)
(1.01225 0.0355209 0)
(1.01456 0.0383077 0)
(1.01694 0.0408604 0)
(1.01933 0.0431359 0)
(1.02174 0.0452148 0)
(1.02411 0.0470305 0)
(1.02648 0.0486996 0)
(1.02875 0.0501095 0)
(1.03103 0.0514419 0)
(1.03314 0.0524927 0)
(1.03531 0.0535739 0)
(1.03721 0.0542872 1.84884e-30)
(1.03928 0.0552339 -1.96768e-30)
(1.00001 0.00255511 0)
(1.00049 0.00749563 0)
(1.00138 0.0121247 0)
(1.0026 0.0164325 0)
(1.0041 0.0204476 0)
(1.00582 0.0241556 0)
(1.00773 0.0275888 0)
(1.00977 0.0307278 0)
(1.01194 0.033613 0)
(1.01416 0.0362189 0)
(1.01645 0.0385997 0)
(1.01874 0.0407187 0)
(1.02104 0.0426498 0)
(1.0233 0.0443349 0)
(1.02556 0.0458802 0)
(1.02772 0.0471857 0)
(1.02988 0.0484161 0)
(1.03188 0.0493881 0)
(1.03393 0.050384 3.01523e-30)
(1.03573 0.0510446 -3.20932e-30)
(1.03768 0.0519142 0)
(1.00001 0.00242501 0)
(1.00048 0.00711256 0)
(1.00135 0.0114994 0)
(1.00254 0.0155756 0)
(1.004 0.0193667 0)
(1.00568 0.0228607 0)
(1.00753 0.0260875 0)
(1.00951 0.0290314 0)
(1.01159 0.0317305 0)
(1.01373 0.0341637 0)
(1.01593 0.0363813 0)
(1.01811 0.0383522 0)
(1.02032 0.0401443 0)
(1.02247 0.0417069 0)
(1.02462 0.0431367 0)
(1.02667 0.0443449 0)
(1.02871 0.0454804 0)
(1.03061 0.0463792 0)
(1.03254 0.0472963 0)
(1.03425 0.0479081 0)
(1.03609 0.0487064 4.32826e-30)
(1.00001 0.0022946 0)
(1.00047 0.00672887 0)
(1.00132 0.0108741 0)
(1.00248 0.0147206 0)
(1.0039 0.018291 0)
(1.00552 0.0215752 0)
(1.00731 0.0246013 0)
(1.00922 0.0273567 0)
(1.01123 0.029877 0)
(1.01328 0.0321451 0)
(1.01538 0.0342077 0)
(1.01747 0.0360384 0)
(1.01957 0.0376997 0)
(1.02162 0.0391473 0)
(1.02366 0.040469 0)
(1.02561 0.0415862 0)
(1.02754 0.0426335 0)
(1.02935 0.0434642 0)
(1.03117 0.0443081 0)
(1.03279 0.0448747 0)
(1.03452 0.045607 0)
(1.00001 0.00216438 0)
(1.00046 0.00634595 0)
(1.00128 0.0102511 0)
(1.0024 0.0138701 0)
(1.00378 0.0172234 0)
(1.00535 0.0203025 0)
(1.00708 0.0231336 0)
(1.00892 0.0257068 0)
(1.01085 0.0280554 0)
(1.01281 0.0301658 0)
(1.01482 0.032081 0)
(1.01682 0.033779 0)
(1.01882 0.0353168 0)
(1.02077 0.0366562 0)
(1.0227 0.0378766 0)
(1.02455 0.0389087 0)
(1.02638 0.0398737 0)
(1.02809 0.0406409 0)
(1.02981 0.0414167 0)
(1.03135 0.0419411 0)
(1.03298 0.0426123 0)
(1.00001 0.00203476 0)
(1.00044 0.00596502 0)
(1.00124 0.00963211 0)
(1.00233 0.0130267 0)
(1.00366 0.0161667 0)
(1.00517 0.0190456 0)
(1.00684 0.0216873 0)
(1.00861 0.0240846 0)
(1.01045 0.0262683 0)
(1.01234 0.0282277 0)
(1.01425 0.0300026 0)
(1.01616 0.0315747 0)
(1.01806 0.032996 0)
(1.01992 0.0342333 0)
(1.02175 0.0353587 0)
(1.0235 0.0363109 0)
(1.02524 0.0371989 0)
(1.02686 0.0379067 0)
(1.02848 0.0386192 -6.17204e-30)
(1.02993 0.0391042 -7.89684e-31)
(1.03147 0.0397186 7.83206e-30)
(1.00001 0.00190612 0)
(1.00043 0.00558715 0)
(1.0012 0.00901886 0)
(1.00225 0.0121923 0)
(1.00353 0.0151233 0)
(1.00499 0.0178067 0)
(1.00659 0.0202647 0)
(1.00829 0.022492 0)
(1.01006 0.0245173 0)
(1.01186 0.0263323 0)
(1.01368 0.0279735 0)
(1.0155 0.0294261 0)
(1.01731 0.030737 0)
(1.01907 0.031878 0)
(1.02081 0.0329139 0)
(1.02247 0.0337911 0)
(1.02412 0.034607 0)
(1.02565 0.035259 0)
(1.02718 0.0359124 0)
(1.02856 0.0363603 0)
(1.03 0.036922 0)
(1.00001 0.00177877 0)
(1.00041 0.00521325 0)
(1.00116 0.0084127 0)
(1.00217 0.0113686 0)
(1.00341 0.0140951 0)
(1.00481 0.0165879 0)
(1.00634 0.0188677 0)
(1.00797 0.0209308 0)
(1.00966 0.0228037 0)
(1.01138 0.0244804 0)
(1.01312 0.0259941 0)
(1.01485 0.0273329 8.0705e-31)
(1.01657 0.0285393 -8.59326e-31)
(1.01824 0.0295892 1.85692e-30)
(1.01989 0.0305407 -1.97705e-30)
(1.02147 0.031347 0)
(1.02302 0.0320954 0)
(1.02447 0.0326948 0)
(1.02592 0.0332929 0)
(1.02723 0.033706 0)
(1.02859 0.0342185 -1.24028e-29)
(1.00001 0.00165297 0)
(1.0004 0.00484404 0)
(1.00111 0.00781474 0)
(1.00209 0.010557 0)
(1.00328 0.0130833 0)
(1.00462 0.0153905 0)
(1.00609 0.0174975 0)
(1.00765 0.0194019 0)
(1.00926 0.0211283 0)
(1.0109 0.0226722 0)
(1.01256 0.0240642 0)
(1.01421 0.0252945 0)
(1.01584 0.0264017 0)
(1.01743 0.0273651 0)
(1.019 0.0282369 0)
(1.02049 0.0289763 0)
(1.02197 0.029661 0)
(1.02334 0.0302109 0)
(1.02471 0.0307571 0)
(1.02595 0.0311371 0)