/*--------------------------------*- C++ -*----------------------------------*\
  =========                 |
  \\      /  F ield         | OpenFOAM: The Open Source CFD Toolbox
   \\    /   O peration     | Website:  https://openfoam.org
    \\  /    A nd           | Version:  7
     \\/     M anipulation  |
\*---------------------------------------------------------------------------*/
FoamFile
{
    version     2.0;
    format      ascii;
    class       surfaceScalarField;
    location    "220";
    object      phi;
}
// * * * * * * * * * * * * * * * * * * * * * * * * * * * * * * * * * * * * * //

dimensions      [0 3 -1 0 0 0 0];

internalField   nonuniform List<scalar> 
8924
(
0.00153926
-0.0103282
0.010409
0.0014542
-0.0104849
0.01057
0.00139903
-0.0092385
0.00929367
0.00138932
-0.00616121
0.00617091
0.0014217
-0.00187685
0.00184448
0.00148212
0.00246722
-0.00252764
0.00155253
0.00591108
-0.00598149
0.00161472
0.00808883
-0.00815102
0.00164935
0.00928344
-0.00931806
0.00164033
0.0101019
-0.0100928
0.00158667
0.0108492
-0.0107955
0.00150891
0.0111444
-0.0110667
0.00143941
0.0101992
-0.0101297
0.00140218
0.00755983
-0.0075226
0.00140519
0.00356234
-0.00356535
0.0014439
-0.000854611
0.000815897
0.00150041
-0.00468059
0.00462408
0.00154422
-0.00742467
0.00738086
0.00154939
-0.00925
0.00924483
0.00151393
-0.0105082
0.0105436
0.00146
-0.0109591
0.011013
0.00141618
-0.0100248
0.0100686
0.00140188
-0.0073533
0.0073676
-0.00341515
0.00339688
0.00152366
-0.010246
0.0014377
-0.0103989
0.00138359
-0.00918439
0.00137731
-0.00615493
0.00141441
-0.00191395
0.00147974
0.00240189
0.00155457
0.00583624
0.00162027
0.00802312
0.00165739
0.00924632
0.00165014
0.0101091
0.00159771
0.0109016
0.00152053
0.0112216
0.00145024
0.0102695
0.00141031
0.00759976
0.00140916
0.00356348
0.00144353
-0.000888979
0.00149676
-0.00473382
0.00153874
-0.00746665
0.001543
-0.00925426
0.00150709
-0.0104723
0.00145342
-0.0109054
0.00141099
-0.00998234
0.00139914
-0.00734145
-0.003436
0.00150821
-0.0101624
0.00142137
-0.0103121
0.00136818
-0.00913119
0.00136514
-0.00615189
0.00140684
-0.00195565
0.00147699
0.00233174
0.00155622
0.00575701
0.00162545
0.0079539
0.00166516
0.00920661
0.00165979
0.0101145
0.00160876
0.0109526
0.00153225
0.0112981
0.00146117
0.0103405
0.00141846
0.00764247
0.00141306
0.00356888
0.00144299
-0.000918912
0.0014929
-0.00478372
0.00153309
-0.00750684
0.00153651
-0.00925767
0.00150023
-0.010436
0.00144684
-0.010852
0.00140577
-0.00994127
0.00139631
-0.00733198
-0.0034594
0.00149292
-0.0100778
0.00140524
-0.0102244
0.00135281
-0.00907876
0.00135283
-0.00615191
0.00139897
-0.00200179
0.00147387
0.00225684
0.00155746
0.00567341
0.00163024
0.00788112
0.00167262
0.00916423
0.0016693
0.0101178
0.00161981
0.0110021
0.00154407
0.0113738
0.00147218
0.0104124
0.00142663
0.00768802
0.00141689
0.00357862
0.0014423
-0.000944327
0.00148883
-0.00483025
0.00152726
-0.00754527
0.00152992
-0.00926033
0.00149335
-0.0103994
0.00144026
-0.0107989
0.00140053
-0.00990153
0.00139338
-0.00732484
-0.00348527
0.00147781
-0.0099922
0.0013893
-0.0101359
0.00133749
-0.00902694
0.00134036
-0.00615478
0.0013908
-0.00205224
0.00147036
0.00217728
0.00155828
0.00558549
0.00163462
0.00780479
0.00167976
0.00911909
0.00167862
0.0101189
0.00163084
0.0110499
0.00155596
0.0114487
0.00148328
0.0104851
0.00143482
0.00773648
0.00142066
0.00359278
0.00144148
-0.00096514
0.00148457
-0.00487334
0.00152126
-0.00758196
0.00152325
-0.00926232
0.00148645
-0.0103626
0.00143369
-0.0107462
0.00139524
-0.00986309
0.00139034
-0.00731994
-0.00351357
0.00146287
-0.00990583
0.00137359
-0.0100466
0.00132223
-0.00897559
0.00132774
-0.00616028
0.00138233
-0.00210683
0.00146646
0.00209315
0.00155867
0.00549328
0.00163859
0.00772487
0.00168658
0.0090711
0.00168776
0.0101178
0.00164184
0.0110958
0.00156793
0.0115226
0.00149445
0.0105586
0.00144302
0.0077879
0.00142438
0.00361142
0.00144052
-0.000981276
0.00148013
-0.00491295
0.00151509
-0.00761692
0.00151648
-0.00926372
0.00147953
-0.0103257
0.00142711
-0.0106937
0.00138992
-0.00982589
0.00138719
-0.00731721
-0.00354423
0.00144813
-0.00981885
0.0013581
-0.00995661
0.00130705
-0.00892454
0.00131497
-0.0061682
0.00137354
-0.0021654
0.00146214
0.00200455
0.00155859
0.00539683
0.00164211
0.00764134
0.00169304
0.00902016
0.0016967
0.0101141
0.00165279
0.0111398
0.00157994
0.0115955
0.00150567
0.0106328
0.00145125
0.00784233
0.00142806
0.00363461
0.00143945
-0.000992661
0.00147551
-0.00494901
0.00150875
-0.00765016
0.00150962
-0.00926459
0.00147258
-0.0102886
0.00142052
-0.0106417
0.00138453
-0.00978991
0.0013839
-0.00731657
-0.00357721
0.00143358
-0.00973143
0.00134286
-0.00986589
0.00129196
-0.00887365
0.00130205
-0.00617829
0.00136443
-0.00222778
0.0014574
0.00191158
0.00155804
0.00529619
0.00164518
0.0075542
0.00169914
0.0089662
0.00170542
0.0101078
0.00166368
0.0111815
0.00159199
0.0116672
0.00151695
0.0107079
0.00145948
0.00789979
0.0014317
0.00366239
0.00143827
-0.000999226
0.00147072
-0.00498146
0.00150225
-0.0076817
0.00150268
-0.00926502
0.00146561
-0.0102516
0.00141391
-0.01059
0.00137909
-0.00975508
0.00138048
-0.00731797
-0.00361244
0.00141922
-0.00964376
0.00132786
-0.00977453
0.00127697
-0.00882276
0.00128899
-0.00619031
0.00135498
-0.00229376
0.00145222
0.00181434
0.00155701
0.0051914
0.00164778
0.00746343
0.00170486
0.00890913
0.00171389
0.0100988
0.00167449
0.0112209
0.00160406
0.0117376
0.00152826
0.0107837
0.00146773
0.00796033
0.00143531
0.00369481
0.001437
-0.00100091
0.00146577
-0.00501023
0.0014956
-0.00771152
0.00149565
-0.00926507
0.00145861
-0.0102145
0.00140729
-0.0105387
0.00137358
-0.00972138
0.00137691
-0.0073213
-0.00364987
0.00140505
0.00131312
-0.00968261
0.0012621
-0.00877173
0.0012758
-0.00620401
0.00134521
-0.00236317
0.00144659
0.00171296
0.00155547
0.00508251
0.00164989
0.00736901
0.00171016
0.00884886
0.0017221
0.0100869
0.00168519
0.0112578
0.00161612
0.0118067
0.0015396
0.0108602
0.00147599
0.00802394
0.00143889
0.0037319
0.00143564
-0.000997654
0.00146067
-0.00503526
0.00148878
-0.00773963
0.00148852
-0.00926481
0.00145158
-0.0101776
0.00140063
-0.0104877
0.00136799
-0.00968873
0.00137319
-0.00732651
-0.00368945
0.00129865
-0.0095902
0.00124735
-0.00872043
0.00126248
-0.00621914
0.00133509
-0.00243578
0.00144049
0.00160756
0.00155341
0.00496959
0.00165149
0.00727094
0.00171504
0.0087853
0.00173003
0.0100719
0.00169576
0.0112921
0.00162817
0.0118743
0.00155095
0.0109374
0.00148424
0.00809065
0.00144245
0.00377369
0.0014342
-0.000989407
0.00145543
-0.00505649
0.00148181
-0.00776601
0.0014813
-0.0092643
0.00144452
-0.0101408
0.00139395
-0.0104371
0.00136231
-0.00965709
0.00136931
-0.0073335
-0.00373114
0.00128444
-0.00949737
0.00123275
-0.00866874
0.00124904
-0.00623543
0.00132464
-0.00251139
0.00143393
0.00149827
0.00155082
0.00485269
0.00165256
0.0071692
0.00171947
0.00871839
0.00173765
0.0100537
0.00170619
0.0113235
0.00164017
0.0119403
0.00156229
0.0110153
0.00149249
0.00816045
0.00144598
0.0038202
0.0014327
-0.000976122
0.00145005
-0.00507384
0.00147467
-0.00779064
0.00147398
-0.0092636
0.00143743
-0.0101043
0.00138723
-0.0103869
0.00135654
-0.00962641
0.00136525
-0.0073422
-0.00377487
0.00127049
-0.00940424
0.00121829
-0.00861654
0.00123548
-0.00625262
0.00131384
-0.00258974
0.00142688
0.00138524
0.00154768
0.00473189
0.00165308
0.0070638
0.00172344
0.00864803
0.00174494
0.0100322
0.00171643
0.011352
0.00165211
0.0120046
0.00157362
0.0110938
0.00150073
0.00823334
0.00144949
0.00387144
0.00143113
-0.000957762
0.00144454
-0.00508724
0.00146739
-0.0078135
0.00146656
-0.00926278
0.00143029
-0.010068
0.00138047
-0.0103371
0.00135068
-0.00959662
0.00136101
-0.00735253
-0.00382059
0.00125681
-0.0093109
0.00120401
-0.00856374
0.00122183
-0.00627044
0.0013027
-0.00267061
0.00141933
0.0012686
0.00154397
0.00460726
0.00165304
0.00695473
0.0017269
0.00857416
0.00175187
0.0100072
0.00172648
0.0113774
0.00166395
0.0120671
0.00158491
0.0111728
0.00150895
0.0083093
0.00145298
0.00392741
0.00142951
-0.000934292
0.00143891
-0.00509663
0.00145995
-0.00783454
0.00145904
-0.00926187
0.00142311
-0.0100321
0.00137366
-0.0102877
0.0013447
-0.00956766
0.00135658
-0.00736441
-0.00386826
0.00124339
-0.00921746
0.0011899
-0.00851025
0.0012081
-0.00628863
0.00129122
-0.00275373
0.00141129
0.00114853
0.00153968
0.00447887
0.00165241
0.00684201
0.00172986
0.00849671
0.00175843
0.00997866
0.0017363
0.0113995
0.00167569
0.0121277
0.00159615
0.0112524
0.00151715
0.0083883
0.00145645
0.00398811
0.00142785
-0.000905688
0.00143316
-0.00510195
0.00145235
-0.00785373
0.00145141
-0.00926093
0.00141588
-0.00999654
0.0013668
-0.0102386
0.00133861
-0.00953947
0.00135195
-0.00737776
-0.00391783
0.00123022
-0.00912403
0.00117598
-0.00845601
0.00119429
-0.00630694
0.0012794
-0.00283884
0.00140274
0.00102518
0.0015348
0.00434681
0.00165117
0.00672564
0.00173227
0.00841561
0.00176457
0.00994636
0.00174586
0.0114183
0.00168729
0.0121863
0.00160732
0.0113323
0.00152531
0.00847031
0.0014599
0.00405352
0.00142614
-0.000871929
0.00142731
-0.00510312
0.0014446
-0.00787102
0.00144367
-0.00925999
0.0014086
-0.00996147
0.00135988
-0.0101899
0.00133239
-0.00951199
0.00134713
-0.0073925
-0.00396924
0.00121729
-0.00903074
0.00116226
-0.00840098
0.00118043
-0.00632511
0.00126725
-0.00292567
0.00139368
0.000898755
0.00152932
0.00421118
0.00164932
0.00660563
0.00173413
0.0083308
0.00177028
0.0099102
0.00175514
0.0114334
0.00169872
0.0122427
0.0016184
0.0114127
0.00153342
0.00855529
0.00146332
0.00412361
0.00142439
-0.000833003
0.00142136
-0.00510009
0.0014367
-0.00788636
0.0014358
-0.00925909
0.00140127
-0.00992694
0.0013529
-0.0101415
0.00132605
-0.00948514
0.00134209
-0.00740853
-0.00402244
0.00120459
-0.00893772
0.00114873
-0.00834513
0.00116654
-0.00634291
0.00125478
-0.00301391
0.0013841
0.000769433
0.00152321
0.00407207
0.00164683
0.00648202
0.0017354
0.00824223
0.00177553
0.00987007
0.0017641
0.0114448
0.00170996
0.0122969
0.00162938
0.0114932
0.00154148
0.00864319
0.00146671
0.00419838
0.00142262
-0.000788906
0.00141532
-0.00509279
0.00142865
-0.00789969
0.00142782
-0.00925826
0.00139387
-0.00989299
0.00134586
-0.0100935
0.00131957
-0.00945885
0.00133683
-0.00742579
-0.00407737
0.0011921
-0.00884511
0.00113541
-0.00828844
0.00115262
-0.00636013
0.001242
-0.00310329
0.00137401
0.000637425
0.00151649
0.00392959
0.00164368
0.00635483
0.00173606
0.00814985
0.00178029
0.00982584
0.00177272
0.0114524
0.00172099
0.0123486
0.00164023
0.011574
0.00154947
0.00873395
0.00147007
0.00427777
0.00142081
-0.000739639
0.00140918
-0.00508117
0.00142044
-0.00791095
0.0014197
-0.00925752
0.00138641
-0.0098597
0.00133875
-0.0100458
0.00131296
-0.00943307
0.00133135
-0.00744418
-0.004134
0.00117982
-0.00875302
0.00112229
-0.00823091
0.0011387
-0.00637654
0.00122892
-0.00319351
0.0013634
0.00050295
0.00150912
0.00378387
0.00163985
0.0062241
0.00173609
0.00805361
0.00178453
0.00977741
0.00178096
0.011456
0.00173177
0.0123978
0.00165093
0.0116548
0.00155738
0.00882751
0.0014734
0.00436175
0.00141897
-0.00068521
0.00140297
-0.00506517
0.00141209
-0.00792007
0.00141145
-0.00925688
0.00137888
-0.00982713
0.00133156
-0.00999849
0.0013062
-0.0094077
0.00132564
-0.00746362
-0.00419226
0.00116771
-0.00866162
0.00110937
-0.00817257
0.0011248
-0.00639197
0.00121556
-0.00328427
0.00135227
0.000366238
0.00150111
0.00363502
0.00163534
0.00608987
0.00173547
0.00795348
0.00178822
0.00972466
0.00178879
0.0114554
0.00174228
0.0124443
0.00166148
0.0117356
0.0015652
0.00892378
0.00147668
0.00445026
0.00141711
-0.000625635
0.00139668
-0.00504474
0.00140358
-0.00792697
0.00140306
-0.00925635
0.00137127
-0.00979535
0.00132431
-0.00995152
0.00129929
-0.00938268
0.00131969
-0.00748402
-0.0042521
0.00115577
-0.00857102
0.00109665
-0.00811345
0.00111093
-0.00640625
0.00120193
-0.00337527
0.00134063
0.000227534
0.00149246
0.0034832
0.00163013
0.00595219
0.00173418
0.00784943
0.00179133
0.00966751
0.00179619
0.0114506
0.00175249
0.012488
0.00167183
0.0118163
0.00157292
0.0090227
0.00147992
0.00454326
0.00141522
-0.000560936
0.00139032
-0.00501984
0.00139493
-0.00793157
0.00139451
-0.00925594
0.00136358
-0.00976442
0.00131697
-0.00990491
0.00129222
-0.00935793
0.0013135
-0.0075053
-0.00431347
0.00114396
-0.00848139
0.00108411
-0.00805359
0.00109709
-0.00641923
0.00118806
-0.00346624
0.0013285
8.70956e-05
0.00148314
0.00332855
0.0016242
0.00581114
0.00173218
0.00774145
0.00179384
0.00960584
0.00180311
0.0114413
0.00176237
0.0125287
0.00168199
0.0118967
0.00158052
0.00912416
0.0014831
0.00464068
0.00141331
-0.000491143
0.00138389
-0.00499042
0.00138613
-0.00793381
0.00138582
-0.00925563
0.0013558
-0.0097344
0.00130956
-0.00985867
0.00128501
-0.00933338
0.00130707
-0.00752737
-0.00437631
0.00113228
-0.00839287
0.00107174
-0.00799306
0.00108332
-0.00643081
0.00117397
-0.00355688
0.00131587
-5.48125e-05
0.00147317
0.00317125
0.00161754
0.00566677
0.00172947
0.00762952
0.00179572
0.0095396
0.00180953
0.0114275
0.0017719
0.0125664
0.00169191
0.0119767
0.001588
0.00922808
0.00148623
0.00474246
0.00141137
-0.000416289
0.00137741
-0.00495646
0.00137718
-0.00793358
0.00137696
-0.00925541
0.00134793
-0.00970537
0.00130207
-0.0098128
0.00127763
-0.00930895
0.00130039
-0.00755013
-0.00444057
0.00112069
-0.00830561
0.00105954
-0.00793191
0.00106961
-0.00644087
0.00115969
-0.00364697
0.00130275
-0.00019787
0.00146255
0.00301146
0.00161014
0.00551918
0.00172602
0.00751363
0.00179694
0.00946868
0.00181542
0.011409
0.00178103
0.0126007
0.00170159
0.0120561
0.00159533
0.00933433
0.00148928
0.0048485
0.00140941
-0.000336416
0.00137086
-0.00491791
0.00136809
-0.00793081
0.00136793
-0.00925526
0.00133995
-0.00967738
0.00129449
-0.00976735
0.00127009
-0.00928455
0.00129346
-0.00757349
-0.00450619
0.00110917
-0.00821975
0.00104748
-0.00787022
0.00105596
-0.00644935
0.00114522
-0.00373624
0.00128917
-0.000341821
0.00145127
0.00284937
0.00160199
0.00536845
0.00172182
0.00739381
0.00179746
0.00939304
0.00182074
0.0113857
0.00178976
0.0126317
0.00171099
0.0121349
0.00160251
0.00944282
0.00149226
0.00495875
0.00140742
-0.000251571
0.00136426
-0.00487475
0.00135886
-0.00792541
0.00135874
-0.00925513
0.00133186
-0.00965051
0.00128683
-0.00972232
0.0012624
-0.00926012
0.00128627
-0.00759736
-0.00457312
0.0010977
-0.00813546
0.00103555
-0.00780807
0.00104238
-0.00645618
0.00113059
-0.00382445
0.00127516
-0.000486392
0.00143934
0.00268519
0.00159309
0.00521469
0.00171684
0.00727006
0.00179727
0.00931261
0.00182546
0.0113575
0.00179803
0.0126592
0.00172011
0.0122128
0.00160952
0.00955341
0.00149517
0.0050731
0.0014054
-0.000161807
0.00135762
-0.00482697
0.00134949
-0.00791728
0.00134936
-0.009255
0.00132365
-0.0096248
0.00127908
-0.00967775
0.00125455
-0.00923558
0.00127882
-0.00762164
-0.00464129
0.00108625
-0.0080529
0.00102372
-0.00774554
0.00102886
-0.00646132
0.00111581
-0.00391139
0.00126073
-0.000631313
0.00142677
0.00251915
0.00158343
0.00505802
0.00171107
0.00714242
0.00179634
0.00922734
0.00182956
0.0113243
0.00180583
0.0126829
0.00172891
0.0122897
0.00161634
0.00966598
0.00149798
0.00519146
0.00140336
-6.71829e-05
0.00135092
-0.00477453
0.00133999
-0.00790634
0.0013398
-0.00925482
0.00131532
-0.00960031
0.00127125
-0.00963368
0.00124653
-0.00921087
0.00127111
-0.00764622
-0.00471065
0.0010748
-0.00797222
0.00101198
-0.00768271
0.0010154
-0.00646475
0.00110091
-0.0039969
0.0012459
-0.000776307
0.00141357
0.00235148
0.00157301
0.00489858
0.0017045
0.00701094
0.00179464
0.0091372
0.00183299
0.011286
0.00181313
0.0127027
0.00173738
0.0123655
0.00162297
0.00978039
0.0015007
0.00531373
0.00140128
3.22394e-05
0.00134419
-0.00471744
0.00133035
-0.0078925
0.00133006
-0.00925452
0.00130685
-0.0095771
0.00126333
-0.00959016
0.00123836
-0.0091859
0.00126314
-0.007671
-0.00478115
0.00106333
-0.00789358
0.0010003
-0.00761968
0.00100198
-0.00646642
0.00108591
-0.00408083
0.00123071
-0.000921114
0.00139977
0.00218242
0.00156183
0.00473652
0.00169711
0.00687566
0.00179215
0.00904215
0.00183574
0.0112424
0.0018199
0.0127186
0.00174549
0.0124399
0.00162939
0.00989649
0.00150333
0.0054398
0.00139916
0.000136404
0.00133741
-0.0046557
0.00132058
-0.00787567
0.00132012
-0.00925406
0.00129824
-0.00955522
0.00125532
-0.00954724
0.00123004
-0.00916063
0.00125491
-0.00769586
-0.00485271
0.00105179
-0.00781716
0.000988669
-0.00755656
0.000988586
-0.00646634
0.00107082
-0.00416306
0.0012152
-0.00106549
0.00138539
0.00201223
0.0015499
0.00457201
0.00168889
0.00673667
0.00178885
0.0089422
0.00183776
0.0111935
0.00182611
0.0127302
0.00175322
0.0125128
0.00163559
0.0100141
0.00150584
0.00556955
0.00139701
0.000245231
0.0013306
-0.00458928
0.00131069
-0.00785576
0.00130998
-0.00925335
0.00128947
-0.00953471
0.00124721
-0.00950498
0.00122157
-0.00913499
0.00124641
-0.00772071
-0.00492528
0.00104018
-0.0077431
0.000977065
-0.00749344
0.000975206
-0.00646448
0.00105564
-0.0042435
0.00119939
-0.00120924
0.00137046
0.00184115
0.00153724
0.00440523
0.00167985
0.00659406
0.00178472
0.00883732
0.00183904
0.0111391
0.00183173
0.0127375
0.00176054
0.012584
0.00164155
0.0101331
0.00150824
0.00570285
0.00139483
0.000358641
0.00132375
-0.00451821
0.00130067
-0.00783268
0.00129965
-0.00925233
0.00128055
-0.00951561
0.00123901
-0.00946344
0.00121295
-0.00910893
0.00123766
-0.00774541
-0.0049988
0.00102845
-0.00767158
0.000965469
-0.00743046
0.000961818
-0.00646083
0.00104038
-0.00432206
0.00118331
-0.00135217
0.00135502
0.00166945
0.00152385
0.0042364
0.00166996
0.00644795
0.00177973
0.00872756
0.00183955
0.0110793
0.00183673
0.0127404
0.00176744
0.0126533
0.00164726
0.0102533
0.00151052
0.00583959
0.00139261
0.000476555
0.00131687
-0.00444247
0.00129054
-0.00780635
0.00128911
-0.00925091
0.00127146
-0.00949795
0.00123071
-0.0094227
0.0012042
-0.00908241
0.00122864
-0.00776986
-0.00507319
0.00101659
-0.00760275
0.000953867
-0.00736774
0.000948404
-0.00645537
0.00102502
-0.00439868
0.00116701
-0.00149416
0.00133911
0.00149735
0.00150977
0.00406574
0.00165926
0.00629846
0.00177388
0.00861293
0.00183925
0.0110139
0.00184109
0.0127385
0.0017739
0.0127205
0.00165271
0.0103745
0.00151268
0.00597962
0.00139035
0.00059889
0.00130996
-0.00436209
0.00128028
-0.00777667
0.00127837
-0.009249
0.00126219
-0.00948177
0.00122232
-0.00938283
0.00119531
-0.0090554
0.00121937
-0.00779393
-0.00514837
0.00100456
-0.00753675
0.000942244
-0.00730543
0.000934952
-0.00644808
0.00100956
-0.00447329
0.00115051
-0.00163511
0.00132281
0.00132505
0.00149506
0.00389349
0.00164774
0.00614579
0.00176715
0.00849352
0.00183814
0.010943
0.00184478
0.0127319
0.00177989
0.0127853
0.00165789
0.0104965
0.00151472
0.00612278
0.00138805
0.000725566
0.00130301
-0.00427705
0.00126992
-0.00774357
0.00126743
-0.00924652
0.00125274
-0.00946707
0.00121382
-0.00934391
0.00118629
-0.00902788
0.00120985
-0.00781749
-0.00522428
0.000992331
-0.00747371
0.000930578
-0.00724367
0.00092144
-0.00643894
0.000993966
-0.00454582
0.00113383
-0.00177498
0.00130618
0.00115271
0.00147978
0.00371988
0.00163545
0.00599013
0.00175955
0.00836941
0.00183618
0.0108663
0.00184777
0.0127203
0.00178539
0.0128477
0.0016628
0.0106191
0.00151665
0.00626893
0.00138571
0.000856505
0.00129604
-0.00418738
0.00125945
-0.00770698
0.00125629
-0.00924335
0.0012431
-0.00945389
0.00120521
-0.00930601
0.00117715
-0.00899982
0.00120008
-0.00784042
-0.00530083
0.000979832
-0.00741379
0.000918814
-0.00718266
0.000907814
-0.00642794
0.000978173
-0.00461618
0.00111696
-0.00191376
0.00128928
0.000980395
0.00146403
0.00354513
0.00162245
0.00583171
0.0017511
0.00824076
0.00183338
0.0107841
0.00185005
0.0127036
0.0017904
0.0129074
0.00166746
0.010742
0.0015185
0.00641789
0.00138336
0.000991643
0.00128905
-0.00409308
0.00124887
-0.0076668
0.00124492
-0.0092394
0.00123325
-0.00944222
0.00119648
-0.00926924
0.00116789
-0.00897124
0.00119007
-0.00786259
-0.00537792
0.000967014
-0.00735712
0.000906934
-0.00712258
0.000894053
-0.00641506
0.000962104
-0.00468423
0.00109981
-0.00205147
0.00127213
0.00080808
0.00144788
0.00336937
0.00160881
0.00567078
0.00174184
0.00810773
0.00182974
0.0106962
0.00185164
0.0126817
0.00179496
0.0129641
0.00167194
0.010865
0.00152036
0.00656948
0.00138104
0.00113096
0.00128203
-0.00399407
0.00123815
-0.00762292
0.0012333
-0.00923455
0.00122315
-0.00943207
0.0011876
-0.00923369
0.0011585
-0.00894214
0.0011798
-0.00788389
-0.00545544
0.00095409
-0.0073038
0.000895163
-0.00706365
0.000880433
-0.00640033
0.000946009
-0.00474981
0.00108256
-0.00218803
0.00125491
0.000635735
0.00143157
0.00319271
0.00159475
0.00550759
0.00173191
0.00797058
0.00182536
0.0106027
0.00185261
0.0126545
0.00179914
0.0130175
0.00167631
0.0109879
0.00152218
0.0067236
0.00137864
0.0012745
0.00127489
-0.00389032
0.00122729
-0.00757532
0.00122147
-0.00922873
0.00121287
-0.00942346
0.00117863
-0.00919945
0.00114904
-0.00891254
0.00116935
-0.00790421
-0.00553329
0.000942039
0.000884593
-0.0070062
0.000868312
-0.00638405
0.000931386
-0.00481288
0.00106665
-0.00232329
0.00123889
0.000463497
0.00141618
0.00301542
0.00158128
0.00534249
0.00172213
0.00782972
0.00182077
0.0105041
0.00185316
0.0126221
0.00180278
0.0130679
0.00167992
0.0111107
0.00152285
0.00688067
0.00137501
0.00142234
0.00126698
-0.00378229
0.00121618
-0.00752452
0.00120969
-0.00922224
0.00120273
-0.0094165
0.00116994
-0.00916666
0.00113991
-0.00888252
0.00115917
-0.00792347
-0.00561139
0.00452199
-0.00666279
0.00420846
-0.00607052
0.00404392
-0.00464834
0.00408401
-0.00236337
0.00429402
0.000253484
0.00458435
0.00272509
0.0048597
0.00506714
0.00505135
0.00763807
0.00514592
0.0104095
0.00516397
0.012604
0.00513243
0.0130995
0.00509144
0.0111517
0.0050845
0.0068876
0.00510723
0.00139961
0.00514456
-0.00381962
0.00517466
-0.00755461
0.0051828
-0.00923037
0.0051034
-0.0093371
0.00491241
-0.00897567
0.00469541
-0.00866552
0.00457898
-0.00780704
-0.00562831
0.00468685
-0.00632633
0.00437119
-0.00575487
0.00419582
-0.00447297
0.00422356
-0.00239111
0.00442754
4.95059e-05
0.00472231
0.00243033
0.00500496
0.00478449
0.00521227
0.00743077
0.00533106
0.0102907
0.00537254
0.0125625
0.0053542
0.0131178
0.00531512
0.0111908
0.00530551
0.00689721
0.0053428
0.00136232
0.00537014
-0.00384696
0.0053817
-0.00756617
0.00537249
-0.00922117
0.00528506
-0.00924967
0.00508654
-0.00877715
0.00485502
-0.008434
0.00472395
-0.00767597
-0.00564067
0.0048594
-0.00599634
0.00454158
-0.00543706
0.00435488
-0.00428626
0.00437238
-0.00240861
0.00457187
-0.000149985
0.00486707
0.00213513
0.00515728
0.00449427
0.00538095
0.00720709
0.00552283
0.0101488
0.00558667
0.0124987
0.00558302
0.0131215
0.00555211
0.0112217
0.00555287
0.00689645
0.00559069
0.0013245
0.00561215
-0.00386842
0.00560143
-0.00755545
0.00557189
-0.00919163
0.005475
-0.00915278
0.00526887
-0.00857102
0.00502211
-0.00818725
0.00487477
-0.00752862
-0.00564637
0.00503951
-0.00567534
0.00472149
-0.00511903
0.00452449
-0.00408927
0.00453007
-0.00241419
0.00472297
-0.000342885
0.00501731
0.00184079
0.00531517
0.00419641
0.00555651
0.00696576
0.00572278
0.00998255
0.00581066
0.0124108
0.00582389
0.0131082
0.0058037
0.0112419
0.00581375
0.00688639
0.0058574
0.00128086
0.00586935
-0.00388038
0.00583446
-0.00752056
0.00578122
-0.00913839
0.00567296
-0.00904452
0.00545943
-0.00835749
0.00519717
-0.00792498
0.00503157
-0.00736303
-0.00564412
0.00522702
-0.00536596
0.00491158
-0.00480359
0.00470452
-0.00388221
0.00469591
-0.00240558
0.00487923
-0.000526207
0.00517161
0.00154842
0.00547759
0.00389043
0.00573811
0.00670524
0.00593094
0.00978972
0.00604514
0.0122966
0.00607675
0.0130766
0.00606893
0.0112497
0.00609068
0.00686464
0.00613964
0.00123191
0.00614169
-0.00388243
0.00608069
-0.00745955
0.0060004
-0.0090581
0.00587866
-0.00892278
0.00565808
-0.00813692
0.00538055
-0.00764744
0.00519506
-0.00717754
-0.0056319
0.00542122
-0.00507063
0.00511146
-0.00449383
0.00489453
-0.00366528
0.00486921
-0.00238026
0.00503995
-0.000696942
0.00532908
0.00125929
0.00564371
0.0035758
0.00592507
0.00642388
0.00614686
0.00956793
0.00628919
0.0121543
0.00634069
0.0130251
0.00634831
0.0112421
0.00638359
0.00682936
0.00643734
0.00117816
0.00642859
-0.00387367
0.00633974
-0.0073707
0.00622922
-0.00894758
0.00609172
-0.00878529
0.00586454
-0.00790974
0.00557248
-0.00735538
0.00536567
-0.00697073
-0.00560737
0.00562113
-0.00479128
0.00532058
-0.00419328
0.00509459
-0.00343928
0.00504969
-0.00233537
0.00520439
-0.00085164
0.00548885
0.000974834
0.00581268
0.00325197
0.00611658
0.00611998
0.00636936
0.00931515
0.00654118
0.0119825
0.00661498
0.0129513
0.00664183
0.0112153
0.00669223
0.00677896
0.00674993
0.00112045
0.00672911
-0.00385286
0.00661093
-0.00725252
0.00646728
-0.00880393
0.00631165
-0.00862966
0.00607836
-0.00767645
0.00577305
-0.00705007
0.00554393
-0.00674161
-0.00556795
0.00582563
-0.00452903
0.0055382
-0.00390584
0.00530487
-0.00320595
0.00523761
-0.00226811
0.00537215
-0.000986176
0.00564996
0.000697026
0.00598334
0.00291858
0.00631142
0.00579189
0.0065967
0.00902987
0.00679935
0.0117798
0.00689866
0.012852
0.00694886
0.0111651
0.00701599
0.00671182
0.00707646
0.00105999
0.00704195
-0.00381835
0.0068932
-0.00710377
0.00671398
-0.00862472
0.00653785
-0.00845352
0.00629896
-0.00743756
0.00598225
-0.00673336
0.00573042
-0.00648978
-0.00551105
0.00603352
-0.00428391
0.00576319
-0.00363551
0.00552563
-0.0029684
0.00543388
-0.00217636
0.00554345
-0.00109575
0.00581161
0.000428861
0.00615445
0.00257575
0.00650803
0.00543831
0.00682688
0.00871103
0.00706169
0.011545
0.0071901
0.0127236
0.0072682
0.011087
0.00735387
0.00662615
0.00741543
0.000998431
0.00736533
-0.00376825
0.00718509
-0.00692353
0.00696847
-0.00840809
0.00676957
-0.00825462
0.0065256
-0.00719359
0.00619989
-0.00640765
0.00592572
-0.00621561
-0.00543411
0.00624366
-0.00405465
0.00599399
-0.00338584
0.00575687
-0.00273127
0.00564007
-0.00205956
0.00571945
-0.00117513
0.00597366
0.000174652
0.0063249
0.00222451
0.00670466
0.00505855
0.00705743
0.00835826
0.00732551
0.0112769
0.007487
0.0125621
0.00759803
0.0109759
0.00770408
0.0065201
0.00776484
0.000937662
0.00769695
-0.00370036
0.00748471
-0.00671129
0.00722964
-0.00815303
0.00700599
-0.00803097
0.0067574
-0.006945
0.0064256
-0.00607586
0.00613036
-0.00592037
-0.00533492
0.00645518
-0.0038387
0.00622864
-0.00315931
0.00599801
-0.00250064
0.00585798
-0.00191953
0.00590255
-0.0012197
0.00613708
-5.98741e-05
0.00649411
0.00186747
0.00689936
0.00465331
0.00728531
0.00797231
0.00758745
0.0109748
0.00778637
0.0123632
0.0079357
0.0108266
0.00806403
0.00639178
0.00812197
0.00087972
0.008034
-0.00361239
0.00778972
-0.00646701
0.00749613
-0.00785944
0.0072462
-0.00778103
0.00699339
-0.00669219
0.00665883
-0.00574129
0.00634477
-0.00560631
-0.0052118
0.00666773
-0.00363254
0.00646502
-0.0029566
0.00624763
-0.00228324
0.00608922
-0.00176113
0.00609612
-0.0012266
0.00630417
-0.000267923
0.00666211
0.00150953
0.00708993
0.00422549
0.00750685
0.00755538
0.0078435
0.0106381
0.00808446
0.0121222
0.00827763
0.0106334
0.00843014
0.00623927
0.00848324
0.000826615
0.00837309
-0.00350224
0.00809741
-0.00619133
0.00776635
-0.00752838
0.00748922
-0.00750389
0.00723253
-0.00643551
0.00689881
-0.00540758
0.0065692
-0.0052767
-0.00506386
0.00688154
-0.00343231
0.00670113
-0.00277619
0.00650339
-0.0020855
0.00633444
-0.00159219
0.00630381
-0.00119596
0.00647838
-0.000442492
0.00682949
0.00115842
0.00727398
0.00378099
0.0077179
0.00711146
0.00808905
0.010267
0.00837676
0.0118345
0.00861926
0.0103909
0.00879775
0.00606079
0.00884427
0.000780094
0.00871036
-0.00336833
0.00840475
-0.00588572
0.0080385
-0.00716214
0.00773403
-0.00719942
0.00747374
-0.00617522
0.00714461
-0.00507845
0.00680363
-0.00493571
-0.0048912
0.00709747
-0.0032346
0.00693561
-0.00261432
0.00676221
-0.0019121
0.0065928
-0.00142278
0.00652854
-0.00113171
0.00666341
-0.000577359
0.00699715
0.000824669
0.00744898
0.00332917
0.0079139
0.00664654
0.00831899
0.00986189
0.00865812
0.0114954
0.00895508
0.010094
0.0091611
0.00585477
0.00920004
0.00074115
0.00904158
-0.00320986
0.0087085
-0.00555264
0.00831068
-0.00676431
0.00797963
-0.00686837
0.00771595
-0.00591154
0.00739514
-0.00475764
0.00704776
-0.00458833
-0.00469491
0.00731677
-0.00303731
0.00716807
-0.00246563
0.00702086
-0.00176489
0.0068616
-0.00126351
0.00677146
-0.00104156
0.00686219
-0.000668088
0.00716586
0.000520995
0.00761219
0.00288285
0.00808997
0.00616875
0.00852792
0.00942394
0.0089229
0.0111004
0.00927872
0.00973815
0.00951393
0.00561956
0.00954485
0.000710232
0.00936236
-0.00302737
0.00900541
-0.00519569
0.00858093
-0.00633984
0.00822508
-0.00651252
0.00795818
-0.00564464
0.00764923
-0.00444869
0.00730096
-0.00424006
-0.00447714
0.00754069
-0.00284015
0.00739929
-0.00232423
0.00727664
-0.00164224
0.00713674
-0.00112361
0.00703118
-0.000936007
0.00707605
-0.000712962
0.00733571
0.000261335
0.00776065
0.00245791
0.00824128
0.00568812
0.00871057
0.00895466
0.00916539
0.0106456
0.00958367
0.00931987
0.00984937
0.00535386
0.00987316
0.000686445
0.00966849
-0.0028227
0.00929237
-0.00481957
0.00884743
-0.00589489
0.00846955
-0.00613464
0.00819954
-0.00537463
0.00790563
-0.00415478
0.00756234
-0.00389676
-0.00424092
0.00777007
-0.00264456
0.00763106
-0.00218521
0.00752812
-0.00153931
0.00741327
-0.00100875
0.00730391
-0.000826648
0.00730432
-0.000713373
0.00750613
5.95268e-05
0.00789149
0.00207255
0.00836354
0.00521607
0.0088624
0.00845579
0.00938044
0.0101276
0.00986358
0.00883673
0.0101611
0.00505631
0.0101798
0.000667795
0.00995626
-0.00259918
0.0095667
-0.00443001
0.00910852
-0.00543671
0.00871241
-0.00573853
0.0084393
-0.00510152
0.00816313
-0.0038786
0.00783073
-0.00356436
-0.0039899
0.00800503
-0.00245309
0.00786559
-0.00204577
0.00777565
-0.00144936
0.00768672
-0.000919823
0.00758385
-0.00072378
0.00754477
-0.000674295
0.00767678
-7.24857e-05
0.00800307
0.00174626
0.00845399
0.00476515
0.00898044
0.00792934
0.00956432
0.00954367
0.0101137
0.00828731
0.0104441
0.0047259
0.0104609
0.000651087
0.0102229
-0.00236122
0.00982634
-0.00403346
0.00936289
-0.00497326
0.00895326
-0.0053289
0.00867696
-0.00482522
0.00842049
-0.00362213
0.00810481
-0.00324869
-0.00372822
0.00824496
-0.00226841
0.0081048
-0.00190561
0.00802115
-0.00136572
0.00795423
-0.000852904
0.00786474
-0.000634281
0.00779411
-0.00060367
0.00784935