/*--------------------------------*- C++ -*----------------------------------*\
  =========                 |
  \\      /  F ield         | OpenFOAM: The Open Source CFD Toolbox
   \\    /   O peration     | Website:  https://openfoam.org
    \\  /    A nd           | Version:  7
     \\/     M anipulation  |
\*---------------------------------------------------------------------------*/
FoamFile
{
    version     2.0;
    format      ascii;
    class       volVectorField;
    location    "120";
    object      U;
}
// * * * * * * * * * * * * * * * * * * * * * * * * * * * * * * * * * * * * * //

dimensions      [0 1 -1 0 0 0 0];

internalField   nonuniform List<vector> 
4575
(
(0.823498 0.28179 -2.95261e-19)
(0.814189 0.275116 5.44188e-19)
(0.8051 0.268109 -3.05551e-19)
(0.782363 0.277202 -1.7057e-19)
(0.796241 0.260774 -1.25617e-19)
(0.773206 0.269079 2.01039e-19)
(0.787621 0.253119 1.00009e-19)
(0.764303 0.260627 -5.28601e-20)
(0.779249 0.245149 2.01209e-19)
(0.755665 0.251854 -5.83165e-20)
(0.771135 0.236872 -2.80058e-19)
(0.729953 0.258258 2.68318e-19)
(0.747304 0.242766 1.71266e-19)
(0.763288 0.228296 1.30342e-19)
(0.72135 0.248302 -1.75457e-19)
(0.739231 0.233374 -1.25714e-19)
(0.755719 0.219431 1.25482e-20)
(0.713064 0.238031 -1.52076e-19)
(0.731457 0.223686 -5.55791e-20)
(0.748437 0.210286 9.4743e-20)
(0.705108 0.227456 -5.98546e-20)
(0.723994 0.213712 4.72466e-19)
(0.741451 0.200871 -3.03302e-19)
(0.677325 0.230484 1.3076e-19)
(0.697492 0.216587 -1.07521e-19)
(0.716851 0.203463 -9.33654e-20)
(0.734771 0.191196 2.07652e-19)
(0.669547 0.218675 1.9884e-19)
(0.690229 0.205438 2.74192e-19)
(0.710039 0.19295 5.46356e-20)
(0.728406 0.181272 -2.45731e-19)
(0.662155 0.206578 -4.93835e-20)
(0.683328 0.19402 -2.89727e-20)
(0.703569 0.182184 3.98829e-20)
(0.722364 0.171111 2.25862e-19)
(0.655161 0.194207 9.25161e-20)
(0.6768 0.182345 -1.3626e-19)
(0.697449 0.171178 -1.25043e-19)
(0.716654 0.160724 -2.43184e-19)
(0.648575 0.181575 4.42001e-20)
(0.670655 0.170429 -1.32492e-20)
(0.69169 0.159945 4.19485e-21)
(0.711284 0.150124 1.34005e-19)
(0.618598 0.179837 1.57435e-19)
(0.642409 0.168698 -1.7611e-19)
(0.664902 0.158283 3.34682e-19)
(0.686299 0.148496 -2.9881e-19)
(0.706261 0.139323 1.08671e-19)
(0.612445 0.165933 -1.0258e-19)
(0.63667 0.155591 1.02214e-20)
(0.65955 0.145924 -2.94573e-19)
(0.681284 0.136847 2.08109e-19)
(0.701592 0.128334 1.92616e-19)
(0.606758 0.151799 1.42059e-19)
(0.631369 0.14227 1.86436e-20)
(0.654608 0.133365 4.65387e-20)
(0.676655 0.125011 1.86705e-20)
(0.697285 0.117171 -2.12254e-19)
(0.601548 0.137453 -2.00482e-19)
(0.626514 0.128751 2.59979e-20)
(0.650083 0.120622 1.67002e-19)
(0.672417 0.113001 -2.34683e-19)
(0.693345 0.105846 -1.18205e-21)
(0.596822 0.122911 1.8486e-19)
(0.622112 0.115051 -1.38994e-19)
(0.645981 0.10771 -1.70637e-20)
(0.668578 0.100833 1.3433e-19)
(0.689779 0.094374 -2.4799e-19)
(0.592588 0.108193 -1.64926e-19)
(0.618171 0.101186 3.64318e-20)
(0.642311 0.0946449 -2.40776e-20)
(0.665143 0.0885223 -8.40525e-20)
(0.686591 0.0827685 3.33122e-20)
(0.588854 0.0933171 3.5317e-20)
(0.614696 0.0871748 8.22593e-20)
(0.639077 0.0814434 1.45862e-20)
(0.662119 0.0760829 -1.7867e-20)
(0.683787 0.0710439 2.22709e-21)
(0.585625 0.0783016 1.00221e-19)
(0.611694 0.0730342 8.36657e-20)
(0.636285 0.0681216 4.08548e-20)
(0.65951 0.0635306 9.31757e-20)
(0.681371 0.0592144 3.75442e-20)
(0.582907 0.0631659 -3.41057e-20)
(0.609169 0.0587819 -6.83025e-20)
(0.63394 0.054696 -7.00066e-21)
(0.65732 0.0508811 -1.34525e-19)
(0.679346 0.0472951 2.63917e-21)
(0.580704 0.0479294 -7.10516e-20)
(0.607127 0.0444362 -9.99047e-21)
(0.632045 0.0411837 -2.17924e-20)
(0.655554 0.0381505 1.02625e-19)
(0.677717 0.0353007 -1.75368e-20)
(0.57902 0.0326117 1.00745e-19)
(0.605569 0.0300153 1.26939e-19)
(0.630604 0.0276015 -1.85415e-20)
(0.654214 0.0253543 4.65172e-20)
(0.676485 0.0232442 -2.09739e-20)
(0.549596 0.0190596 3.41538e-20)
(0.577859 0.0172324 8.51511e-21)
(0.6045 0.0155375 -4.2692e-20)
(0.62962 0.0139666 -4.15304e-21)
(0.653302 0.0125087 -1.00468e-19)
(0.67565 0.0111396 4.17964e-20)
(0.548898 0.00267179 1.67434e-20)
(0.577223 0.00181153 -4.64695e-20)
(0.603921 0.00102147 4.37367e-21)
(0.629093 0.000297037 -2.04167e-21)
(0.652819 -0.000367942 2.55035e-20)
(0.675206 -0.000986548 5.75686e-22)
(0.548762 -0.0137398 -8.49853e-21)
(0.577113 -0.0136311 1.12721e-20)
(0.603835 -0.0135142 2.18132e-20)
(0.629027 -0.0133902 1.61325e-21)
(0.652772 -0.0132599 2.38288e-21)
(0.67518 -0.0131225 1.04497e-20)
(0.549191 -0.0301539 -1.0094e-20)
(0.57753 -0.0290756 1.00114e-20)
(0.604241 -0.0280512 2.23612e-20)
(0.629422 -0.0270785 1.89843e-21)
(0.653157 -0.0261533 1.65878e-21)
(0.675558 -0.025265 1.11209e-20)
(0.550183 -0.046549 6.96053e-21)
(0.578475 -0.0445019 -3.67859e-20)
(0.605139 -0.042571 1.09123e-20)
(0.630278 -0.0407503 -1.77463e-21)
(0.653975 -0.0390312 1.87676e-20)
(0.676337 -0.0373941 1.9122e-21)
(0.551739 -0.0629036 2.22571e-20)
(0.579945 -0.0598902 7.29726e-21)
(0.606529 -0.0570548 -5.65309e-20)
(0.631593 -0.0543882 3.33169e-21)
(0.655225 -0.0518767 -8.06632e-20)
(0.677518 -0.0494922 1.79951e-20)
(0.581939 -0.0752204 1.02722e-19)
(0.608409 -0.0714842 9.36459e-20)
(0.633366 -0.067975 -4.79758e-20)
(0.656905 -0.0646737 6.28592e-20)
(0.679099 -0.0615443 -1.40338e-21)
(0.584455 -0.0904729 -1.0073e-19)
(0.610776 -0.0858406 -1.78434e-20)
(0.635595 -0.0814933 -2.33632e-20)
(0.659014 -0.077406 3.71838e-20)
(0.681079 -0.0735358 -2.61831e-21)
(0.58749 -0.105628 -1.02716e-20)
(0.613628 -0.100106 -4.85538e-20)
(0.638277 -0.094926 2.55473e-20)
(0.661548 -0.0900574 -2.14467e-19)
(0.683457 -0.0854516 7.67434e-20)
(0.591039 -0.120666 1.33476e-19)
(0.616961 -0.114262 3.52305e-20)
(0.641409 -0.108256 5.20193e-20)
(0.664505 -0.102612 1.20571e-19)
(0.686228 -0.0972767 -6.39435e-20)
(0.595097 -0.135568 1.09864e-19)
(0.620771 -0.12829 -4.583e-20)
(0.644986 -0.121467 3.25819e-20)
(0.66788 -0.115054 6.85205e-20)
(0.68939 -0.108996 -2.52878e-20)
(0.59966 -0.150314 -2.097e-19)
(0.625051 -0.142173 -2.72547e-20)
(0.649004 -0.134542 -6.15179e-20)
(0.671668 -0.127367 -3.95524e-20)
(0.692938 -0.120596 1.02026e-19)
(0.60472 -0.164886 1.35919e-19)
(0.629797 -0.155894 -1.54473e-19)
(0.653457 -0.147465 -3.32221e-20)
(0.675866 -0.139537 1.21791e-19)
(0.696869 -0.132061 -9.88972e-20)
(0.61027 -0.179266 -2.70979e-19)
(0.635001 -0.169435 1.13588e-19)
(0.658339 -0.160219 1.5417e-19)
(0.680467 -0.151548 -2.78346e-19)
(0.701177 -0.143378 1.10922e-21)
(0.616302 -0.193435 2.34089e-19)
(0.640656 -0.182778 2.73828e-20)
(0.663643 -0.172789 -8.07527e-21)
(0.685464 -0.163386 1.34624e-20)
(0.705857 -0.154532 -1.754e-19)
(0.622808 -0.207376 6.54474e-20)
(0.646755 -0.195909 -1.94552e-19)
(0.669362 -0.18516 -2.37738e-19)
(0.690851 -0.175036 2.73481e-19)
(0.710903 -0.16551 1.71084e-19)
(0.629779 -0.221071 -2.48676e-19)
(0.653289 -0.20881 5.77565e-20)
(0.675488 -0.197316 1.23385e-19)
(0.69662 -0.186483 -1.52526e-19)
(0.716308 -0.176298 -3.10233e-20)
(0.660248 -0.221466 1.54706e-19)
(0.682012 -0.209243 -1.78359e-19)
(0.702764 -0.197714 1.02417e-19)
(0.722065 -0.186883 1.47407e-19)
(0.667624 -0.233861 -1.00528e-20)
(0.688926 -0.220926 -7.74112e-21)
(0.709274 -0.208716 -1.46565e-19)
(0.728168 -0.197252 -3.4456e-19)
(0.675404 -0.245982 -4.57206e-20)
(0.69622 -0.232352 -1.63609e-19)
(0.716141 -0.219476 6.32254e-20)
(0.734608 -0.207394 3.20231e-19)
(0.68358 -0.257812 1.11129e-19)
(0.703884 -0.243508 2.34914e-19)
(0.723356 -0.22998 3.04539e-20)
(0.741377 -0.217295 -3.16053e-19)
(0.692139 -0.26934 -2.8169e-19)
(0.711908 -0.25438 -5.49219e-20)
(0.730909 -0.240218 -4.61466e-20)
(0.748467 -0.226945 2.0021e-19)
(0.72028 -0.264957 -8.98256e-21)
(0.738789 -0.250178 2.142e-19)
(0.755868 -0.236331 1.0248e-19)
(0.728989 -0.275226 -1.06756e-19)
(0.746987 -0.259848 -1.28132e-20)
(0.763572 -0.245444 1.23716e-19)
(0.738023 -0.285177 -6.21464e-21)
(0.755492 -0.269219 -2.16587e-19)
(0.77157 -0.254273 -9.3254e-20)
(0.747371 -0.2948 1.6707e-19)
(0.764292 -0.27828 1.60942e-19)
(0.779851 -0.262807 1.59206e-19)
(0.773376 -0.287023 -6.15424e-20)
(0.788406 -0.271039 -1.68799e-19)
(0.782732 -0.295439 -2.5137e-19)
(0.797225 -0.278958 1.14859e-19)
(0.79235 -0.303521 4.08127e-19)
(0.806298 -0.286558 8.76302e-20)
(0.815615 -0.293831 -5.63741e-20)
(0.825166 -0.300769 -2.35491e-19)
(0.834942 -0.307369 4.08428e-19)
(0.99996 0.00181126 0)
(0.998882 0.00500111 0)
(0.996702 0.00803646 0)
(0.993731 0.0111501 0)
(0.989849 0.0145971 0)
(0.985341 0.0185774 0)
(0.980041 0.023287 0)
(0.974268 0.0288892 0)
(0.967817 0.0355696 0)
(0.9611 0.0434656 0)
(0.953853 0.0527864 0)
(0.946665 0.0636386 0)
(0.939169 0.0762784 0)
(0.93226 0.0907379 0)
(0.925345 0.10735 0)
(0.919865 0.125946 0)
(0.914705 0.147038 0)
(0.912336 0.169907 0)
(0.910407 0.195745 -2.48322e-28)
(0.913502 0.222012 2.63885e-28)
(0.916454 0.253202 0)
(0.999962 0.00193002 0)
(0.998933 0.00536162 0)
(0.99684 0.00864215 0)
(0.993997 0.0120014 0)
(0.990282 0.0157105 0)
(0.985998 0.0199455 0)
(0.980973 0.024929 0)
(0.975562 0.0307826 0)
(0.969546 0.0377267 0)
(0.963389 0.0458321 0)
(0.956804 0.0553552 0)
(0.950458 0.066294 0)
(0.943928 0.0789802 0)
(0.938233 0.0932579 0)
(0.932662 0.109615 0)
(0.928849 0.12752 0)
(0.925429 0.14788 0)
(0.925197 0.169147 -1.07913e-28)
(0.925283 0.193666 1.14774e-28)
(0.930885 0.216659 -1.34413e-28)
(0.935554 0.245964 1.42904e-28)
(0.999962 0.00204837 0)
(0.99899 0.00572059 0)
(0.996996 0.00924807 0)
(0.994303 0.0128535 0)
(0.990781 0.0168262 0)
(0.986753 0.0213156 0)
(0.982041 0.0265723 0)
(0.977031 0.0326733 0)
(0.971491 0.039875 0)
(0.965935 0.0481774 0)
(0.960045 0.0578858 0)
(0.954558 0.0688815 0)
(0.948997 0.0815775 0)
(0.944471 0.0956131 0)
(0.940165 0.111647 0)
(0.937836 0.128756 0)
(0.935932 0.148265 0)
(0.937398 0.167811 0)
(0.939067 0.190751 0)
(0.946242 0.210671 0)
(0.952053 0.237247 0)
(0.999963 0.0021643 0)
(0.99905 0.00607134 0)
(0.997165 0.00983859 0)
(0.994634 0.0136796 0)
(0.991323 0.0179013 0)
(0.987573 0.0226275 0)
(0.983199 0.0281335 0)
(0.978617 0.0344546 0)
(0.973584 0.0418778 0)
(0.968651 0.0503375 0)
(0.963483 0.0601812 0)
(0.958858 0.0711826 0)
(0.954266 0.0838269 0)
(0.950857 0.0975686 0)
(0.947763 0.113217 0)
(0.946751 0.129518 0)
(0.946218 0.148126 0)
(0.949013 0.166104 0)
(0.952002 0.187416 0)
(0.960078 0.204929 0)
(0.966853 0.228831 0)
(0.999964 0.00227603 0)
(0.999112 0.00640884 0)
(0.997344 0.0104059 0)
(0.994983 0.0144696 0)
(0.991896 0.0189235 0)
(0.988437 0.0238654 0)
(0.984421 0.0295921 0)
(0.980281 0.0360982 0)
(0.975775 0.0436972 0)
(0.971471 0.0522601 0)
(0.967037 0.0621712 0)
(0.963256 0.0731034 0)
(0.959621 0.0856056 0)
(0.957258 0.0989686 0)
(0.955316 0.114126 0)
(0.95546 0.129566 0)
(0.956162 0.147173 0)
(0.959995 0.163662 0)
(0.964093 0.183295 0)
(0.972689 0.198775 0)
(0.980246 0.220201 0)
(0.999966 0.0023828 0)
(0.999175 0.00673102 0)
(0.99753 0.010947 0)
(0.995345 0.0152199 0)
(0.992494 0.0198887 0)
(0.989332 0.0250245 0)
(0.985689 0.0309431 0)
(0.981994 0.0375987 0)
(0.978027 0.0453276 0)
(0.974346 0.0539395 0)
(0.970643 0.063851 0)
(0.967673 0.0746413 0)
(0.964964 0.0869132 0)
(0.963564 0.0998188 0)
(0.962691 0.114386 0)
(0.963834 0.128918 0)
(0.965621 0.145437 0)
(0.970262 0.160495 0)
(0.975255 0.178433 0)
(0.984135 0.192095 0)
(0.992225 0.211193 0)
(0.999969 0.00248405 0)
(0.999241 0.00703636 0)
(0.997724 0.0114593 0)
(0.995718 0.0159269 0)
(0.993112 0.0207922 0)
(0.990253 0.0260992 0)
(0.986989 0.0321802 0)
(0.983741 0.0389495 0)
(0.980313 0.0467631 0)
(0.977241 0.0553729 0)
(0.974254 0.0652214 0)
(0.97205 0.0758063 0)
(0.970218 0.08777 0)
(0.969692 0.100158 0)
(0.969788 0.114056 0)
(0.971784 0.12766 0)
(0.974493 0.143043 0)
(0.97975 0.156743 0)
(0.985431 0.173022 0)
(0.994411 0.185047 0)
(1.00281 0.201976 0)
(0.999973 0.00257921 0)
(0.999308 0.00732326 0)
(0.997924 0.0119398 0)
(0.9961 0.0165866 0)
(0.993747 0.0216287 0)
(0.99119 0.0270834 0)
(0.988312 0.033296 0)
(0.985504 0.0401438 0)
(0.982613 0.0479971 0)
(0.980128 0.0565566 0)
(0.977831 0.0662828 0)
(0.976344 0.0766069 0)
(0.975328 0.0881949 0)
(0.975583 0.100021 0)
(0.976537 0.113193 0)
(0.979249 0.125868 0)
(0.982718 0.140101 0)
(0.988425 0.152524 0)
(0.994606 0.167218 0)
(1.00354 0.177778 0)
(1.01207 0.192731 -1.19801e-29)
(0.999977 0.0026677 0)
(0.999376 0.00759006 0)
(0.99813 0.0123858 0)
(0.996489 0.0171953 0)
(0.994392 0.0223933 0)
(0.992139 0.0279713 0)
(0.989647 0.0342845 0)
(0.987272 0.0411759 0)
(0.984905 0.0490253 0)
(0.982982 0.0574897 0)
(0.981341 0.0670385 0)
(0.980519 0.0770546 0)
(0.980247 0.0882098 0)
(0.981194 0.0994419 0)
(0.982891 0.111849 0)
(0.98619 0.123608 0)
(0.990267 0.136704 0)
(0.996282 0.147934 0)
(1.0028 0.161138 0)
(1.01158 0.170393 0)
(1.0201 0.183574 0)
(0.999981 0.00274894 0)
(0.999444 0.0078352 0)
(0.998338 0.0127944 0)
(0.996883 0.0177493 0)
(0.995045 0.0230814 0)
(0.993094 0.0287584 0)
(0.990983 0.0351409 0)
(0.989031 0.0420423 0)
(0.98717 0.0498455 0)
(0.985783 0.0581741 0)
(0.984755 0.067496 0)
(0.984542 0.0771648 0)
(0.98494 0.0878414 0)
(0.986489 0.0984594 0)
(0.988817 0.110081 0)
(0.992586 0.120946 0)
(0.997133 0.132936 0)
(1.00333 0.143056 0)
(1.01005 0.154881 0)
(1.01859 0.162976 0)
(1.027 0.174576 0)
(0.999985 0.00282237 0)
(0.999514 0.00805724 0)
(0.998549 0.0131631 0)
(0.997279 0.0182455 0)
(0.995699 0.0236892 0)
(0.994047 0.0294408 0)
(0.99231 0.0358614 0)
(0.990768 0.042741 0)
(0.989392 0.0504583 0)
(0.988508 0.0586145 0)
(0.988049 0.0676662 0)
(0.988389 0.0769558 0)
(0.989379 0.0871194 0)
(0.991445 0.0971126 0)
(0.994296 0.107943 0)
(0.99843 0.117944 0)
(1.00332 0.128876 0)
(1.00961 0.137968 0)
(1.0164 0.148528 0)
(1.02464 0.155594 0)
(1.03286 0.16579 0)
(0.99999 0.00288748 0)
(0.999584 0.00825487 0)
(0.99876 0.0134896 0)
(0.997675 0.0186811 0)
(0.99635 0.0242133 0)
(0.994992 0.0300155 0)
(0.993619 0.0364439 0)
(0.992471 0.0432714 0)
(0.991554 0.0508663 0)
(0.99114 0.0588177 0)
(0.991201 0.0675627 0)
(0.992035 0.0764483 0)
(0.993543 0.0860757 0)
(0.996044 0.0954416 0)
(0.99932 0.10549 4.5485e-28)
(1.00372 0.114662 -4.8399e-28)
(1.00885 0.124593 0)
(1.01514 0.132741 0)
(1.02192 0.142148 -7.1877e-29)
(1.02981 0.148305 1.28323e-29)
(1.03778 0.157256 6.76215e-29)
(0.999994 0.0029438 0)
(0.999653 0.00842691 0)
(0.998969 0.0137719 0)
(0.998068 0.0190537 0)
(0.996994 0.0246513 0)
(0.995922 0.0304803 0)
(0.9949 0.0368873 0)
(0.994127 0.0436346 0)
(0.993641 0.0510738 0)
(0.993662 0.0587924 0)
(0.994193 0.0672011 0)
(0.995464 0.0756644 0)
(0.997415 0.0847427 0)
(1.00027 0.0934864 0)
(1.00389 0.102772 0)
(1.00847 0.111156 0)
(1.01375 0.120149 0)
(1.01997 0.127433 0)
(1.02666 0.135795 0)
(1.03418 0.141152 0)
(1.04185 0.149004 0)
(0.999998 0.0029909 0)
(0.999723 0.00857234 0)
(0.999175 0.0140084 0)
(0.998456 0.0193614 0)
(0.997625 0.0250012 0)
(0.996832 0.0308341 0)
(0.996143 0.0371918 0)
(0.995726 0.0438329 0)
(0.995639 0.0510873 0)
(0.996057 0.0585492 0)
(0.997008 0.0665989 0)
(0.99866 0.0746278 0)
(1.00099 0.0831526 0)
(1.00413 0.0912858 0)
(1.008 0.0998349 0)
(1.0127 0.107477 0)
(1.01804 0.115598 0)
(1.02414 0.122096 0)
(1.03068 0.129517 0)
(1.03782 0.13417 0)
(1.04516 0.141055 0)
(1 0.00302847 0)
(0.999792 0.00869033 0)
(0.999377 0.0141976 0)
(0.998835 0.0196028 0)
(0.998239 0.025262 0)
(0.997713 0.0310764 0)
(0.997341 0.0373591 0)
(0.997257 0.0438701 0)
(0.997536 0.0509147 0)
(0.998313 0.0581002 0)
(0.999634 0.0657745 0)
(1.00161 0.0733626 0)
(1.00425 0.0813374 0)
(1.00762 0.0888771 0)
(1.01166 0.0967233 0)
(1.01642 0.103669 0)
(1.02176 0.110986 0)
(1.02769 0.116771 0)
(1.03405 0.123348 0)
(1.0408 0.127385 0)
(1.04778 0.13342 0)
(1 0.00305624 0)
(0.999859 0.00878019 0)
(0.999573 0.0143388 0)
(0.999203 0.0197769 0)
(0.998832 0.0254334 0)
(0.998561 0.0312079 0)
(0.998485 0.0373919 0)
(0.99871 0.0437514 0)
(0.999323 0.0505652 0)
(1.00042 0.0574587 0)
(1.00206 0.0647473 0)
(1.00431 0.0718933 0)
(1.0072 0.0793277 0)
(1.01073 0.0862956 0)
(1.01489 0.0934759 0)
(1.01965 0.0997734 0)
(1.02494 0.106352 0)
(1.03068 0.111494 0)
(1.03681 0.117315 0)
(1.04317 0.120814 0)
(1.0498 0.126104 0)
(1.00001 0.00307405 0)
(0.999924 0.00884145 0)
(0.999762 0.0144315 0)
(0.999558 0.0198833 0)
(0.9994 0.0255159 0)
(0.99937 0.0312301 0)
(0.999568 0.0372941 0)
(1.00008 0.0434832 0)
(1.00099 0.0500492 0)
(1.00237 0.0566391 0)
(1.00428 0.0635369 0)
(1.00676 0.0702443 0)
(1.00984 0.077153 0)
(1.01349 0.083574 0)
(1.01771 0.0901281 0)
(1.02242 0.0958254 0)
(1.02762 0.101729 0)
(1.03314 0.106293 0)
(1.03903 0.111441 0)
(1.04501 0.11447 0)
(1.05128 0.119106 1.86824e-29)
(1.00001 0.00308183 0)
(0.999987 0.00887384 0)
(0.999943 0.0144755 0)
(0.999896 0.0199222 0)
(0.99994 0.0255107 0)
(1.00013 0.0311455 0)
(1.00059 0.0370705 0)
(1.00135 0.0430728 0)
(1.00253 0.0493781 0)
(1.00415 0.0556565 0)
(1.0063 0.062163 0)
(1.00896 0.0684394 0)
(1.01218 0.0748411 0)
(1.01589 0.0807427 0)
(1.02013 0.0867114 0)
(1.02477 0.0918557 0)
(1.02984 0.0971457 -1.34273e-28)
(1.03513 0.101191 1.42837e-28)
(1.04075 0.10574 0)
(1.04636 0.10836 0)
(1.05228 0.112423 0)
(1.00001 0.00307962 0)
(1.00005 0.00887735 0)
(1.00011 0.0144713 0)
(1.00022 0.0198943 0)
(1.00045 0.0254198 0)
(1.00085 0.0309574 0)
(1.00153 0.0367269 0)
(1.00253 0.0425287 0)
(1.00394 0.0485637 0)
(1.00577 0.0545265 0)
(1.0081 0.0606452 0)
(1.0109 0.0665015 0)
(1.01422 0.0724178 0)
(1.01796 0.0778293 0)
(1.02218 0.0832537 0)
(1.02671 0.0878905 0)
(1.03162 0.0926239 0)
(1.03667 0.0962056 0)
(1.04203 0.100223 0)
(1.04728 0.102486 0)
(1.05285 0.106049 0)
(1.00001 0.00306752 0)
(1.0001 0.00885216 0)
(1.00027 0.0144196 0)
(1.00052 0.0198009 0)
(1.00092 0.0252459 0)
(1.00151 0.03067 0)
(1.0024 0.0362698 0)
(1.0036 0.0418601 0)
(1.00521 0.0476185 0)
(1.00722 0.0532647 0)
(1.0097 0.0590027 0)
(1.0126 0.0644527 0)
(1.01597 0.0699073 0)
(1.01971 0.0748587 0)
(1.02387 0.0797795 0)
(1.02827 0.0839524 0)
(1.03301 0.0881827 0)
(1.03781 0.0913509 0)
(1.0429 0.094897 -2.5542e-29)
(1.04781 0.0968502 4.973e-30)
(1.05305 0.0999735 2.35903e-29)
(1.00001 0.00304574 0)
(1.00016 0.00879874 0)
(1.00042 0.0143214 0)
(1.00079 0.019644 0)
(1.00136 0.0249921 0)
(1.00212 0.0302882 0)
(1.00319 0.0357066 0)
(1.00457 0.0410767 0)
(1.00635 0.0465555 0)
(1.00849 0.051887 0)
(1.01109 0.0572539 0)
(1.01405 0.0623135 0)
(1.01745 0.0673317 0)
(1.02115 0.0718534 0)
(1.02523 0.07631 0)
(1.02948 0.0800602 0)
(1.03404 0.083837 0)
(1.0386 0.0866368 0)
(1.04341 0.0897652 0)
(1.048 0.0914492 0)
(1.05291 0.0941877 0)
(1.00001 0.00301457 0)
(1.0002 0.00871778 0)
(1.00056 0.0141785 0)
(1.00105 0.0194257 0)
(1.00175 0.0246625 0)
(1.00267 0.0298175 0)
(1.0039 0.035045 0)
(1.00543 0.0401888 0)
(1.00735 0.0453874 0)
(1.0096 0.0504087 0)
(1.01228 0.0554167 0)
(1.01528 0.0601035 0)
(1.01867 0.064711 0)
(1.02231 0.0688332 0)
(1.02629 0.0728635 0)
(1.03038 0.0762298 2.09601e-28)
(1.03474 0.0795985 -2.23001e-28)
(1.03905 0.0820708 0)
(1.0436 0.0848293 0)
(1.04788 0.0862795 0)
(1.05249 0.0886805 0)
(1.00001 0.00297438 0)
(1.00025 0.00861021 0)
(1.00068 0.0139925 0)
(1.00128 0.0191492 0)
(1.00211 0.0242613 0)
(1.00316 0.0292641 0)
(1.00453 0.0342933 0)
(1.00619 0.0392069 0)
(1.00821 0.0441271 0)
(1.01055 0.048845 0)
(1.01327 0.0535077 0)
(1.01628 0.0578404 0)
(1.01964 0.0620634 0)
(1.02321 0.0658156 0)
(1.02706 0.0694557 0)
(1.03099 0.0724741 0)
(1.03515 0.0754762 0)
(1.03922 0.0776577 0)
(1.04351 0.0800888 0)
(1.0475 0.081336 0)
(1.05181 0.0834407 0)
(1.00001 0.00292559 0)
(1.00029 0.00847722 0)
(1.00079 0.0137658 0)
(1.00148 0.0188176 0)
(1.00242 0.0237934 0)
(1.0036 0.0286345 0)
(1.00508 0.0334599 0)
(1.00684 0.0381416 0)
(1.00894 0.0427874 0)
(1.01134 0.0472102 0)
(1.01409 0.0515427 0)
(1.01708 0.0555408 0)
(1.02039 0.0594052 0)
(1.02386 0.0628159 0)
(1.02758 0.0660997 0)
(1.03133 0.0688036 0)
(1.03529 0.0714768 0)
(1.03913 0.0734004 0)
(1.04316 0.0755418 0)
(1.04688 0.0766128 0)
(1.05091 0.078457 -2.70235e-29)
(1.00001 0.00286872 0)
(1.00032 0.00832018 0)
(1.00089 0.0135007 0)
(1.00166 0.0184348 0)
(1.0027 0.023264 0)
(1.00397 0.0279356 0)
(1.00554 0.0325538 -2.33583e-29)
(1.00738 0.0370036 2.48697e-29)
(1.00955 0.0413805 0)
(1.01198 0.0455182 0)
(1.01473 0.0495366 1.08877e-28)
(1.01769 0.0532198 -1.15896e-28)
(1.02092 0.0567509 0)
(1.02428 0.0598473 0)
(1.02786 0.0628066 0)
(1.03144 0.0652266 0)
(1.03519 0.0676053 0)
(1.0388 0.0693001 0)
(1.0426 0.0711852 0)
(1.04605 0.0721033 0)
(1.04983 0.0737184 0)
(1.00001 0.00280432 0)
(1.00035 0.00814066 0)
(1.00097 0.0132001 0)
(1.00182 0.0180047 0)
(1.00293 0.0226787 0)
(1.00428 0.0271747 0)
(1.00593 0.0315837 0)
(1.00783 0.0358034 0)
(1.01004 0.0399185 0)
(1.01248 0.0437821 0)
(1.01521 0.0475028 0)
(1.01811 0.0508908 0)
(1.02126 0.0541133 0)
(1.0245 0.0569212 0)
(1.02793 0.0595856 0)
(1.03133 0.0617498 0)
(1.03489 0.0638649 0)
(1.03828 0.065357 0)
(1.04184 0.0670153 0)
(1.04505 0.0678006 0)
(1.04858 0.0692138 0)
(1.00001 0.00273298 0)
(1.00038 0.00794042 1.5849e-29)
(1.00104 0.0128668 -1.68772e-29)
(1.00195 0.0175316 0)
(1.00313 0.0220431 0)
(1.00454 0.0263589 0)
(1.00624 0.0305585 0)
(1.00818 0.0345512 0)
(1.01041 0.0384128 0)
(1.01284 0.042014 0)
(1.01553 0.0454539 0)
(1.01837 0.0485661 0)
(1.02143 0.0515035 0)
(1.02454 0.0540474 0)
(1.02781 0.056444 0)
(1.03104 0.0583782 0)
(1.0344 0.0602574 0)
(1.03758 0.06157 0)
(1.04092 0.0630275 -3.99806e-29)
(1.04391 0.0636976 5.96391e-30)
(1.04719 0.0649328 3.88601e-29)
(1.00001 0.00265535 0)
(1.0004 0.00772132 0)
(1.0011 0.0125041 0)
(1.00205 0.01702 0)
(1.00328 0.0213632 0)
(1.00475 0.0254956 0)
(1.00649 0.0294868 0)
(1.00845 0.0332571 0)
(1.01067 0.0368742 0)
(1.01308 0.0402254 0)
(1.01572 0.0434011 0)
(1.01848 0.0462566 0)
(1.02143 0.0489312 0)
(1.02441 0.0512338 0)
(1.02753 0.053388 0)
(1.03058 0.0551153 0)
(1.03375 0.0567837 0)
(1.03673 0.0579375 0)
(1.03985 0.0592172 0)
(1.04263 0.0597872 0)
(1.0457 0.0608654 0)
(1.00001 0.00257211 0)
(1.00041 0.00748537 0)
(1.00114 0.0121152 0)
(1.00213 0.0164746 0)
(1.0034 0.0206449 0)
(1.0049 0.0245922 0)
(1.00666 0.0283772 0)
(1.00862 0.0319304 0)
(1.01083 0.0353128 0)
(1.0132 0.0384267 0)
(1.01578 0.0413548 0)
(1.01846 0.0439717 0)
(1.02129 0.0464048 0)
(1.02413 0.0484874 0)
(1.02709 0.0504221 0)
(1.02998 0.0519636 0)
(1.03296 0.0534437 0)
(1.03575 0.0544569 0)
(1.03867 0.0555792 0)
(1.04126 0.0560624 0)
(1.04411 0.0570018 0)
(1.00001 0.00248395 0)
(1.00042 0.0072346 0)
(1.00118 0.0117034 0)
(1.00219 0.0159001 0)
(1.00349 0.0198942 0)
(1.005 0.0236557 0)
(1.00677 0.0272379 0)
(1.00872 0.0305803 0)
(1.0109 0.0337381 0)
(1.01322 0.0366275 0)
(1.01573 0.039324 0)
(1.01831 0.0417199 0)
(1.02102 0.0439314 0)
(1.02373 0.0458136 0)
(1.02654 0.04755 0)
(1.02926 0.0489248 0)
(1.03205 0.0502368 0)
(1.03467 0.0511255 0)
(1.0374 0.0521084 0)
(1.0398 0.0525162 0)
(1.04245 0.053333 -2.17038e-29)
(1.00001 0.00239161 0)
(1.00043 0.00697114 0)
(1.0012 0.0112722 0)
(1.00223 0.015301 0)
(1.00354 0.019117 0)
(1.00506 0.0226932 0)
(1.00682 0.0260767 0)
(1.00875 0.0292151 0)
(1.01089 0.0321589 1.24366e-28)
(1.01315 0.0348364 -1.324e-28)
(1.01557 0.037317 0)
(1.01805 0.0395086 0)
(1.02064 0.041517 0)
(1.02322 0.0432169 0)
(1.02587 0.0447743 0)
(1.02843 0.0459996 0)
(1.03105 0.0471614 0)
(1.0335 0.0479401 0)
(1.03604 0.0487996 0)
(1.03827 0.049142 0)
(1.04074 0.0498504 0)
(1.00001 0.00229578 0)
(1.00044 0.0066971 0)
(1.00121 0.0108249 0)
(1.00225 0.0146821 0)
(1.00356 0.0183189 0)
(1.00507 0.0217114 0)
(1.00681 0.0249009 0)
(1.00872 0.0278429 0)
(1.0108 0.0305832 0)
(1.013 0.0330613 0)
(1.01532 0.035341 0)
(1.0177 0.0373438 0)
(1.02017 0.0391665 0)
(1.02261 0.0407008 0)
(1.02511 0.0420966 0)
(1.02752 0.043188 0)
(1.02998 0.0442159 0)
(1.03226 0.0448972 0)
(1.03463 0.0456474 0)
(1.0367 0.0459332 0)
(1.03899 0.0465458 0)
(1.00001 0.00219718 0)
(1.00044 0.00641458 0)
(1.00121 0.0103649 0)
(1.00225 0.0140478 0)
(1.00355 0.0175055 0)
(1.00505 0.0207167 0)
(1.00676 0.0237177 0)
(1.00862 0.0264709 0)
(1.01065 0.0290183 0)
(1.01277 0.0313091 0)
(1.015 0.0334021 0)
(1.01727 0.035231 0)
(1.01961 0.0368839 0)
(1.02192 0.0382679 0)
(1.02428 0.039518 0)
(1.02654 0.0404894 0)
(1.02884 0.0413979 0)
(1.03096 0.0419932 0)
(1.03317 0.0426466 -4.09434e-29)
(1.03509 0.0428835 4.08886e-30)
(1.03722 0.0434114 4.19416e-29)
(1.00001 0.00209653 0)
(1.00043 0.00612563 0)
(1.0012 0.00989536 0)
(1.00223 0.0134026 0)
(1.00352 0.0166821 0)
(1.005 0.019715 0)
(1.00667 0.0225334 0)
(1.00848 0.0251058 0)
(1.01044 0.0274707 0)
(1.01247 0.0295859 0)
(1.01461 0.0315057 0)
(1.01677 0.0331745 0)
(1.01899 0.0346725 0)
(1.02117 0.0359201 0)
(1.02339 0.037039 0)
(1.0255 0.037903 0)
(1.02765 0.038705 0)
(1.02963 0.0392243 0)
(1.03169 0.0397921 0)
(1.03347 0.0399867 0)
(1.03544 0.0404398 0)
(1.00001 0.00199448 0)
(1.00043 0.00583222 0)
(1.00118 0.00941951 0)
(1.0022 0.0127505 0)
(1.00346 0.0158536 0)
(1.00491 0.018712 0)
(1.00654 0.021354 0)
(1.00829 0.0237536 0)
(1.01018 0.0259461 0)
(1.01213 0.0278971 0)
(1.01417 0.0296565 0)
(1.01622 0.031178 0)
(1.01831 0.0325346 0)
(1.02037 0.0336586 0)
(1.02245 0.0346594 0)
(1.02443 0.0354272 0)
(1.02643 0.0361344 0)
(1.02828 0.0365865 0)
(1.03019 0.0370788 0)
(1.03184 0.0372368 0)
(1.03367 0.0376241 0)
(1.00001 0.00189168 0)
(1.00042 0.00553624 0)
(1.00116 0.00894028 0)
(1.00216 0.0120955 0)
(1.00339 0.0150246 0)
(1.0048 0.0177128 0)
(1.00637 0.0201849 0)
(1.00807 0.0224197 0)
(1.00987 0.0244498 0)
(1.01174 0.0262473 0)
(1.01368 0.0278581 0)
(1.01562 0.0292443 0)
(1.0176 0.0304721 0)
(1.01953 0.0314841 0)
(1.02148 0.0323786 0)
(1.02333 0.0330604 0)
(1.0252 0.0336831 0)
(1.02691 0.034076 0)
(1.02868 0.0345015 0)
(1.03022 0.0346282 0)
(1.03191 0.0349574 -2.5539e-29)
(1.00001 0.00178876 0)
(1.00041 0.00523949 0)
(1.00113 0.00846048 0)
(1.0021 0.0114412 0)
(1.0033 0.0141995 0)
(1.00466 0.0167221 0)
(1.00618 0.019031 0)
(1.00781 0.0211089 0)
(1.00954 0.0229861 0)
(1.01131 0.0246403 0)
(1.01315 0.0261138 0)
(1.01499 0.0273757 0)
(1.01685 0.0284861 0)
(1.01866 0.0293967 0)
(1.02048 0.0301955 0)
(1.02221 0.0308003 0)
(1.02395 0.0313479 0)
(1.02555 0.0316886 0)
(1.02719 0.0320552 0)
(1.02861 0.0321552 0)
(1.03017 0.0324334 0)
(1.00001 0.00168628 0)
(1.00039 0.00494363 0)
(1.00109 0.00798268 0)
(1.00204 0.010791 0)
(1.00319 0.0133822 0)
(1.00451 0.0157441 0)
(1.00597 0.0178964 0)
(1.00753 0.0198254 0)
(1.00917 0.0215587 0)
(1.01086 0.0230792 0)
(1.0126 0.0244259 0)
(1.01433 0.0255737 0)
(1.01608 0.0265771 0)
(1.01778 0.0273959 0)
(1.01948 0.0281087 0)
(1.02109 0.0286448 0)
(1.02271 0.0291256 0)
(1.02419 0.0294203 0)
(1.02571 0.0297351 0)
(1.02703 0.0298122 -9.95159e-30)
(1.02847 0.0300458 1.05801e-29)
(1.00001 0.00158476 0)
(1.00038 0.00465019 0)
(1.00105 0.00750925 0)
(1.00196 0.0101479 0)
(1.00308 0.012576 0)
(1.00434 0.0147826 0)
(1.00574 0.016785 0)
(1.00722 0.0185726 0)
(1.00879 0.0201709 0)
(1.01039 0.0215668 0)
(1.01203 0.0227962 0)
(1.01366 0.0238392 0)
(1.0153 0.0247454 0)
(1.01689 0.025481 0)
(1.01847 0.0261165 0)
(1.01998 0.0265912 0)
(1.02148 0.0270127 0)
(1.02285 0.027267 0)
(1.02426 0.0275363 -1.89456e-29)
(1.02548 0.0275941 2.01465e-29)
(1.02681 0.0277887 0)
(1.00001 0.00148468 0)
(1.00037 0.00436055 0)
(1.00101 0.00704229 0)
(1.00189 0.00951454 0)
(1.00295 0.0117841 0)
(1.00416 0.0138408 0)
(1.0055 0.0157 0)
(1.00691 0.0173535 0)
(1.00839 0.018825 0)
(1.0099 0.0201049 0)
(1.01145 0.021226 0)
(1.01298 0.022173 0)
(1.01451 0.0229905 0)
(1.016 0.0236509 0)
(1.01748 0.0242168 0)
(1.01887 0.0246367 0)
(1.02027 0.0250056 0)
(1.02154 0.0252244 0)
(1.02284 0.0254539 0)
(1.02397 0.0254954 0)
(1.0252 0.025656 -1.54429e-29)
(1.00001 0.00138647 0)
(1.00035 0.00407592 0)
(1.00097 0.00658369 0)
(1.0018 0.0088934 0)
(1.00282 0.0110091 0)
(1.00398 0.0129214 0)
(1.00524 0.014644 0)
(1.00658 0.0161707 0)
(1.00799 0.0175232 0)
(1.00941 0.0186949 0)
(1.01086 0.019716 0)
(1.0123 0.0205748 0)
(1.01373 0.0213116 0)
(1.01512 0.0219039 0)
(1.01649 0.0224075 0)
(1.01779 0.0227784 0)
(1.01908 0.0231006 0)
(1.02027 0.0232884 0)
(1.02147 0.023483 0)
(1.02251 0.0235109 0)
(1.02364 0.0236422 0)
(1.00001 0.00129047 0)
(1.00033 0.00379735 0)
(1.00092 0.00613505 0)
(1.00172 0.00828645 0)
(1.00269 0.0102532 0)
(1.00379 0.0120268 0)
(1.00499 0.0136192 0)
(1.00625 0.0150258 0)
(1.00758 0.0162667 0)
(1.00892 0.0173378 0)
(1.01028 0.0182664 0)
(1.01162 0.0190443 0)
(1.01296 0.0197077 0)
(1.01425 0.0202383 0)
(1.01553 0.0206858 0)
(1.01674 0.0210131 0)
(1.01794 0.021294 0)
(1.01903 0.0214547 0)
(1.02014 0.021619 0)
(1.02111 0.0216356 0)
(1.02215 0.0217416 0)
(1.00001 0.00119699 0)
(1.00032 0.00352574 0)
(1.00088 0.00569773 0)
(1.00163 0.00769535 0)
(1.00255 0.00951839 0)
(1.00359 0.0111588 0)
(1.00473 0.0126271 0)
(1.00592 0.0139202 0)
(1.00717 0.0150566 0)
(1.00843 0.0160338 0)
(1.0097 0.0168771 0)
(1.01096 0.0175807 0)
(1.01221 0.0181771 0)
(1.01341 0.0186519 0)
(1.0146 0.0190491 0)
(1.01572 0.0193374 0)
(1.01683 0.0195819 0)
(1.01784 0.0197189 0)
(1.01886 0.0198568 2.52839e-29)
(1.01976 0.0198643 -1.13382e-30)
(1.02071 0.0199486 -2.73789e-29)
(1.00001 0.00110628 0)
(1.0003 0.0032618 0)
(1.00083 0.0052728 0)
(1.00155 0.00712146 0)
(1.00242 0.00880595 0)
(1.0034 0.0103188 0)
(1.00447 0.0116691 0)
(1.0056 0.0128549 0)
(1.00677 0.0138931 0)
(1.00795 0.014783 0)
(1.00914 0.0155474 0)
(1.01031 0.0161827 0)
(1.01147 0.0167181 0)
(1.0126 0.0171423 0)
(1.0137 0.0174943 0)
(1.01474 0.017748 0)
(1.01576 0.0179602 0)
(1.0167 0.0180766 0)
(1.01764 0.0181917 0)
(1.01847 0.0181919 0)
(1.01935 0.0182577 0)
(1.00001 0.00101853 0)
(1.00028 0.0030061 0)
(1.00078 0.00486112 0)
(1.00146 0.00656577 0)
(1.00228 0.00811695 0)
(1.00321 0.00950765 0)
(1.00422 0.0107457 0)
(1.00528 0.0118301 0)
(1.00637 0.0127763 0)
(1.00748 0.0135847 0)
(1.00859 0.0142761 0)
(1.00969 0.0148486 -1.64786e-29)
(1.01077 0.0153284 1.75395e-29)
(1.01181 0.0157069 -1.72475e-29)
(1.01283 0.0160182 1.83544e-29)
(1.0138 0.016241 0)
(1.01474 0.0164248 0)
(1.01561 0.0165234 0)
(1.01648 0.0166189 0)
(1.01724 0.0166133 0)
(1.01805 0.0166636 3.47852e-29)
(1.00001 0.000933878 0)
(1.00026 0.00275903 0)
(1.00074 0.00446326 0)
(1.00137 0.00602897 0)
(1.00215 0.00745205 0)
(1.00302 0.00872591 0)
(1.00397 0.00985728 0)
(1.00496 0.0108459 0)
(1.00599 0.0117057 0)
(1.00703 0.0124381 0)
(1.00807 0.0130619 0)
(1.00909 0.0135767 0)
(1.01009 0.0140057 0)
(1.01106 0.0143426 0)
(1.01201 0.0146175 0)
(1.0129 0.0148127 0)