/*--------------------------------*- C++ -*----------------------------------*\
  =========                 |
  \\      /  F ield         | OpenFOAM: The Open Source CFD Toolbox
   \\    /   O peration     | Website:  https://openfoam.org
    \\  /    A nd           | Version:  7
     \\/     M anipulation  |
\*---------------------------------------------------------------------------*/
FoamFile
{
    version     2.0;
    format      ascii;
    class       surfaceScalarField;
    location    "80";
    object      phi;
}
// * * * * * * * * * * * * * * * * * * * * * * * * * * * * * * * * * * * * * //

dimensions      [0 3 -1 0 0 0 0];

internalField   nonuniform List<scalar> 
14031
(
0.00132713
-0.00803165
0.00802641
0.00132014
-0.00804322
0.00805021
0.00129822
-0.00805032
0.00807224
0.00125892
-0.00822755
0.00826684
0.00120726
-0.00849998
0.00855163
0.00115634
-0.00845217
0.00850309
0.00112046
-0.00756632
0.0076022
0.00110823
-0.00560217
0.0056144
0.00112115
-0.00276953
0.0027566
0.00115456
0.00040223
-0.000435632
0.00119873
0.00333904
-0.00338322
0.00124317
0.00564502
-0.00568946
0.00128109
0.00717243
-0.00721035
0.00130802
0.00799007
-0.008017
0.0013184
0.00837861
-0.00838899
0.00130745
0.00870741
-0.00869646
0.00127613
0.00914279
-0.00911147
0.00123273
0.00942774
-0.00938433
0.00118902
0.0090351
-0.00899139
0.00115485
0.00755658
-0.00752241
0.00113636
0.00499377
-0.00497529
0.00113693
0.00174285
-0.00174341
0.00115657
-0.00159913
0.00157948
0.00119011
-0.00445497
0.00442143
0.00122626
-0.00652999
0.00649384
0.00125095
-0.00789021
0.00786552
0.00125403
-0.00885503
0.00885195
0.00123417
-0.00955849
0.00957836
-0.00986224
0.00989789
0.00132104
-0.00803538
0.00131295
-0.00803512
0.00129019
-0.00802756
0.00125012
-0.00818748
0.00119773
-0.00844759
0.00114648
-0.00840091
0.00111114
-0.00753098
0.00110049
-0.00559151
0.00111571
-0.00278475
0.0011516
0.000366342
0.00119808
0.00329256
0.00124453
0.00559857
0.00128413
0.00713283
0.00131234
0.00796186
0.00132369
0.00836726
0.00131359
0.00871752
0.00128307
0.00917331
0.0012402
0.00947061
0.00119639
0.0090789
0.00116125
0.00759173
0.00114101
0.00501401
0.00113942
0.00174444
0.00115691
-0.00161661
0.00118861
-0.00448668
0.00122342
-0.00656481
0.00124723
-0.00791402
0.00124967
-0.00885747
0.00122935
-0.00953817
-0.00982642
0.00131479
-0.00803764
0.00130563
-0.00802596
0.00128211
-0.00800403
0.00124133
-0.00814671
0.00118827
-0.00839453
0.00113669
-0.00834933
0.00110186
-0.00749616
0.00109273
-0.00558238
0.00111019
-0.00280221
0.0011485
0.000328024
0.00119725
0.00324381
0.00124571
0.00555012
0.00128699
0.00709155
0.0013165
0.00793235
0.00132885
0.00835491
0.00131964
0.00872672
0.00128997
0.00920298
0.00124767
0.00951291
0.00120378
0.0091228
0.00116765
0.00762786
0.00114564
0.00503601
0.00114187
0.00174821
0.00115716
-0.0016319
0.00118701
-0.00451652
0.00122048
-0.00659828
0.00124342
-0.00793695
0.00124525
-0.0088593
0.00122451
-0.00951743
-0.00979046
0.00130838
-0.00803845
0.0012982
-0.00801579
0.00127397
-0.0079798
0.00123256
-0.0081053
0.00117888
-0.00834085
0.00112699
-0.00829744
0.00109263
-0.00746179
0.00108495
-0.0055747
0.00110457
-0.00282183
0.00114526
0.000287333
0.00119625
0.00319283
0.00124669
0.00549967
0.00128966
0.00704858
0.00132049
0.00790152
0.00133387
0.00834153
0.00132561
0.00873498
0.00129684
0.00923175
0.00125515
0.0095546
0.00121118
0.00916676
0.00117404
0.00766499
0.00115025
0.00505981
0.00114427
0.00175419
0.00115735
-0.00164498
0.00118531
-0.00454448
0.00121744
-0.00663042
0.00123952
-0.00795903
0.00124079
-0.00886057
0.00121967
-0.00949631
-0.00975437
0.00130181
-0.00803787
0.00129066
-0.00800464
0.00126579
-0.00795492
0.00122382
-0.00806333
0.00116957
-0.0082866
0.00111737
-0.00824523
0.00108343
-0.00742786
0.00107714
-0.00556841
0.00109885
-0.00284354
0.00114186
0.000244325
0.00119506
0.00313963
0.00124748
0.00544724
0.00129214
0.00700392
0.0013243
0.00786936
0.00133875
0.00832708
0.00133149
0.00874224
0.00130367
0.00925958
0.00126262
0.00959564
0.00121858
0.0092108
0.00118044
0.00770314
0.00115483
0.00508541
0.00114662
0.00176239
0.00115746
-0.00165582
0.00118352
-0.00457053
0.0012143
-0.00666119
0.00123554
-0.00798027
0.00123628
-0.00886131
0.00121481
-0.00947485
-0.0097182
0.0012951
-0.00803593
0.00128302
-0.00799257
0.00125756
-0.00792946
0.0012151
-0.00802087
0.00116034
-0.00823184
0.00110784
-0.00819274
0.00107429
-0.00739431
0.00106931
-0.00556344
0.00109304
-0.00286727
0.00113831
0.000199058
0.00119368
0.00308427
0.00124807
0.00539285
0.00129442
0.00695758
0.00132793
0.00783585
0.00134349
0.00831152
0.00133728
0.00874845
0.00131045
0.0092864
0.00127008
0.00963601
0.00122599
0.0092549
0.00118683
0.0077423
0.00115939
0.00511285
0.00114894
0.00177285
0.00115752
-0.0016644
0.00118165
-0.00459467
0.00121106
-0.00669061
0.00123148
-0.00800069
0.00123172
-0.00886154
0.00120995
-0.00945308
-0.00968197
0.00128824
-0.00803267
0.00127528
-0.0079796
0.00124929
-0.00790347
0.00120641
-0.00797799
0.00115119
-0.00817662
0.0010984
-0.00813995
0.00106519
-0.0073611
0.00106146
-0.00555971
0.00108713
-0.00289294
0.0011346
0.000151591
0.0011921
0.00302676
0.00124846
0.00533649
0.0012965
0.00690954
0.00133137
0.00780098
0.00134807
0.00829482
0.00134296
0.00875357
0.00131719
0.00931218
0.00127753
0.00967567
0.00123339
0.00929904
0.00119321
0.00778248
0.00116393
0.00514213
0.00115121
0.00178557
0.0011575
-0.0016707
0.00117969
-0.00461686
0.00120774
-0.00671865
0.00122735
-0.0080203
0.00122711
-0.00886131
0.00120507
-0.00943104
-0.0096457
0.00128125
-0.00802813
0.00126744
-0.00796578
0.00124098
-0.00787702
0.00119775
-0.00793476
0.00114213
-0.008121
0.00108906
-0.00808688
0.00105614
-0.00732818
0.00105357
-0.00555714
0.00108111
-0.00292047
0.00113072
0.000101984
0.00119033
0.00296714
0.00124863
0.00527819
0.00129836
0.00685981
0.00133462
0.00776473
0.0013525
0.00827693
0.00134854
0.00875753
0.00132386
0.00933685
0.00128495
0.00971458
0.00124078
0.00934321
0.00119958
0.00782368
0.00116845
0.00517326
0.00115344
0.00180058
0.00115743
-0.0016747
0.00117766
-0.00463708
0.00120432
-0.00674531
0.00122313
-0.00803912
0.00122247
-0.00886064
0.00120019
-0.00940876
-0.00960944
0.00127413
-0.00802235
0.00125951
-0.00795116
0.00123264
-0.00785015
0.00118913
-0.00789125
0.00113316
-0.00806503
0.00107982
-0.00803354
0.00104714
-0.0072955
0.00104566
-0.00555565
0.00107498
-0.00294979
0.00112667
5.02961e-05
0.00118836
0.00290545
0.00124859
0.00521796
0.00130002
0.00680839
0.00133767
0.00772708
0.00135677
0.00825784
0.001354
0.0087603
0.00133047
0.00936037
0.00129235
0.00975271
0.00124817
0.00938739
0.00120594
0.00786591
0.00117294
0.00520626
0.00115563
0.0018179
0.00115731
-0.00167637
0.00117555
-0.00465533
0.00120082
-0.00677058
0.00121885
-0.00805715
0.00121778
-0.00885957
0.0011953
-0.00938628
-0.00957319
0.00126688
-0.00801536
0.00125148
-0.00793576
0.00122426
-0.00782293
0.00118054
-0.00784753
0.00112428
-0.00800877
0.00107068
-0.00797994
0.0010382
-0.00726302
0.00103772
-0.00555517
0.00106874
-0.00298082
0.00112245
-3.41063e-06
0.00118617
0.00284173
0.00124833
0.0051558
0.00130145
0.00675527
0.00134051
0.00768801
0.00136086
0.00823749
0.00135934
0.00876182
0.00133701
0.0093827
0.00129971
0.00979001
0.00125553
0.00943157
0.00121229
0.00790915
0.00117742
0.00524113
0.00115779
0.00183753
0.00115713
-0.00167571
0.00117337
-0.00467157
0.00119724
-0.00679444
0.00121449
-0.0080744
0.00121305
-0.00885813
0.0011904
-0.00936364
-0.009537
0.00125951
-0.00800721
0.00124337
-0.00791962
0.00121585
-0.00779541
0.00117199
-0.00780367
0.00111549
-0.00795227
0.00106164
-0.00792608
0.00102931
-0.00723069
0.00102974
-0.00555561
0.00106238
-0.00301346
0.00111805
-5.90742e-05
0.00118378
0.00277599
0.00124784
0.00509174
0.00130265
0.00670046
0.00134314
0.00764751
0.00136478
0.00821585
0.00136455
0.00876204
0.00134347
0.00940378
0.00130703
0.00982646
0.00126288
0.00947572
0.00121862
0.00795341
0.00118187
0.00527788
0.00115991
0.00185949
0.0011569
-0.0016727
0.00117112
-0.00468579
0.00119357
-0.00681689
0.00121006
-0.00809089
0.00120828
-0.00885635
0.0011855
-0.00934086
-0.00950087
0.00125201
-0.00799793
0.00123518
-0.00790279
0.00120741
-0.00776764
0.00116348
-0.00775974
0.0011068
-0.00789559
0.0010527
-0.00787199
0.00102047
-0.00719846
0.00102173
-0.00555687
0.00105591
-0.00304764
0.00111346
-0.000116631
0.00118116
0.00270829
0.00124712
0.00502579
0.00130362
0.00664396
0.00134556
0.00760557
0.00136851
0.0081929
0.00136962
0.00876093
0.00134985
0.00942356
0.0013143
0.009862
0.0012702
0.00951982
0.00122494
0.00799867
0.00118631
0.00531651
0.001162
0.00188379
0.00115662
-0.00166731
0.00116881
-0.00469798
0.00118983
-0.00683792
0.00120556
-0.00810663
0.00120347
-0.00885425
0.00118059
-0.00931798
-0.00946484
0.0012444
-0.00798757
0.0012269
-0.00788528
0.00119893
-0.00773967
0.001155
-0.00771581
0.00109819
-0.00783878
0.00104387
-0.00781766
0.00101169
-0.00716628
0.00101369
-0.00555887
0.00104931
-0.00308326
0.0011087
-0.000176017
0.00117833
0.00263866
0.00124616
0.00495796
0.00130435
0.00658577
0.00134775
0.00756216
0.00137206
0.0081686
0.00137455
0.00875843
0.00135612
0.00944199
0.00132151
0.00989661
0.00127749
0.00956385
0.00123123
0.00804493
0.00119072
0.00535702
0.00116406
0.00191044
0.0011563
-0.00165955
0.00116643
-0.00470812
0.00118602
-0.0068575
0.001201
-0.00812161
0.00119862
-0.00885187
0.00117567
-0.00929504
-0.00942893
0.00123668
-0.00797615
0.00121854
-0.00786714
0.00119042
-0.00771154
0.00114655
-0.00767194
0.00108968
-0.00778191
0.00103514
-0.00776313
0.00100296
-0.0071341
0.00100562
-0.00556153
0.00104259
-0.00312023
0.00110374
-0.000237166
0.00117526
0.00256713
0.00124495
0.00488827
0.00130483
0.00652589
0.00134971
0.00751728
0.0013754
0.00814291
0.00137933
0.0087545
0.00136229
0.00945903
0.00132866
0.00993024
0.00128474
0.00960777
0.0012375
0.00809216
0.00119511
0.00539941
0.00116609
0.00193945
0.00115593
-0.00164938
0.001164
-0.00471619
0.00118213
-0.00687563
0.00119637
-0.00813584
0.00119373
-0.00884923
0.00117075
-0.00927206
-0.00939316
0.00122884
-0.00796373
0.0012101
-0.0078484
0.00118187
-0.00768332
0.00113813
-0.0076282
0.00108125
-0.00772504
0.00102651
-0.00770839
0.000994293
-0.00710188
0.000997509
-0.00556475
0.00103574
-0.00315846
0.00109859
-0.000300012
0.00117197
0.00249375
0.0012435
0.00481674
0.00130507
0.00646432
0.00135144
0.00747091
0.00137854
0.00811581
0.00138395
0.00874909
0.00136835
0.00947462
0.00133574
0.00996286
0.00129194
0.00965157
0.00124374
0.00814036
0.00119947
0.00544368
0.00116809
0.00197083
0.00115552
-0.00163681
0.00116151
-0.00472217
0.00117817
-0.00689229
0.00119167
-0.00814934
0.0011888
-0.00884636
0.00116582
-0.00924908
-0.00935754
0.0012209
-0.00795034
0.00120158
-0.00782908
0.00117328
-0.00765502
0.00112974
-0.00758465
0.00107291
-0.00766821
0.00101799
-0.00765347
0.000985684
-0.00706957
0.000989368
-0.00556843
0.00102876
-0.00319786
0.00109324
-0.000364484
0.00116844
0.00241855
0.00124179
0.00474339
0.00130504
0.00640107
0.00135292
0.00742303
0.00138147
0.00808726
0.0013884
0.00874217
0.00137429
0.00948873
0.00134273
0.00999441
0.0012991
0.00969521
0.00124996
0.0081895
0.00120381
0.00548983
0.00117006
0.00200458
0.00115508
-0.00162183
0.00115896
-0.00472606
0.00117415
-0.00690748
0.00118691
-0.00816209
0.00118383
-0.00884329
0.00116088
-0.00922612
-0.00932212
0.00121284
-0.00793602
0.00119298
-0.00780921
0.00116466
-0.0076267
0.00112137
-0.00754137
0.00106466
-0.0076115
0.00100957
-0.00759838
0.000977134
-0.00703713
0.000981196
-0.00557249
0.00102166
-0.00323832
0.00108769
-0.000430514
0.00116467
0.00234157
0.00123983
0.00466824
0.00130476
0.00633613
0.00135415
0.00737364
0.00138418
0.00805723
0.00139267
0.00873368
0.00138009
0.00950131
0.00134964
0.0100249
0.0013062
0.00973865
0.00125614
0.00823957
0.00120813
0.00553784
0.001172
0.0020407
0.00115459
-0.00160441
0.00115637
-0.00472784
0.00117006
-0.00692117
0.00118208
-0.00817411
0.00117882
-0.00884003
0.00115593
-0.00920323
-0.00928689
0.00120468
-0.0079208
0.0011843
-0.00778883
0.00115599
-0.0075984
0.00111303
-0.0074984
0.00105649
-0.00755495
0.00100126
-0.00754315
0.000968644
-0.00700452
0.000972992
-0.00557684
0.00101443
-0.00327975
0.00108194
-0.000498029
0.00116065
0.00226286
0.00123759
0.0045913
0.0013042
0.00626953
0.00135513
0.00732272
0.00138666
0.0080257
0.00139675
0.00872359
0.00138576
0.0095123
0.00135645
0.0100542
0.00131324
0.00978186
0.00126228
0.00829053
0.00121241
0.0055877
0.00117392
0.0020792
0.00115407
-0.00158456
0.00115372
-0.0047275
0.00116591
-0.00693336
0.00117719
-0.00818539
0.00117377
-0.00883661
0.00115096
-0.00918042
-0.00925188
0.00119642
-0.00790473
0.00117554
-0.00776795
0.00114728
-0.00757014
0.0011047
-0.00745582
0.00104839
-0.00749864
0.000993037
-0.0074878
0.000960215
-0.00697169
0.000964758
-0.00558138
0.00100706
-0.00332206
0.00107599
-0.000566954
0.00115639
0.00218245
0.0012351
0.00451259
0.00130338
0.00620124
0.00135584
0.00727025
0.0013889
0.00799264
0.00140064
0.00871186
0.00139127
0.00952166
0.00136315
0.0100823
0.00132021
0.0098248
0.00126838
0.00834236
0.00121667
0.00563941
0.0011758
0.00212007
0.00115351
-0.00156227
0.00115103
-0.00472502
0.0011617
-0.00694403
0.00117224
-0.00819592
0.00116868
-0.00883306
0.00114599
-0.00915773
-0.00921711
0.00118805
-0.00788784
0.0011667
-0.0077466
0.00113852
-0.00754195
0.00109638
-0.00741369
0.00104037
-0.00744263
0.000984915
-0.00743235
0.000951847
-0.00693863
0.000956496
-0.00558603
0.000999564
-0.00336512
0.00106982
-0.000637214
0.00115188
0.00210039
0.00123232
0.00443215
0.00130227
0.0061313
0.00135628
0.00721624
0.0013909
0.00795802
0.00140432
0.00869844
0.00139662
0.00952936
0.00136974
0.0101092
0.0013271
0.00986743
0.00127444
0.00839503
0.0012209
0.00569294
0.00117766
0.00216332
0.00115292
-0.00153754
0.0011483
-0.00472039
0.00115743
-0.00695317
0.00116722
-0.00820571
0.00116355
-0.00882938
0.001141
-0.00913519
-0.0091826
0.00117957
-0.00787018
0.00115779
-0.00772482
0.00112971
-0.00751388
0.00108807
-0.00737205
0.00103241
-0.00738697
0.000976887
-0.00737683
0.00094354
-0.00690528
0.000948207
-0.0055907
0.000991939
-0.00340886
0.00106345
-0.00070873
0.00114711
0.00201674
0.00122927
0.00434998
0.00130088
0.00605969
0.00135645
0.00716066
0.00139266
0.00792182
0.00140778
0.00868331
0.00140181
0.00953534
0.0013762
0.0101348
0.00133392
0.00990971
0.00128044
0.0084485
0.0012251
0.00574827
0.00117949
0.00220894
0.0011523
-0.00151035
0.00114552
-0.00471362
0.00115311
-0.00696075
0.00116215
-0.00821475
0.00115837
-0.0088256
0.001136
-0.00911282
-0.00914835
0.001171
-0.00785178
0.00114879
-0.00770261
0.00112085
-0.00748594
0.00107976
-0.00733096
0.00102452
-0.00733172
0.000968951
-0.00732126
0.000935294
-0.00687162
0.000939894
-0.0055953
0.000984185
-0.00345315
0.00105688
-0.00078142
0.00114209
0.00193153
0.00122594
0.00426613
0.0012992
0.00598644
0.00135634
0.00710352
0.00139415
0.00788401
0.00141103
0.00866643
0.00140681
0.00953956
0.00138252
0.0101591
0.00134064
0.0099516
0.0012864
0.00850275
0.00122927
0.0058054
0.00118129
0.00225692
0.00115165
-0.00148071
0.0011427
-0.00470468
0.00114873
-0.00696678
0.00115702
-0.00822304
0.00115315
-0.00882174
0.00113099
-0.00909065
-0.0091144
0.00116231
-0.00783268
0.00113971
-0.00768001
0.00111193
-0.00745815
0.00107144
-0.00729048
0.00101669
-0.00727696
0.000961102
-0.00726567
0.000927108
-0.00683763
0.000931559
-0.00559975
0.000976305
-0.00349789
0.00105009
-0.000855202
0.0011368
0.00184481
0.00122232
0.00418061
0.00129722
0.00591154
0.00135594
0.0070448
0.00139537
0.00784458
0.00141404
0.00864776
0.00141162
0.00954198
0.00138871
0.010182
0.00134727
0.00999304
0.00129229
0.00855773
0.0012334
0.0058643
0.00118306
0.00230726
0.00115096
-0.00144862
0.00113985
-0.00469356
0.0011443
-0.00697123
0.00115182
-0.00823057
0.00114789
-0.0088178
0.00112595
-0.00906872
-0.00908076
0.00115353
-0.00781291
0.00113056
-0.00765704
0.00110294
-0.00743053
0.00106311
-0.00725065
0.0010089
-0.00722275
0.000953338
-0.00721011
0.000918983
-0.00680327
0.000923204
-0.00560397
0.000968301
-0.00354299
0.00104309
-0.00092999
0.00113125
0.00175665
0.00121842
0.00409345
0.00129495
0.00583501
0.00135524
0.00698451
0.00139632
0.0078035
0.00141681
0.00862728
0.00141623
0.00954256
0.00139474
0.0102035
0.00135379
0.010034
0.00129812
0.00861339
0.00123749
0.00592493
0.0011848
0.00235995
0.00115024
-0.00141406
0.00113695
-0.00468027
0.00113981
-0.00697409
0.00114657
-0.00823732
0.00114257
-0.00881381
0.0011209
-0.00904704
-0.00904744
0.00114464
-0.00779253
0.00112132
-0.00763372
0.00109389
-0.00740311
0.00105476
-0.00721152
0.00100117
-0.00716916
0.000945654
-0.0071546
0.000910917
-0.00676853
0.000914833
-0.00560789
0.000960176
-0.00358833
0.00103588
-0.0010057
0.00112544
0.00166709
0.00121421
0.00400468
0.00129237
0.00575686
0.00135425
0.00692262
0.00139699
0.00776075
0.00141933
0.00860494
0.00142063
0.00954126
0.0014006
0.0102235
0.00136019
0.0100744
0.00130388
0.0086697
0.00124153
0.00598728
0.00118651
0.00241498
0.0011495
-0.00137706
0.00113402
-0.00466479
0.00113528
-0.00697535
0.00114125
-0.00824329
0.00113721
-0.00880977
0.00111582
-0.00902565
-0.00901446
0.00113564
-0.00777155
0.00111199
-0.00761007
0.00108477
-0.00737589
0.00104639
-0.00717313
0.000993467
-0.00711624
0.000938047
-0.00709918
0.00090291
-0.0067334
0.000906447
-0.00561142
0.000951932
-0.00363382
0.00102847
-0.00108223
0.00111937
0.00157619
0.00120972
0.00391432
0.00128948
0.0056771
0.00135295
0.00685915
0.00139737
0.00771633
0.00142158
0.00858073
0.0014248
0.00953804
0.00140629
0.010242
0.00136648
0.0101142
0.00130957
0.00872661
0.00124554
0.00605131
0.00118819
0.00247233
0.00114872
-0.00133759
0.00113105
-0.00464712
0.0011307
-0.00697499
0.00113588
-0.00824848
0.0011318
-0.00880569
0.00111072
-0.00900457
-0.00898183
0.00112654
-0.00775002
0.00110258
-0.00758612
0.00107558
-0.00734889
0.00103798
-0.00713553
0.000985799
-0.00706406
0.000930511
-0.00704389
0.000894959
-0.00669784
0.000898049
-0.00561451
0.000943575
-0.00367935
0.00102084
-0.0011595
0.00111302
0.00148401
0.00120492
0.00382243
0.00128627
0.00559574
0.00135133
0.00679409
0.00139746
0.00767021
0.00142357
0.00855462
0.00142875
0.00953286
0.0014118
0.010259
0.00137264
0.0101534
0.00131518
0.00878407
0.0012495
0.006117
0.00118983
0.002532
0.00114792
-0.00129568
0.00112805
-0.00462726
0.00112607
-0.00697301
0.00113045
-0.00825286
0.00112635
-0.00880158
0.00110559
-0.00898381
-0.00894957
0.00111732
-0.00772797
0.00109309
-0.00756188
0.00106631
-0.00732211
0.00102952
-0.00709874
0.000978154
-0.00701269
0.000923043
-0.00698878
0.000887064
-0.00666187
0.000889641
-0.00561709
0.000935109
-0.00372481
0.00101302
-0.0012374
0.00110641
0.00139061
0.00119982
0.00372902
0.00128276
0.00551281
0.00134941
0.00672744
0.00139724
0.00762238
0.00142528
0.00852658
0.00143245
0.00952568
0.00141711
0.0102743
0.00137866
0.0101918
0.00132071
0.00884203
0.00125341
0.0061843
0.00119145
0.00259396
0.00114709
-0.00125132
0.00112502
-0.00460519
0.0011214
-0.00696938
0.00112497
-0.00825643
0.00112083
-0.00879745
0.00110044
-0.00896342
-0.0089177
0.001108
-0.00770545
0.00108351
-0.00753739
0.00105696
-0.00729557
0.00102102
-0.00706279
0.000970525
-0.0069622
0.000915636
-0.00693389
0.000879222
-0.00662545
0.000881225
-0.00561909
0.000926538
-0.00377013
0.00100499
-0.00131586
0.00109953
0.00129607
0.00119442
0.00363413
0.00127892
0.00542831
0.00134716
0.00665921
0.0013967
0.00757283
0.0014267
0.00849658
0.0014359
0.00951648
0.00142222
0.010288
0.00138454
0.0102295
0.00132614
0.00890042
0.00125726
0.00625317
0.00119303
0.00265819
0.00114623
-0.00120452
0.00112196
-0.00458092
0.00111668
-0.0069641
0.00111942
-0.00825918
0.00111527
-0.0087933
0.00109525
-0.0089434
-0.00888624
0.00109856
-0.00768247
0.00107383
-0.00751266
0.00104752
-0.00726926
0.00101246
-0.00702773
0.000962901
-0.00691265
0.000908286
-0.00687927
0.000871431
-0.0065886
0.000872802
-0.00562046
0.000917867
-0.00381519
0.000996766
-0.00139476
0.00109239
0.00120044
0.00118871
0.00353781
0.00127476
0.00534226
0.00134458
0.00658939
0.00139585
0.00752155
0.00142782
0.00846462
0.00143908
0.00950521
0.00142712
0.0102999
0.00139026
0.0102664
0.00133148
0.0089592
0.00126107
0.00632359
0.00119457
0.00272469
0.00114534
-0.00115528
0.00111886
-0.00455444
0.00111192
-0.00695716
0.00111382
-0.00826108
0.00110965
-0.00878913
0.00109003
-0.00892379
-0.0088552
0.00108901
-0.00765908
0.00106407
-0.00748772
0.001038
-0.00724319
0.00100383
-0.00699356
0.000955275
-0.00686409
0.000900988
-0.00682499
0.00086369
-0.0065513
0.000864376
-0.00562115
0.000909102
-0.00385992
0.00098835
-0.001474
0.00108498
0.00110381
0.0011827
0.00344009
0.00127027
0.0052547
0.00134167
0.00651798
0.00139468
0.00746854
0.00142863
0.00843067
0.001442
0.00949185
0.00143179
0.0103101
0.00139582
0.0103023
0.00133671
0.00901831
0.00126481
0.0063955
0.00119608
0.00279341
0.00114442
-0.00110362
0.00111573
-0.00452576
0.00110711
-0.00694854
0.00110816
-0.00826213
0.00110397
-0.00878494
0.00108478
-0.00890459
-0.0088246
0.00107935
0.00105421
-0.00746259
0.00102838
-0.00721735
0.000995126
-0.0069603
0.000947637
-0.00681661
0.000893735
-0.00677109
0.000855996
-0.00651356
0.000855945
-0.0056211
0.000900247
-0.00390422
0.000979748
-0.0015535
0.00107731
0.00100624
0.00117638
0.00334102
0.00126545
0.00516563
0.00133843
0.00644501
0.00139318
0.00741379
0.00142913
0.00839472
0.00144462
0.00947636
0.00143623
0.0103185
0.00140121
0.0103373
0.00134184
0.00907768
0.00126848
0.00646885
0.00119755
0.00286435
0.00114347
-0.00104953
0.00111257
-0.00449487
0.00110227
-0.00693823
0.00110244
-0.00826231
0.00109824
-0.00878074
0.00107949
-0.00888584
-0.00879445
0.00104426
-0.00743729
0.00101867
-0.00719176
0.000986342
-0.00692798
0.000939977
-0.00677024
0.000886521
-0.00671763
0.000848346
-0.00647538
0.000847511
-0.00562026
0.000891308
-0.00394802
0.000970965
-0.00163316
0.00106939
0.000907824
0.00116976
0.00324065
0.00126031
0.00507508
0.00133484
0.00637047
0.00139134
0.0073573
0.00142931
0.00835674
0.00144696
0.00945871
0.00144042
0.0103251
0.00140642
0.0103714
0.00134685
0.00913724
0.0012721
0.00654361
0.00119898
0.00293746
0.00114249
-0.000993039
0.00110938
-0.00446177
0.00109738
-0.00692622
0.00109667
-0.0082616
0.00109245
-0.00877652
0.00107415
-0.00886754
-0.00876478
0.00103421
-0.00741185
0.00100885
-0.0071664
0.000977469
-0.0068966
0.000932286
-0.00672506
0.00087934
-0.00666468
0.000840738
-0.00643678
0.000839075
-0.0056186
0.00088229
-0.00399123
0.000962009
-0.00171288
0.0010612
0.00080863
0.00116283
0.00313902
0.00125483
0.00498308
0.00133092
0.00629438
0.00138915
0.00729906
0.00142916
0.00831674
0.00144898
0.00943888
0.00144435
0.0103297
0.00141143
0.0104043
0.00135174
0.00919693
0.00127564
0.00661971
0.00120037
0.00301273
0.00114148
-0.000934147
0.00110617
-0.00442645
0.00109245
-0.00691251
0.00109084
-0.00825999
0.0010866
-0.00877227
0.00106877
-0.00884972
-0.0087356
0.00102407
-0.00738629
0.00099894
-0.00714127
0.0009685
-0.00686615
0.000924552
-0.00668111
0.000872185
-0.00661232
0.000833169
-0.00639777
0.000830635
-0.00561607
0.000873197
-0.0040338
0.000952886
-0.00179257
0.00105277
0.000708746
0.00115559
0.0030362
0.00124902
0.00488965
0.00132665
0.00621675
0.00138662
0.00723909
0.00142866
0.0082747
0.0014507
0.00941685
0.00144802
0.0103324
0.00141625
0.010436
0.0013565
0.00925669
0.0012791
0.0066971
0.00120172
0.00309012
0.00114044
-0.000872869
0.00110292
-0.00438893
0.00108749
-0.00689708
0.00108496
-0.00825746
0.00108068
-0.00876799
0.00106335
-0.00883239
-0.00870693
0.00101382
-0.00736064
0.000988921
-0.00711637
0.000959426
-0.00683666
0.000916765
-0.00663845
0.000865049
-0.0065606
0.000825638
-0.00635836
0.000822192
-0.00561262
0.000864032
-0.00407564
0.000943605
-0.00187214
0.00104409
0.000608256
0.00114806
0.00293224
0.00124287
0.00479484
0.00132203
0.00613759
0.00138374
0.00717738
0.00142782
0.00823062
0.00145209
0.00939258
0.00145142
0.0103331
0.00142086
0.0104666
0.00136112
0.00931643
0.00128249
0.00677573
0.00120302
0.00316959
0.00113937
-0.000809218
0.00109964
-0.00434921
0.00108248
-0.00687992
0.00107902
-0.008254
0.00107471
-0.00876368
0.00105788
-0.00881556
-0.00867879
0.00100347
-0.00733492
0.000978794
-0.0070917
0.000950241
-0.00680811
0.000908916
-0.00659712
0.000857923
-0.00650961
0.000818142
-0.00631858
0.000813745
-0.00560822
0.000854799
-0.00411669
0.000934174
-0.00195152
0.00103518
0.000507247
0.00114022
0.0028272
0.00123639
0.00469867
0.00131706
0.00605693
0.0013805
0.00711394
0.00142663
0.00818448
0.00145315
0.00936606
0.00145452
0.0103317
0.00142525
0.0104959
0.0013656
0.00937609
0.0012858
0.00685553
0.00120428
0.00325111
0.00113827
-0.000743208
0.00109633
-0.00430727
0.00107744
-0.00686103
0.00107303
-0.00824959
0.00106867
-0.00875932
0.00105235
-0.00879925
-0.00865121
0.000993008
-0.00730917
0.000968558
-0.00706725
0.000940938
-0.00678049
0.000900993
-0.00655718
0.0008508
-0.00645941
0.000810678
-0.00627845
0.000805294
-0.00560284
0.000845501
-0.0041569
0.000924602
-0.00203062
0.00102605
0.000405804
0.0011321
0.00272115
0.00122959
0.00460118
0.00131174
0.00597477
0.0013769
0.00704878
0.00142508
0.0081363
0.00145387
0.00933727
0.00145733
0.0103282
0.00142942
0.0105238
0.00136993
0.00943559
0.00128902
0.00693644
0.00120549
0.00333463
0.00113714
-0.000674855
0.001093
-0.00426313
0.00107236
-0.00684039
0.00106698
-0.00824421
0.00106256
-0.00875491
0.00104678
-0.00878346
-0.00862418
0.000982442
-0.0072834
0.00095821
-0.00704302
0.000931511
-0.00675379
0.000892985
-0.00651865
0.000843671
-0.0064101
0.000803244
-0.00623803
0.000796838
-0.00559643
0.000836138
-0.0041962
0.000914895
-0.00210938
0.00101669
0.000304007
0.00112369
0.00261416
0.00122245
0.00450241
0.00130607
0.00589116
0.00137293
0.00698191
0.00142316
0.00808608
0.00145424
0.00930619
0.00145984
0.0103226
0.00143335
0.0105503
0.0013741
0.00949484
0.00129214
0.00701839
0.00120665
0.00342012
0.00113597
-0.000604174
0.00108963
-0.00421679
0.00106724
-0.006818
0.00106087
-0.00823784
0.00105639
-0.00875042
0.00104114
-0.00876821
-0.00859775
0.000971766
-0.00725764
0.000947747
-0.007019
0.000921954
-0.00672799
0.000884881
-0.00648158
0.000836527
-0.00636175
0.000795837
-0.00619734
0.000788376
-0.00558897
0.000826712
-0.00423453
0.000905062
-0.00218773
0.00100713
0.000201937
0.001115
0.00250629
0.00121499
0.00440242
0.00130004
0.0058061
0.0013686
0.00691336
0.00142086
0.00803381
0.00145425
0.00927281
0.00146203
0.0103148
0.00143704
0.0105753
0.0013781
0.00955378
0.00129518
0.00710131
0.00120777
0.00350753
0.00113478
-0.000531183
0.00108623
-0.00416824
0.00106209
-0.00679385
0.00105472
-0.00823047
0.00105016
-0.00874586
0.00103545
-0.0087535
-0.00857192
0.000960977
-0.00723191
0.000937168
-0.00699519
0.000912262
-0.00670309
0.000876672
-0.00644599
0.000829357
-0.00631443
0.000788454
-0.00615643
0.000779908
-0.00558043
0.000817221
-0.00427185
0.00089511
-0.00226562
0.000997383
9.96653e-05
0.00110605
0.00239763
0.00120721
0.00430126
0.00129367
0.00571965
0.00136389
0.00684313
0.00141819
0.00797951
0.00145389
0.00923712
0.0014639
0.0103048
0.00144047
0.0105987
0.00138193
0.00961231
0.00129812
0.00718512
0.00120884
0.00359681
0.00113356
-0.000455898
0.00108281
-0.00411749
0.00105689
-0.00676794
0.0010485
-0.00822208
0.00104385
-0.00874121
0.00102969
-0.00873934
-0.00854671
0.000950071
-0.00720625
0.000926472
-0.00697159
0.00090243
-0.00667905
0.000868347
-0.00641191
0.000822153
-0.00626824
0.000781094
-0.00611537
0.000771435
-0.00557077
0.000807665
-0.00430808
0.000885045
-0.002343
0.000987456
-2.74607e-06
0.00109684
0.00228824
0.00119913
0.00419898
0.00128695
0.00563182
0.00135882
0.00677126
0.00141514
0.00792319
0.00145316
0.0091991
0.00146543
0.0102926
0.00144364
0.0106205
0.00138559
0.00967036
0.00130096
0.00726975
0.00120986
0.00368791
0.0011323
-0.000378337