/*--------------------------------*- C++ -*----------------------------------*\
  =========                 |
  \\      /  F ield         | OpenFOAM: The Open Source CFD Toolbox
   \\    /   O peration     | Website:  https://openfoam.org
    \\  /    A nd           | Version:  7
     \\/     M anipulation  |
\*---------------------------------------------------------------------------*/
FoamFile
{
    version     2.0;
    format      ascii;
    class       volVectorField;
    location    "80";
    object      U;
}
// * * * * * * * * * * * * * * * * * * * * * * * * * * * * * * * * * * * * * //

dimensions      [0 1 -1 0 0 0 0];

internalField   nonuniform List<vector> 
7156
(
(0.871171 -0.508736 -1.41826e-22)
(0.871348 -0.502758 2.52909e-23)
(0.863328 -0.496658 2.27473e-23)
(0.844003 -0.501043 -4.6139e-23)
(0.813232 -0.510761 1.15003e-25)
(0.777482 -0.500804 -7.52583e-24)
(0.747239 -0.441788 -8.61863e-24)
(0.730704 -0.322134 2.10252e-23)
(0.731104 -0.156495 -2.20807e-22)
(0.747505 0.0234011 -1.67624e-22)
(0.774993 0.185112 -6.3337e-23)
(0.80593 0.307775 7.86623e-23)
(0.834283 0.385115 -1.58162e-22)
(0.857143 0.422644 7.92931e-24)
(0.871403 0.436565 1.10085e-23)
(0.872589 0.44683 2.96232e-23)
(0.858598 0.462148 2.9726e-23)
(0.832718 0.469647 -4.42698e-23)
(0.802782 0.44377 7.70137e-23)
(0.776852 0.366033 -6.60574e-24)
(0.760072 0.238604 1.44967e-22)
(0.755401 0.0822422 -2.45882e-23)
(0.764173 -0.074051 -1.03018e-22)
(0.78484 -0.203811 7.50239e-23)
(0.811876 -0.294851 -3.80478e-23)
(0.835744 -0.351726 4.05099e-23)
(0.847276 -0.38978 4.3456e-23)
(0.842062 -0.415392 8.02277e-24)
(0.822626 -0.422951 1.42251e-23)
(0.873809 -0.509095 9.78975e-23)
(0.872975 -0.502357 -1.19841e-22)
(0.864202 -0.495347 -5.16711e-23)
(0.844336 -0.498692 4.87972e-23)
(0.813062 -0.507698 3.82609e-23)
(0.776684 -0.497834 4.86283e-23)
(0.745717 -0.439759 -1.65194e-23)
(0.728542 -0.321524 2.68208e-22)
(0.72849 -0.157347 1.53144e-22)
(0.744633 0.0214006 9.22234e-23)
(0.772054 0.182541 -1.50021e-22)
(0.80318 0.305227 -1.62318e-22)
(0.832028 0.382957 2.5305e-22)
(0.855556 0.421105 -1.16656e-22)
(0.870446 0.435918 -2.30803e-22)
(0.872155 0.447292 7.30331e-24)
(0.858632 0.463638 -1.50782e-22)
(0.833251 0.47173 5.56039e-23)
(0.80385 0.445858 1.14348e-22)
(0.778369 0.367652 1.7234e-22)
(0.761843 0.239468 5.81424e-23)
(0.757221 0.0822025 -1.53208e-22)
(0.765854 -0.0749811 8.70398e-23)
(0.786216 -0.205376 2.2578e-22)
(0.812888 -0.296526 2.09244e-23)
(0.836434 -0.352876 1.85328e-22)
(0.847701 -0.389968 -6.08912e-23)
(0.842211 -0.414584 -4.78127e-23)
(0.822495 -0.421483 -5.18043e-23)
(0.876493 -0.509355 2.1517e-22)
(0.874654 -0.501883 3.38001e-23)
(0.865139 -0.493981 -1.02365e-22)
(0.844749 -0.496291 -1.77866e-22)
(0.812995 -0.504587 -1.68501e-22)
(0.776009 -0.494838 -4.35904e-23)
(0.744322 -0.437755 5.54209e-23)
(0.7265 -0.320999 -3.38374e-22)
(0.725984 -0.158326 4.40459e-22)
(0.741851 0.0192632 -2.3955e-22)
(0.76919 0.179843 3.07484e-22)
(0.800495 0.302567 2.12306e-23)
(0.829829 0.380704 -3.0122e-22)
(0.854019 0.419494 -2.58299e-22)
(0.869538 0.435215 5.04561e-22)
(0.871776 0.447704 -6.57052e-23)
(0.858735 0.465082 7.52198e-23)
(0.833868 0.47378 2.33683e-22)
(0.80501 0.447945 -6.42302e-23)
(0.779975 0.369314 2.44052e-22)
(0.763698 0.240413 7.47017e-23)
(0.75912 0.0822643 -5.48371e-22)
(0.767611 -0.0758088 1.24979e-22)
(0.787661 -0.206853 -1.86811e-22)
(0.813958 -0.298136 1.20712e-23)
(0.837177 -0.353983 -1.185e-22)
(0.848183 -0.390124 -1.67653e-23)
(0.842424 -0.413752 -6.61153e-23)
(0.82244 -0.420003 3.32297e-24)
(0.879224 -0.509516 3.21647e-23)
(0.876386 -0.501338 -3.53789e-22)
(0.866138 -0.492564 1.10963e-22)
(0.845243 -0.493843 3.16783e-22)
(0.813033 -0.501432 -2.00881e-22)
(0.775458 -0.491818 8.64381e-22)
(0.743056 -0.435775 -1.06371e-22)
(0.724579 -0.320556 -3.62581e-22)
(0.723585 -0.159426 2.37593e-22)
(0.73916 0.0169926 6.83609e-25)
(0.766399 0.17702 7.90502e-22)
(0.797875 0.299796 -6.6854e-22)
(0.827688 0.378358 6.42227e-22)
(0.852531 0.417809 9.73889e-22)
(0.868678 0.434455 -8.56704e-22)
(0.871453 0.448064 2.05186e-22)
(0.858907 0.466476 1.0084e-22)
(0.834568 0.475795 -4.3497e-23)
(0.806258 0.450031 -2.94374e-22)
(0.781668 0.37102 -1.78703e-22)
(0.765635 0.241441 -5.50896e-22)
(0.761097 0.0824287 6.60572e-22)
(0.769442 -0.0765331 -3.26139e-23)
(0.789175 -0.208242 -3.80814e-22)
(0.815088 -0.299682 2.43621e-22)
(0.837975 -0.355046 -3.50086e-22)
(0.848723 -0.390249 -6.0433e-22)
(0.842703 -0.412898 -3.27008e-22)
(0.822461 -0.418512 1.1183e-23)
(0.882004 -0.509581 2.64725e-22)
(0.87817 -0.500725 1.51258e-22)
(0.8672 -0.491099 -5.99165e-22)
(0.845819 -0.491352 -5.25744e-22)
(0.813175 -0.498235 1.62483e-22)
(0.775031 -0.488774 -6.18309e-22)
(0.741921 -0.433815 -4.14367e-22)
(0.72278 -0.32019 7.81822e-22)
(0.721293 -0.160645 -7.38222e-22)
(0.736558 0.014592 1.51241e-22)
(0.763683 0.174073 -1.31885e-22)
(0.795318 0.296914 1.49351e-22)
(0.825602 0.375918 -7.11085e-22)
(0.851091 0.416051 -6.63581e-22)
(0.867864 0.433635 6.60531e-22)
(0.871185 0.448369 -6.02608e-22)
(0.859146 0.467817 3.74191e-23)
(0.835348 0.477773 -1.30167e-22)
(0.807594 0.452115 6.80033e-22)
(0.783447 0.372771 2.78784e-22)
(0.767653 0.242553 -1.26709e-22)
(0.763151 0.0826971 -6.26695e-22)
(0.771349 -0.0771524 5.9402e-22)
(0.790759 -0.209541 -1.13387e-22)
(0.816279 -0.301162 -7.23843e-22)
(0.838827 -0.356067 -1.71815e-22)
(0.84932 -0.390345 4.32553e-22)
(0.843048 -0.412022 4.35274e-22)
(0.822558 -0.417011 1.00497e-22)
(0.884832 -0.509553 3.87835e-22)
(0.880009 -0.500046 -1.03099e-22)
(0.868326 -0.48959 1.31029e-22)
(0.846477 -0.488824 2.86145e-22)
(0.813422 -0.495 -4.55148e-22)
(0.774731 -0.485706 4.66775e-22)
(0.740917 -0.431873 1.72542e-22)
(0.721104 -0.319898 4.02104e-22)
(0.719109 -0.161976 -1.80686e-22)
(0.734046 0.0120649 -8.69088e-22)
(0.761041 0.171006 6.76977e-22)
(0.792824 0.293924 -4.55199e-22)
(0.82357 0.373385 2.40089e-23)
(0.849698 0.414218 -7.48656e-22)
(0.867096 0.432755 -2.09227e-22)
(0.870969 0.448617 9.27131e-22)
(0.859451 0.469105 -2.10827e-22)
(0.836208 0.479713 -2.18276e-24)
(0.809016 0.454197 -1.12716e-22)
(0.785311 0.374567 -3.40624e-22)
(0.769751 0.243749 -7.4244e-22)
(0.765283 0.0830706 7.50757e-22)
(0.77333 -0.0776656 -4.16981e-22)
(0.792413 -0.21075 1.30318e-21)
(0.81753 -0.302577 -2.34357e-23)
(0.839733 -0.357046 7.09749e-22)
(0.849975 -0.390412 8.43673e-22)
(0.843459 -0.411127 -1.85483e-22)
(0.82273 -0.415501 -6.33874e-22)
(0.887709 -0.509434 2.63934e-22)
(0.881902 -0.499304 1.27484e-22)
(0.869516 -0.488041 -7.88672e-22)
(0.847217 -0.486262 5.65934e-22)
(0.813774 -0.491729 1.65466e-22)
(0.774556 -0.482615 9.07911e-23)
(0.740046 -0.429948 5.99038e-22)
(0.719551 -0.319674 -1.46842e-21)
(0.717033 -0.163417 1.73143e-21)
(0.731624 0.00941482 5.57328e-22)
(0.758473 0.16782 8.32039e-23)
(0.790394 0.290825 -5.14154e-23)
(0.821592 0.370759 1.44492e-21)
(0.84835 0.41231 9.51893e-22)
(0.866373 0.431812 2.42594e-22)
(0.870805 0.448805 -9.25491e-22)
(0.859821 0.470335 -1.84286e-22)
(0.837146 0.481613 3.59536e-22)
(0.810523 0.456277 1.74295e-22)
(0.787257 0.376408 -6.02043e-22)
(0.771928 0.24503 5.73043e-22)
(0.76749 0.0835503 1.10929e-22)
(0.775386 -0.0780716 -4.61645e-22)
(0.794137 -0.211866 -3.51871e-22)
(0.818844 -0.303925 -5.38727e-22)
(0.840695 -0.357983 2.07595e-22)
(0.850688 -0.390453 -3.08804e-22)
(0.843936 -0.410213 -2.0528e-22)
(0.822977 -0.413983 6.77265e-22)
(0.890637 -0.509225 -9.78058e-23)
(0.883851 -0.498501 8.67595e-22)
(0.870771 -0.486455 -6.78049e-22)
(0.848039 -0.483671 -5.41168e-22)
(0.814231 -0.488427 1.95624e-22)
(0.774509 -0.479501 -3.45611e-22)
(0.739309 -0.428035 -5.89653e-22)
(0.718123 -0.319515 6.6633e-22)
(0.715064 -0.164962 9.37039e-22)
(0.729292 0.00664524 -1.7205e-21)
(0.755978 0.164516 2.89148e-22)
(0.788025 0.287619 2.33747e-22)
(0.819667 0.368039 -8.7915e-22)
(0.847047 0.410326 1.49262e-22)
(0.865693 0.430805 1.34498e-21)
(0.870692 0.448932 -1.19583e-21)
(0.860254 0.471507 1.22338e-21)
(0.838161 0.483471 -6.72962e-22)
(0.812112 0.458354 -1.85883e-22)
(0.789284 0.378295 -3.27795e-23)
(0.774183 0.246398 4.26795e-22)
(0.769773 0.0841371 -6.705e-22)
(0.777516 -0.0783692 -3.58539e-22)
(0.795933 -0.212889 -2.89544e-22)
(0.82022 -0.305206 6.4093e-22)
(0.841712 -0.358879 1.45139e-22)
(0.851459 -0.390468 3.22082e-23)
(0.844478 -0.409282 -5.16315e-22)
(0.823299 -0.412459 -7.59839e-22)
(0.893615 -0.50893 -3.22732e-22)
(0.885856 -0.49764 -6.13171e-22)
(0.87209 -0.484835 1.90786e-21)
(0.848943 -0.481054 -1.98765e-22)
(0.814792 -0.485097 1.34772e-21)
(0.774587 -0.476365 -1.06286e-21)
(0.738706 -0.426132 -3.78731e-22)
(0.716818 -0.319416 -6.23234e-22)
(0.713203 -0.166607 -4.03996e-22)
(0.727048 0.0037598 -2.61567e-23)
(0.753556 0.161098 1.35477e-21)
(0.785718 0.284307 -5.59548e-22)
(0.817793 0.365227 -8.71021e-22)
(0.845787 0.408266 -1.57019e-21)
(0.865055 0.429732 -1.29516e-21)
(0.870628 0.448993 4.8094e-22)
(0.86075 0.472617 6.55138e-22)
(0.83925 0.485287 -3.46366e-22)
(0.813782 0.460426 6.58971e-22)
(0.791391 0.380228 3.14196e-22)
(0.776515 0.247852 -3.57178e-22)
(0.772129 0.0848319 9.64818e-22)
(0.779719 -0.0785573 5.88752e-22)
(0.797799 -0.213818 5.92065e-22)
(0.821658 -0.30642 -1.9034e-21)
(0.842785 -0.359734 -1.55257e-21)
(0.852287 -0.390458 -5.2569e-22)
(0.845085 -0.408336 3.6828e-22)
(0.823694 -0.410929 2.05784e-22)
(0.896644 -0.508551 3.95405e-22)
(0.887918 -0.496722 7.38577e-22)
(0.873474 -0.483186 -1.31518e-22)
(0.849927 -0.478416 -1.3499e-21)
(0.815457 -0.481742 4.11376e-22)
(0.774792 -0.473208 -2.4736e-22)
(0.738238 -0.424237 5.131e-23)
(0.715639 -0.319372 -1.04009e-21)
(0.711449 -0.168347 1.50684e-21)
(0.724892 0.000762228 9.78226e-23)
(0.751207 0.157568 -1.10169e-21)
(0.783472 0.280889 -5.21557e-22)
(0.815968 0.362322 7.97473e-22)
(0.844568 0.406129 5.92134e-22)
(0.864458 0.428591 8.57971e-24)
(0.870612 0.448989 7.59296e-22)
(0.861306 0.473662 -1.28511e-21)
(0.840413 0.487057 1.19891e-21)
(0.815531 0.462495 -2.37432e-22)
(0.793576 0.382206 1.87887e-21)
(0.778922 0.249394 -1.1412e-21)
(0.774559 0.0856356 -9.60638e-22)
(0.781995 -0.0786351 -8.98896e-23)
(0.799736 -0.214651 -2.45195e-21)
(0.82316 -0.307565 1.56792e-21)
(0.843913 -0.360549 9.46458e-22)
(0.853173 -0.390426 1.65924e-21)
(0.845758 -0.407376 4.08343e-22)
(0.824163 -0.409395 3.49069e-22)
(0.899724 -0.508089 -8.28221e-22)
(0.890037 -0.495751 -1.86019e-22)
(0.874921 -0.48151 1.94546e-21)
(0.850993 -0.475762 -8.04301e-22)
(0.816226 -0.478364 1.68199e-22)
(0.775122 -0.47003 -3.22117e-22)
(0.737906 -0.422346 1.31023e-21)
(0.714585 -0.319378 1.69768e-21)
(0.709801 -0.170178 8.42057e-23)
(0.722824 -0.00234345 -1.19777e-21)
(0.748929 0.153927 -8.88743e-22)
(0.781285 0.277366 2.29351e-21)
(0.814193 0.359324 -8.98429e-22)
(0.843389 0.403915 2.05059e-21)
(0.863899 0.427381 -1.79715e-21)
(0.870643 0.448915 3.17314e-22)
(0.861921 0.474642 1.3756e-21)
(0.841647 0.48878 -1.70853e-21)
(0.817356 0.464557 -6.42129e-22)
(0.795837 0.384229 -1.21609e-21)
(0.781402 0.251023 7.44548e-22)
(0.77706 0.086549 -6.31043e-22)
(0.784343 -0.0786016 -6.54855e-22)
(0.801745 -0.215389 4.7322e-22)
(0.824726 -0.308641 -7.81583e-22)
(0.845097 -0.361324 -1.90728e-21)
(0.854116 -0.390372 4.48023e-22)
(0.846496 -0.406403 -1.19358e-21)
(0.824704 -0.407858 -1.64185e-23)
(0.902854 -0.507548 -1.89699e-21)
(0.892214 -0.494727 -9.475e-22)
(0.876433 -0.47981 6.06093e-22)
(0.852139 -0.473094 -3.93454e-22)
(0.817096 -0.474968 -9.70763e-22)
(0.775578 -0.466831 8.05045e-22)
(0.73771 -0.420457 -3.83868e-22)
(0.713656 -0.319429 -5.85166e-22)
(0.70826 -0.172093 2.66317e-22)
(0.720843 -0.00555405 -1.19334e-21)
(0.746722 0.150178 1.05347e-21)
(0.779158 0.27374 -1.45246e-22)
(0.812465 0.356235 1.15193e-22)
(0.842249 0.401622 -6.82549e-22)
(0.863378 0.426101 6.41006e-22)
(0.870717 0.44877 -4.57009e-22)
(0.862593 0.475552 1.28075e-21)
(0.84295 0.490454 -5.39913e-22)
(0.819256 0.466613 2.27878e-22)
(0.798172 0.386298 1.10779e-21)
(0.783954 0.25274 -1.30267e-21)
(0.779632 0.0875725 -1.17726e-22)
(0.786762 -0.078456 2.3235e-21)
(0.803824 -0.216029 2.51866e-21)
(0.826357 -0.309647 -3.16601e-22)
(0.846338 -0.362058 -1.14324e-23)
(0.855116 -0.390297 8.48283e-22)
(0.847298 -0.405419 1.45304e-22)
(0.825316 -0.406318 -5.46393e-22)
(0.906036 -0.506929 8.4353e-22)
(0.894449 -0.493654 1.04593e-21)
(0.878008 -0.478089 -1.34166e-22)
(0.853364 -0.470419 -6.21402e-22)
(0.818069 -0.471557 9.38352e-22)
(0.776157 -0.463613 -1.81615e-21)
(0.737649 -0.418566 1.82597e-21)
(0.712854 -0.319521 -7.42762e-22)
(0.706824 -0.174088 -1.01349e-21)
(0.718949 -0.00886596 -5.70348e-22)
(0.744586 0.146323 -1.40324e-21)
(0.777088 0.270012 4.2111e-22)
(0.810782 0.353054 -2.67777e-21)
(0.841146 0.39925 -1.0456e-21)
(0.862894 0.424748 1.08816e-21)
(0.870835 0.448552 -2.13008e-21)
(0.86332 0.476392 -3.33417e-22)
(0.84432 0.492078 1.14879e-21)
(0.821228 0.468662 -1.25421e-22)
(0.80058 0.388412 -2.0304e-21)
(0.786577 0.254544 7.99286e-22)
(0.782273 0.088707 1.34579e-21)
(0.789251 -0.0781974 -2.41892e-22)
(0.805974 -0.216571 -3.32366e-21)
(0.828052 -0.310583 2.25379e-21)
(0.847634 -0.362752 5.12867e-22)
(0.856172 -0.390202 -8.7624e-22)
(0.848164 -0.404425 8.63757e-23)
(0.826 -0.404776 3.5292e-23)
(0.909269 -0.506235 1.70901e-21)
(0.896742 -0.492533 -2.06798e-21)
(0.879647 -0.476351 1.44749e-21)
(0.854666 -0.467738 -2.5892e-22)
(0.819141 -0.468135 4.84525e-22)
(0.77686 -0.460376 -8.04867e-23)
(0.737724 -0.416672 6.15084e-22)
(0.712178 -0.319646 1.10791e-21)
(0.705495 -0.176158 5.43028e-22)
(0.71714 -0.0122747 2.06627e-21)
(0.74252 0.142364 -2.82961e-22)
(0.775075 0.266183 -6.89834e-22)
(0.809145 0.349781 2.98249e-21)
(0.840079 0.396799 -8.40801e-22)
(0.862443 0.423322 -1.98658e-22)
(0.870994 0.448258 2.17089e-21)
(0.864101 0.477158 9.41343e-22)
(0.845755 0.49365 -1.59062e-21)
(0.82327 0.470701 -2.8646e-22)
(0.803058 0.390569 1.77618e-21)
(0.78927 0.256438 -6.89662e-22)
(0.784982 0.0899528 2.55236e-21)
(0.79181 -0.0778252 -8.37359e-22)
(0.808194 -0.217015 1.4048e-21)
(0.829812 -0.311448 -1.80626e-22)
(0.848987 -0.363407 8.27731e-22)
(0.857283 -0.390089 5.29381e-22)
(0.849094 -0.403422 -4.88858e-22)
(0.826755 -0.403233 6.18803e-23)
(0.912552 -0.505469 6.17002e-22)
(0.899094 -0.491365 1.78542e-21)
(0.881348 -0.474598 -1.95516e-22)
(0.856046 -0.465057 -5.20694e-22)
(0.820313 -0.464704 1.37813e-21)
(0.777683 -0.457121 4.74292e-22)
(0.737935 -0.41477 -4.07829e-22)
(0.711629 -0.319801 -1.39332e-21)
(0.704271 -0.178298 9.15419e-22)
(0.715417 -0.0157763 -1.41982e-22)
(0.740523 0.138305 -2.13617e-22)
(0.773118 0.262255 3.09443e-21)
(0.80755 0.346418 -3.86658e-22)
(0.839046 0.394269 -4.18012e-22)
(0.862025 0.421821 1.19234e-21)
(0.871192 0.447887 6.76924e-22)
(0.864934 0.477849 -1.33927e-21)
(0.847253 0.495168 1.34382e-21)
(0.82538 0.472731 -6.31042e-22)
(0.805605 0.392771 -3.79888e-24)
(0.792029 0.258419 2.88861e-21)
(0.787757 0.0913103 -2.90202e-21)
(0.794437 -0.0773386 -1.01791e-21)
(0.810484 -0.217358 -3.20463e-22)
(0.831636 -0.312241 -1.10214e-21)
(0.850396 -0.364022 1.86439e-22)
(0.858451 -0.389958 -2.04007e-22)
(0.850087 -0.402412 1.24002e-21)
(0.827578 -0.401691 -1.17664e-22)
(0.915884 -0.504632 -8.23333e-22)
(0.901504 -0.490154 2.25955e-21)
(0.883111 -0.472832 -9.37027e-22)
(0.857501 -0.462379 4.77428e-22)
(0.821582 -0.461268 -1.0997e-21)
(0.778627 -0.453848 -8.03422e-22)
(0.73828 -0.412859 2.33547e-22)
(0.711208 -0.31998 -6.53755e-22)
(0.703152 -0.180501 1.28238e-21)
(0.713778 -0.0193668 -1.2494e-21)
(0.738594 0.134147 -5.35553e-21)
(0.771215 0.258228 1.76355e-21)
(0.805998 0.342964 1.06655e-21)
(0.838045 0.391658 1.75996e-21)
(0.861638 0.420243 -2.73528e-21)
(0.871427 0.447436 -1.2277e-21)
(0.865815 0.478461 2.81374e-22)
(0.84881 0.496629 -4.47215e-22)
(0.827556 0.474749 -9.38582e-22)
(0.808218 0.395015 9.30426e-22)
(0.794854 0.260488 -1.79538e-21)
(0.790597 0.0927799 2.48416e-21)
(0.797131 -0.0767372 9.34983e-22)
(0.812844 -0.217601 -5.85302e-22)
(0.833526 -0.312961 -1.90414e-22)
(0.851861 -0.364597 1.40805e-22)
(0.859672 -0.389811 -9.47592e-22)
(0.851142 -0.401395 -1.54716e-21)
(0.828471 -0.400149 1.31136e-21)
(0.919267 -0.503727 1.88718e-22)
(0.903972 -0.488899 -6.37341e-22)
(0.884935 -0.471056 -2.0681e-21)
(0.85903 -0.459709 9.59062e-22)
(0.822947 -0.457831 -9.93542e-22)
(0.779689 -0.45056 2.36275e-21)
(0.738758 -0.410936 -1.94862e-21)
(0.710914 -0.320178 1.67178e-21)
(0.702139 -0.182762 -5.9296e-22)
(0.712223 -0.0230421 3.77203e-21)
(0.736732 0.129892 3.89189e-22)
(0.769366 0.254103 -3.20529e-23)
(0.804485 0.339421 -2.48339e-22)
(0.837075 0.388967 -3.73325e-21)
(0.861279 0.418587 1.03567e-21)
(0.871698 0.446904 -3.01098e-24)
(0.866744 0.478994 3.52467e-22)
(0.850425 0.498033 -1.55972e-21)
(0.829794 0.476754 2.54627e-21)
(0.810896 0.397301 -4.86727e-22)
(0.797743 0.262644 1.41246e-24)
(0.793501 0.0943619 9.6662e-22)
(0.799891 -0.0760202 -1.23748e-21)
(0.815272 -0.217743 -3.73859e-22)
(0.835482 -0.313608 1.49141e-21)
(0.853382 -0.365132 -4.21833e-22)
(0.860948 -0.389648 1.47546e-21)
(0.852258 -0.400373 4.71858e-22)
(0.829431 -0.398609 2.35651e-22)
(0.922698 -0.502756 -2.93902e-21)
(0.906499 -0.487604 1.5403e-21)
(0.88682 -0.469273 3.44542e-21)
(0.86063 -0.457049 -6.62345e-22)
(0.824406 -0.454397 -2.03126e-21)
(0.780868 -0.447256 3.86053e-22)
(0.73937 -0.408998 2.03753e-21)
(0.710747 -0.320388 -3.76327e-22)
(0.701231 -0.185075 -4.53809e-22)
(0.710752 -0.0267982 -2.96943e-22)
(0.734937 0.125544 1.61395e-21)
(0.76757 0.249883 -1.10442e-22)
(0.803011 0.335788 7.17193e-22)
(0.836134 0.386194 -1.28287e-21)
(0.860948 0.416853 1.49269e-21)
(0.872002 0.446288 6.49476e-22)
(0.867717 0.479445 -1.88143e-21)
(0.852095 0.499376 -2.04384e-22)
(0.832093 0.478745 2.38299e-22)
(0.813635 0.399628 -4.42535e-21)
(0.800694 0.264888 4.34413e-21)
(0.796466 0.0960564 -3.32665e-22)
(0.802715 -0.0751874 -3.00949e-21)
(0.817768 -0.217783 3.76464e-21)
(0.837502 -0.31418 -1.64968e-21)
(0.85496 -0.365627 4.90414e-22)
(0.862277 -0.389471 -2.69243e-21)
(0.853434 -0.399348 3.38014e-22)
(0.830458 -0.397071 -1.7936e-21)
(0.926176 -0.501722 -1.43699e-21)
(0.909084 -0.486269 -1.72117e-21)
(0.888765 -0.467484 -2.50202e-21)
(0.862302 -0.454404 1.43933e-21)
(0.825958 -0.450968 -3.45012e-22)
(0.782162 -0.443939 -1.66615e-21)
(0.740112 -0.407042 -6.58212e-22)
(0.710709 -0.320607 -4.86305e-21)
(0.70043 -0.187434 1.69609e-22)
(0.709364 -0.0306306 -4.32547e-23)
(0.733208 0.121105 -2.9836e-21)
(0.765825 0.245569 1.08122e-21)
(0.801575 0.332066 3.70424e-21)
(0.83522 0.383341 -2.29252e-21)
(0.860642 0.415039 -1.1586e-21)
(0.872336 0.445587 1.48554e-21)
(0.868732 0.479812 -7.91476e-22)
(0.853818 0.500658 -2.29631e-21)
(0.834449 0.480719 2.21392e-21)
(0.816435 0.401994 -1.08865e-21)
(0.803705 0.267218 -1.23987e-22)
(0.799491 0.0978635 -1.31509e-21)
(0.805602 -0.0742382 1.67282e-21)
(0.820332 -0.21772 -1.2568e-21)
(0.839587 -0.314678 3.38681e-21)
(0.856594 -0.366082 4.33561e-22)
(0.863658 -0.389279 4.67679e-22)
(0.85467 -0.39832 -2.6727e-22)
(0.831551 -0.395536 -2.41224e-22)
(0.929702 -0.500626 1.38019e-21)
(0.911727 -0.484896 -2.03656e-22)
(0.89077 -0.465692 -7.83638e-23)
(0.864041 -0.451778 1.62971e-21)
(0.8276 -0.447549 -7.12598e-22)
(0.783568 -0.440609 2.83897e-21)
(0.740985 -0.405068 1.83296e-21)
(0.710799 -0.320828 1.1253e-21)
(0.699734 -0.189835 -2.39807e-21)
(0.708058 -0.0345347 1.58719e-21)
(0.731545 0.116578 4.17984e-24)
(0.76413 0.241162 -3.77654e-22)
(0.800174 0.328256 -1.06148e-21)
(0.834332 0.380406 1.69866e-21)
(0.860359 0.413143 -4.74106e-22)
(0.8727 0.444799 -4.50625e-22)
(0.869787 0.480093 1.0634e-21)
(0.855589 0.501875 2.42871e-21)
(0.836861 0.482676 3.85797e-21)
(0.819293 0.404399 -3.10669e-21)
(0.806774 0.269635 4.81551e-21)
(0.802574 0.0997832 -3.24887e-21)
(0.808551 -0.0731724 5.04011e-22)
(0.822961 -0.217553 1.04596e-21)
(0.841737 -0.315099 -2.32114e-21)
(0.858283 -0.366496 -2.89948e-21)
(0.865092 -0.389075 6.6187e-23)
(0.855965 -0.39729 -8.45451e-22)
(0.832709 -0.394005 -1.7456e-22)
(0.933273 -0.499472 6.18239e-21)
(0.914427 -0.483487 -2.6965e-21)
(0.892833 -0.463897 2.21173e-21)
(0.865847 -0.449172 -2.87454e-21)
(0.82933 -0.444143 2.42645e-21)
(0.785085 -0.437268 -1.06081e-21)
(0.741986 -0.403072 4.65484e-22)
(0.711017 -0.321046 -1.51836e-21)
(0.699145 -0.192269 2.02259e-21)
(0.706835 -0.0385056 2.87966e-22)
(0.729945 0.111965 -8.07623e-22)
(0.762484 0.236664 -4.13004e-22)
(0.798808 0.324358 -8.76439e-22)
(0.833467 0.377389 -2.97751e-22)
(0.860097 0.411165 2.66511e-21)
(0.87309 0.443922 -1.02476e-21)
(0.870879 0.480285 2.01372e-21)
(0.857408 0.503026 -1.03571e-21)
(0.839326 0.484612 -1.30496e-21)
(0.822206 0.406841 6.86342e-22)
(0.809898 0.272137 -1.13655e-21)
(0.805713 0.101815 -2.84037e-21)
(0.811559 -0.0719896 -6.20381e-21)
(0.825656 -0.217283 5.21772e-22)
(0.843951 -0.315445 -2.18427e-21)
(0.860029 -0.366869 -6.46748e-23)
(0.866576 -0.388857 -6.11118e-22)
(0.857316 -0.39626 -6.07279e-22)
(0.833931 -0.392478 1.28902e-22)
(0.936889 -0.498261 -6.56892e-22)
(0.917185 -0.482043 7.21196e-22)
(0.894954 -0.462102 -5.52402e-22)
(0.867717 -0.446592 2.5234e-22)
(0.831146 -0.440753 -8.60416e-22)
(0.786711 -0.433918 -1.89638e-21)
(0.743112 -0.401053 -1.5974e-21)
(0.711364 -0.321257 2.33566e-21)
(0.698663 -0.194732 -7.34375e-22)
(0.705694 -0.0425387 7.80437e-22)
(0.72841 0.10727 -1.76195e-21)
(0.760885 0.232077 1.65837e-21)
(0.797475 0.320374 1.74869e-21)
(0.832625 0.374291 -8.00859e-22)
(0.859854 0.409104 -2.23608e-21)
(0.873505 0.442955 9.37318e-22)
(0.872005 0.480387 9.5481e-22)
(0.85927 0.50411 1.64398e-22)
(0.84184 0.486526 7.34444e-22)
(0.825172 0.409317 2.38538e-21)
(0.813077 0.274723 2.15805e-22)
(0.808907 0.10396 3.35703e-21)
(0.814626 -0.0706895 1.26915e-21)
(0.828415 -0.216908 3.55981e-21)
(0.84623 -0.315713 3.90155e-21)
(0.86183 -0.367201 2.3147e-21)
(0.868111 -0.388628 4.06124e-22)
(0.858724 -0.395231 -1.98362e-22)
(0.835216 -0.390956 1.7356e-21)
(0.940549 -0.496995 -1.91574e-21)
(0.919999 -0.480564 -2.20815e-22)
(0.897132 -0.460308 -1.17217e-21)
(0.86965 -0.444039 8.12429e-22)
(0.833045 -0.437385 5.67953e-22)
(0.788444 -0.43056 5.93704e-22)
(0.744363 -0.399009 1.97101e-21)
(0.711838 -0.321455 -2.33193e-21)
(0.69829 -0.197217 1.56014e-21)
(0.704637 -0.0466291 -1.09187e-21)
(0.726937 0.102496 6.50066e-22)
(0.759334 0.227401 -2.76631e-21)
(0.796173 0.316304 -1.76609e-21)
(0.831803 0.371111 -3.91767e-22)
(0.859628 0.40696 2.81548e-21)
(0.873941 0.441897 -9.32818e-22)
(0.873163 0.480397 2.6532e-22)
(0.861173 0.505122 -1.07476e-21)
(0.844402 0.488417 1.42532e-21)
(0.828189 0.411827 9.73393e-22)
(0.816308 0.277393 1.83545e-21)
(0.812153 0.106217 1.87836e-21)
(0.81775 -0.0692721 1.07402e-21)
(0.831238 -0.216429 -1.70765e-21)
(0.848572 -0.315903 -1.17893e-21)
(0.863686 -0.367491 9.04218e-22)
(0.869695 -0.388388 3.71681e-22)
(0.860186 -0.394204 -1.00188e-22)
(0.836562 -0.389439 -1.539e-22)
(0.944251 -0.495678 -4.60272e-23)
(0.92287 -0.479054 5.90943e-22)
(0.899367 -0.458516 9.96639e-22)
(0.871642 -0.441517 -2.45159e-21)
(0.835025 -0.43404 7.92847e-22)
(0.790281 -0.427196 -9.28627e-22)
(0.745735 -0.396938 3.09583e-22)
(0.71244 -0.321635 2.17075e-21)
(0.698026 -0.199718 9.03585e-22)
(0.703662 -0.0507718 2.61324e-22)
(0.725527 0.0976457 7.88544e-22)
(0.757828 0.22264 -7.79257e-22)
(0.794901 0.312149 1.53969e-21)
(0.830999 0.367849 -8.11409e-22)
(0.859417 0.40473 4.93178e-22)
(0.874397 0.440745 -1.09402e-21)
(0.874351 0.480314 -1.1395e-21)
(0.863114 0.506063 1.06262e-21)
(0.847008 0.490281 -1.22166e-21)
(0.831254 0.414369 -2.23747e-21)
(0.819588 0.280145 4.91642e-22)
(0.81545 0.108585 -4.97629e-21)
(0.820929 -0.0677372 -1.60497e-21)
(0.834122 -0.215844 -1.06662e-21)
(0.850977 -0.316014 1.04395e-21)
(0.865597 -0.36774 -3.00176e-21)
(0.871327 -0.388136 -3.69682e-22)
(0.861702 -0.393179 -2.43539e-21)
(0.83797 -0.387929 9.02558e-22)
(0.947993 -0.494311 -1.26637e-21)
(0.925795 -0.477512 -1.43076e-21)
(0.901657 -0.456727 3.55659e-21)
(0.873693 -0.439029 -1.55607e-21)
(0.837083 -0.430724 3.05134e-21)
(0.79222 -0.423828 -3.73482e-22)
(0.747227 -0.39484 -5.49325e-22)
(0.713168 -0.321794 -2.35809e-21)
(0.697872 -0.20223 2.28913e-21)
(0.702771 -0.0549618 8.35357e-22)
(0.72418 0.0927223 -1.98982e-21)
(0.756367 0.217795 3.57799e-21)
(0.793658 0.307909 -7.79315e-22)
(0.830212 0.364505 -1.71901e-21)
(0.859219 0.402415 -1.017e-21)
(0.87487 0.439499 1.90526e-21)
(0.875564 0.480134 2.81695e-21)
(0.86509 0.506929 4.31135e-22)
(0.849655 0.492116 1.13054e-21)
(0.834365 0.41694 6.78158e-21)
(0.822916 0.282979 -3.16186e-21)
(0.818796 0.111065 -2.44279e-21)
(0.824162 -0.0660848 -1.47713e-21)
(0.837066 -0.215153 7.31478e-21)
(0.853444 -0.316046 -1.7365e-21)
(0.867563 -0.367945 2.01619e-21)
(0.873008 -0.387874 4.67103e-21)
(0.86327 -0.392158 -8.02285e-22)
(0.839438 -0.386425 2.30608e-22)
(0.951774 -0.492896 -2.25429e-21)
(0.928776 -0.47594 -2.19556e-21)
(0.904002 -0.454942 8.71342e-22)
(0.875799 -0.436577 4.48842e-21)
(0.839215 -0.427439 -4.02145e-21)
(0.794259 -0.420457 1.28304e-21)
(0.748835 -0.392712 8.55356e-22)
(0.714022 -0.321926 -1.14998e-21)
(0.697829 -0.204745 8.44335e-22)
(0.701964 -0.0591938 -2.42588e-21)
(0.722894 0.0877294 -2.48473e-22)
(0.75495 0.212867 -3.89596e-22)
(0.792441 0.303586 1.61906e-21)
(0.829441 0.361079 -8.7656e-22)
(0.859031 0.400014 -3.88904e-22)
(0.875358 0.438157 4.49231e-23)
(0.876801 0.479858 -5.7551e-22)
(0.867098 0.507718 -1.45598e-22)
(0.852341 0.493921 -4.52421e-21)
(0.837519 0.419539 -2.55011e-21)
(0.826288 0.285892 -3.56757e-21)
(0.822188 0.113655 2.38726e-21)
(0.827446 -0.0643148 3.70905e-21)
(0.84007 -0.214357 -2.3384e-21)
(0.855973 -0.315998 -1.41566e-21)
(0.869584 -0.368107 5.86794e-22)
(0.874735 -0.387602 -2.87694e-22)
(0.864888 -0.391142 -5.59301e-22)
(0.840964 -0.384929 4.10619e-22)
(0.955593 -0.491436 -8.21304e-22)
(0.931809 -0.47434 5.10704e-22)
(0.906402 -0.453161 9.1797e-22)
(0.877958 -0.434164 -3.44716e-21)
(0.841419 -0.42419 4.59997e-22)
(0.796396 -0.417088 -1.43701e-21)
(0.750558 -0.390555 8.37718e-22)
(0.714999 -0.322027 7.63963e-22)
(0.697899 -0.207258 -1.00016e-21)
(0.701242 -0.0634625 -3.09733e-21)
(0.72167 0.0826706 1.90924e-21)
(0.753576 0.20786 5.41763e-22)
(0.791251 0.299181 -1.58386e-21)
(0.828682 0.357572 -3.74199e-22)
(0.858853 0.397527 6.68228e-22)
(0.875858 0.436719 -1.70461e-21)
(0.878058 0.479482 -1.60518e-21)
(0.869135 0.508429 -1.10414e-21)
(0.855062 0.495692 -1.90333e-21)
(0.840714 0.422163 4.73554e-21)
(0.829703 0.288884 3.39031e-21)
(0.825624 0.116356 -8.3282e-21)
(0.830779 -0.0624274 9.54175e-22)
(0.843131 -0.213454 7.49836e-22)
(0.858563 -0.315868 3.42278e-21)
(0.871658 -0.368225 -4.76269e-22)
(0.876509 -0.38732 1.64797e-21)
(0.866555 -0.390132 3.46268e-22)
(0.842547 -0.38344 -8.33074e-23)
(0.959448 -0.489932 2.42189e-21)
(0.934895 -0.472712 -4.36301e-21)
(0.908855 -0.451386 2.39318e-21)
(0.880169 -0.431791 2.41612e-21)
(0.843691 -0.420981 1.46382e-22)
(0.798628 -0.41372 -3.29304e-22)
(0.752393 -0.388366 -4.64743e-21)
(0.7161 -0.322094 4.8571e-21)
(0.698083 -0.209763 2.14388e-21)
(0.700607 -0.0677622 9.37219e-24)
(0.720509 0.0775496 3.69731e-22)
(0.752243 0.202775 1.06656e-22)
(0.790085 0.294696 4.98053e-22)
(0.827935 0.353985 -4.97491e-22)
(0.85868 0.394953 -2.84675e-22)
(0.876368 0.435183 1.55202e-21)
(0.879332 0.479005 3.3236e-21)
(0.871197 0.509058 8.22641e-23)
(0.857816 0.497427 2.10698e-21)
(0.843947 0.424809 1.15927e-21)
(0.833159 0.291953 -2.056e-21)
(0.829103 0.119166 -6.16655e-21)
(0.834161 -0.0604227 -2.53011e-21)
(0.846249 -0.212444 6.26282e-21)
(0.861213 -0.315657 -2.481e-21)
(0.873786 -0.368299 -5.37999e-21)
(0.878328 -0.387027 -4.25325e-22)
(0.86827 -0.389128 1.95359e-22)
(0.844186 -0.38196 1.12196e-21)
(0.963337 -0.488387 -6.37847e-22)
(0.938033 -0.471058 2.32449e-21)
(0.911361 -0.449615 -4.03865e-21)
(0.882429 -0.42946 1.54628e-21)
(0.846028 -0.417815 -1.11361e-21)
(0.800952 -0.410359 -3.27812e-21)
(0.754338 -0.386146 6.19188e-21)
(0.71732 -0.322122 -3.6816e-21)
(0.698382 -0.212255 -9.59088e-22)
(0.700061 -0.0720873 1.27537e-22)
(0.719409 0.0723703 -4.81566e-22)
(0.750952 0.197614 2.96997e-21)
(0.788942 0.29013 -1.94932e-21)
(0.827198 0.350316 -1.39102e-21)
(0.858513 0.392292 1.40723e-21)
(0.876884 0.433549 6.15527e-22)
(0.880621 0.478427 -2.22016e-21)
(0.873281 0.509604 1.60917e-21)
(0.8606 0.499123 -9.00073e-22)
(0.847215 0.427477 5.82695e-21)
(0.836652 0.295096 1.69787e-21)
(0.832622 0.122085 -4.93492e-22)
(0.837589 -0.0583009 3.49193e-21)
(0.849421 -0.211328 -7.13615e-21)
(0.863922 -0.315364 4.14517e-22)
(0.875967 -0.368327 -1.04754e-21)
(0.880192 -0.386725 -3.97198e-22)
(0.870031 -0.388132 4.17897e-22)
(0.845879 -0.38049 5.62005e-24)
(0.967259 -0.486803 6.06013e-21)
(0.94122 -0.469379 1.98767e-21)
(0.913919 -0.44785 -2.14845e-21)
(0.884736 -0.427173 5.33938e-22)
(0.848426 -0.414696 1.12224e-21)
(0.803366 -0.407005 2.82376e-21)
(0.756391 -0.383894 -5.69301e-22)
(0.718658 -0.322109 -2.77966e-21)
(0.698796 -0.214727 3.25364e-21)
(0.699605 -0.0764324 -2.78452e-21)
(0.718373 0.0671367 1.19779e-21)
(0.749703 0.192381 -1.36061e-21)
(0.787822 0.285486 -9.66209e-22)
(0.82647 0.346567 1.74147e-21)
(0.858347 0.389543 7.95957e-22)
(0.877405 0.431816 -2.89624e-22)
(0.881922 0.477745 -2.10246e-21)
(0.875385 0.510065 2.13322e-21)
(0.863411 0.500778 -2.13765e-21)
(0.850516 0.430162 9.27092e-22)
(0.840181 0.298313 -4.71128e-21)
(0.836179 0.125111 2.21368e-21)
(0.841062 -0.0560622 3.80015e-22)
(0.852646 -0.210104 -9.76182e-22)
(0.866688 -0.314988 6.79266e-21)
(0.8782 -0.368309 4.13698e-21)
(0.882099 -0.386414 6.00493e-22)
(0.871837 -0.387145 -1.63956e-22)
(0.847625 -0.379028 -5.64473e-22)
(0.971212 -0.485182 -3.8428e-21)
(0.944457 -0.467677 -2.15174e-21)
(0.916528 -0.446091 -4.89486e-22)
(0.887089 -0.424932 1.5406e-21)
(0.850882 -0.411627 -2.427e-21)
(0.805867 -0.403663 9.99319e-22)
(0.758549 -0.381609 -4.22663e-22)
(0.720111 -0.322051 1.26943e-21)
(0.699326 -0.217175 -1.58119e-21)
(0.699242 -0.0807916 -7.08998e-23)
(0.717401 0.0618531 1.35877e-22)
(0.748494 0.187077 2.67339e-21)
(0.786722 0.280765 -4.46938e-21)
(0.825748 0.342739 2.07028e-21)
(0.858182 0.386708 -1.01686e-21)
(0.877928 0.429982 6.1596e-22)
(0.88323 0.476958 7.67785e-22)
(0.877505 0.510439 1.89775e-21)
(0.866245 0.502389 -2.51803e-21)
(0.853846 0.432862 -3.82017e-21)