/*--------------------------------*- C++ -*----------------------------------*\
  =========                 |
  \\      /  F ield         | OpenFOAM: The Open Source CFD Toolbox
   \\    /   O peration     | Website:  https://openfoam.org
    \\  /    A nd           | Version:  7
     \\/     M anipulation  |
\*---------------------------------------------------------------------------*/
FoamFile
{
    version     2.0;
    format      ascii;
    class       surfaceScalarField;
    location    "280";
    object      phi;
}
// * * * * * * * * * * * * * * * * * * * * * * * * * * * * * * * * * * * * * //

dimensions      [0 3 -1 0 0 0 0];

internalField   nonuniform List<scalar> 
8899
(
-2.20721e-05
0.000161935
-0.000152779
-3.32615e-05
0.00017429
-0.0001631
-4.63003e-05
0.000175747
-0.000162708
-6.10395e-05
0.000168415
-0.000153676
-7.73638e-05
0.00015424
-0.000137916
-9.51878e-05
0.000134856
-0.000117032
-0.000114451
0.000111481
-9.22174e-05
-0.000135117
8.48577e-05
-6.41917e-05
-0.000157172
5.52502e-05
-3.31954e-05
-0.000180629
2.24807e-05
9.76203e-07
-0.000205535
-1.40053e-05
3.89108e-05
-0.000231975
-5.50722e-05
8.15123e-05
-0.000260079
-0.000101845
0.000129949
-0.000290019
-0.000155689
0.00018563
-0.000322001
-0.000218214
0.000250195
-0.000356228
-0.000291279
0.000325506
-0.000377156
0.000413839
-0.000392911
-2.17271e-05
0.000170992
-3.28425e-05
0.000185405
-4.58377e-05
0.000188742
-6.05635e-05
0.000183141
-7.68996e-05
0.000170576
-9.4752e-05
0.000152709
-0.000114051
0.00013078
-0.000134751
0.000105558
-0.000156832
7.73307e-05
-0.000180303
4.59514e-05
-0.000205211
1.09029e-05
-0.000231649
-2.86337e-05
-0.000259761
-7.37328e-05
-0.000289742
-0.000125708
-0.000321831
-0.000186125
-0.000356276
-0.000256834
-0.000340082
-0.000393351
-2.12094e-05
0.000179882
-3.2168e-05
0.000196364
-4.50236e-05
0.000201597
-5.96261e-05
0.000197744
-7.58485e-05
0.000186799
-9.35863e-05
0.000170446
-0.000112758
0.000149951
-0.000133303
0.000126104
-0.000155191
9.92188e-05
-0.000178422
6.91819e-05
-0.000203036
3.55169e-05
-0.000229124
-2.54588e-06
-0.000256834
-4.60231e-05
-0.000286374
-9.61677e-05
-0.000318009
-0.00015449
-0.000352027
-0.000222816
-0.000303355
-0.000388755
-2.05159e-05
0.000188535
-3.1233e-05
0.000207081
-4.38507e-05
0.000214215
-5.82177e-05
0.000212111
-7.41989e-05
0.00020278
-9.16775e-05
0.000187925
-0.000110556
0.00016883
-0.000130759
0.000146307
-0.000152238
0.000120697
-0.000174976
9.19202e-05
-0.000199
5.95414e-05
-0.000224391
2.28444e-05
-0.000251289
-1.91246e-05
-0.000279908
-6.75489e-05
-0.000310528
-0.00012387
-0.000343468
-0.000189876
-0.000267717
-0.000379106
-1.96461e-05
0.000196878
-3.0036e-05
0.000217471
-4.23165e-05
0.000226496
-5.63347e-05
0.000226129
-7.19467e-05
0.000218392
-8.90216e-05
0.000205
-0.000107444
0.000187252
-0.000127118
0.000165981
-0.000147974
0.000141553
-0.000169972
0.000113919
-0.000193119
8.26878e-05
-0.000217472
4.71978e-05
-0.000243158
6.56177e-06
-0.000270383
-4.03247e-05
-0.000299432
-9.48213e-05
-0.000330651
-0.000158656
-0.000233906
-0.000364463
-1.86023e-05
0.000204843
-2.85795e-05
0.000227448
-4.04234e-05
0.000238339
-5.39797e-05
0.000239685
-6.90954e-05
0.000233508
-8.56236e-05
0.000221528
-0.000103429
0.000205058
-0.000122392
0.000184944
-0.000142417
0.000161578
-0.000163437
0.000134939
-0.000185427
0.000104678
-0.000208417
7.01874e-05
-0.000232505
3.06501e-05
-0.000257878
-1.49522e-05
-0.000284818
-6.7881e-05
-0.000313691
-0.000129783
-0.000202639
-0.000344958
-1.73893e-05
0.000212358
-2.68697e-05
0.000236928
-3.81787e-05
0.000249648
-5.11616e-05
0.000252668
-6.56555e-05
0.000248002
-8.14971e-05
0.00023737
-9.85289e-05
0.00022209
-0.000116606
0.000203021
-0.000135601
0.000180573
-0.000155414
0.000154752
-0.000175984
0.000125248
-0.000197301
9.15042e-05
-0.000219426
5.27749e-05
-0.000242513
8.13489e-06
-0.000266831
-4.35626e-05
-0.000292759
-0.000103855
-0.000174606
-0.000320792
-1.60144e-05
-2.49161e-05
0.00024583
-3.55944e-05
0.000260327
-4.78947e-05
0.000264969
-6.16447e-05
0.000261752
-7.66639e-05
0.000252389
-9.27714e-05
0.000238197
-0.000109793
0.000220043
-0.00012757
0.000198349
-0.000145963
0.000173145
-0.000164866
0.000144152
-0.000184223
0.000110861
-0.000204046
7.25976e-05
-0.000224445
2.85336e-05
-0.000245662
-2.23458e-05
-0.00026808
-8.14366e-05
-0.000150455
-0.000292231
-2.27315e-05
0.000254074
-3.26865e-05
0.000270282
-4.41989e-05
0.000276481
-5.70871e-05
0.00027464
-7.11532e-05
0.000266455
-8.61923e-05
0.000253236
-0.000102
0.000235851
-0.000118382
0.00021473
-0.000135155
0.000189919
-0.000152166
0.000161163
-0.000169302
0.000127997
-0.000186516
8.98107e-05
-0.00020386
4.58779e-05
-0.000221537
-4.66849e-06
-0.000239929
-6.30451e-05
-0.000130789
-0.000259595
-2.0332e-05
0.000261587
-2.94756e-05
0.000279425
-4.00992e-05
0.000287104
-5.20129e-05
0.000286554
-6.50015e-05
0.000279444
-7.88358e-05
0.00026707
-9.32806e-05
0.000250296
-0.000108102
0.000229552
-0.000123075
0.000204891
-0.00013799
0.000176078
-0.000152672
0.000142679
-0.000167004
0.000104143
-0.00018097
5.98442e-05
-0.000194718
9.07948e-06
-0.000208617
-4.91464e-05
-0.000116156
-0.000223251
-1.77366e-05
0.000268298
-2.59861e-05
0.000287675
-3.56257e-05
0.000296744
-4.6458e-05
0.000297386
-5.82515e-05
0.000291237
-7.07527e-05
0.000279572
-8.36952e-05
0.000263239
-9.68065e-05
0.000242663
-0.000109814
0.000217899
-0.000122452
0.000188716
-0.000134477
0.000154704
-0.000145694
0.00011536
-0.000156006
7.01558e-05
-0.000165489
1.85626e-05
-0.000174489
-4.01464e-05
-0.000107043
-0.000183602
-1.49676e-05
0.000274144
-2.22462e-05
0.000294953
-3.08128e-05
0.000305311
-4.04636e-05
0.000307037
-5.09517e-05
0.000301725
-6.20001e-05
0.00029062
-7.33117e-05
0.00027455
-8.45754e-05
0.000253927
-9.54709e-05
0.000228794
-0.000105674
0.000198919
-0.000114869
0.000163899
-0.000122777
0.000123268
-0.000129206
7.65846e-05
-0.000134147
2.35039e-05
-0.000137908
-3.63857e-05
-0.000103871
-0.00014108
-1.20501e-05
0.000279068
-1.82877e-05
0.000301191
-2.56993e-05
0.000312722
-3.40758e-05
0.000315413
-4.31559e-05
0.000310805
-5.26406e-05
0.000300105
-6.22029e-05
0.000284112
-7.14942e-05
0.000263218
-8.01471e-05
0.000237447
-8.77789e-05
0.000206551
-9.40004e-05
0.000170121
-9.84425e-05
0.00012771
-0.00010081
7.89523e-05
-0.000100993
2.36871e-05
-9.92457e-05
-3.81334e-05
-0.000106984
-9.61321e-05
-9.01134e-06
0.000283021
-1.41457e-05
0.000306325
-2.03278e-05
0.000318904
-2.73448e-05
0.00032243
-3.49225e-05
0.000318383
-4.27412e-05
0.000307923
-5.04458e-05
0.000291817
-5.76517e-05
0.000270424
-6.39465e-05
0.000243742
-6.88897e-05
0.000211494
-7.20195e-05
0.000173251
-7.28742e-05
0.000128565
-7.10479e-05
7.71259e-05
-6.63145e-05
1.89538e-05
-5.88756e-05
-4.55723e-05
-0.000116627
-4.92333e-05
-5.88052e-06
0.000285962
-9.85767e-06
0.000310302
-1.47443e-05
0.000323791
-2.03248e-05
0.000328011
-2.63139e-05
0.000324372
-3.2373e-05
0.000313982
-3.81208e-05
0.000297565
-4.3139e-05
0.000275442
-4.69725e-05
0.000247575
-4.91265e-05
0.000213649
-4.90683e-05
0.000173192
-4.62435e-05
0.00012574
-4.01298e-05
7.10123e-05
-3.0354e-05
9.17796e-06
-1.70516e-05
-5.88747e-05
-0.000132039
-1.63947e-06
-2.6883e-06
-5.46334e-06
0.000313077
-8.99727e-06
0.000327325
-1.30732e-05
0.000332087
-1.73963e-05
0.000328695
-2.16107e-05
0.000318197
-2.53111e-05
0.000301265
-2.80483e-05
0.000278179
-2.93278e-05
0.000248855
-2.86045e-05
0.000212925
-2.52786e-05
0.000169867
-1.87054e-05
0.000119167
-8.24547e-06
6.05523e-05
6.59984e-06
-5.66735e-06
2.6085e-05
-7.83599e-05
-0.000154949
4.89952e-05
-1.00413e-06
0.000314615
-3.13786e-06
0.000329459
-5.65043e-06
0.000334599
-8.23886e-06
0.000331284
-1.05319e-05
0.00032049
-1.21026e-05
0.000302836
-1.24732e-05
0.00027855
-1.11138e-05
0.000247496
-7.43348e-06
0.000209245
-7.71443e-07
0.000163205
9.60263e-06
0.000108793
2.44541e-05
4.57009e-05
4.44691e-05
-2.56824e-05
6.98474e-05
-0.000103738
-0.000185091
9.99888e-05
3.4773e-06
0.000314891
2.78115e-06
0.000330155
1.88084e-06
0.000335499
1.0865e-06
0.000332078
7.82789e-07
0.000320794
1.41688e-06
0.000302202
3.49161e-06
0.000276475
7.56974e-06
0.000243417
1.4282e-05
0.000202533
2.43437e-05
0.000153143
3.85626e-05
9.45738e-05
5.78209e-05
2.64425e-05
8.2967e-05
-5.08284e-05
0.000114411
-0.000135182
-0.000222305
0.000151626
7.9376e-06
0.00031389
8.70569e-06
0.000329387
9.45662e-06
0.000334749
1.05062e-05
0.000331029
1.22517e-05
0.000319048
1.51581e-05
0.000299295
1.97522e-05
0.000271881
2.66245e-05
0.000236545
3.64422e-05
0.000192715
4.99672e-05
0.000139618
6.80752e-05
7.64658e-05
9.17543e-05
2.76347e-06
0.000122022
-8.10959e-05
0.000159505
-0.000172666
-0.000266615
0.000203815
1.23331e-05
1.45813e-05
0.000327138
1.70114e-05
0.000332318
1.99448e-05
0.000328095
2.37902e-05
0.000315203
2.90296e-05
0.000294056
3.62113e-05
0.000264699
4.59522e-05
0.000226804
5.89507e-05
0.000179716
7.60084e-05
0.00012256
9.80579e-05
5.44164e-05
0.000126179
-2.53575e-05
0.000161549
-0.000116467
0.000205026
-0.000216142
-0.000318017
0.000256428
2.03539e-05
0.000323405
2.44804e-05
0.000328192
2.93272e-05
0.000323248
3.53143e-05
0.000309216
4.294e-05
0.00028643
5.27734e-05
0.000254866
6.5456e-05
0.000214122
8.17142e-05
0.000163458
0.000102383
0.000101891
0.000128441
2.83584e-05
0.000161043
-5.79589e-05
0.00020151
-0.000156934
0.000250932
-0.000265565
-0.00037649
0.000309406
2.59709e-05
0.000318194
3.17997e-05
0.000322363
3.85792e-05
0.000316469
4.67406e-05
0.000301054
5.67986e-05
0.000276372
6.93431e-05
0.000242322
8.50399e-05
0.000198425
0.000104642
0.000143857
0.000129012
7.75202e-05
0.000159166
-1.7951e-06
0.000196313
-9.51054e-05
0.000241895
-0.000202517
0.000297227
-0.000320897
-0.000442012
0.000362749
3.13821e-05
0.000311523
3.89084e-05
0.000314837
4.76294e-05
0.000307748
5.79885e-05
0.000290695
7.05175e-05
0.000263843
8.58283e-05
0.000227011
0.000104611
0.000179642
0.000127646
0.000120822
0.000155822
4.9344e-05
0.000190181
-3.61541e-05
0.00023197
-0.000136895
0.000282725
-0.000253271
0.000343956
-0.000382128
-0.000514562
0.000416506
3.65417e-05
4.57501e-05
0.000305628
5.64114e-05
0.000297087
6.89826e-05
0.000278124
8.40144e-05
0.000248811
0.000102142
0.000208883
0.000124084
0.0001577
0.000150646
9.42601e-05
0.000182744
1.72451e-05
0.000221443
-7.48523e-05
0.000268008
-0.00018346
0.000324034
-0.000309297
0.000391192
-0.000449286
-0.000594125
0.000470755
5.22747e-05
0.000294763
6.48661e-05
0.000284495
7.96559e-05
0.000263334
9.72161e-05
0.000231251
0.000118208
0.000187891
0.000143381
0.000132528
0.000173571
6.40699e-05
0.000209723
-1.8907e-05
0.000252918
-0.000118047
0.000304429
-0.000234971
0.00036587
-0.000370739
0.000439026
-0.000522442
-0.000680696
0.000525597
5.84414e-05
0.000282274
7.29446e-05
0.000269992
8.99531e-05
0.000246326
0.000110063
0.000211142
0.000133965
0.000163988
0.000162442
0.000104051
0.000196368
3.0144e-05
0.000236717
-5.92561e-05
0.000284588
-0.000165918
0.000341247
-0.000291629
0.000408291
-0.000437783
0.000487559
-0.000601709
-0.000774269
0.000581132
6.42201e-05
8.06116e-05
0.000253601
9.98344e-05
0.000227103
0.000122512
0.000188464
0.000149371
0.000137129
0.000181233
7.21897e-05
0.00021901
-7.63355e-06
0.000263714
-0.00010396
0.000316459
-0.000218663
0.000378495
-0.000353666
0.000451364
-0.000510652
0.000536894
-0.000687239
-0.000874826
0.000637451
8.78477e-05
0.000235347
0.00010928
0.000205671
0.000134546
0.000163197
0.000164413
0.000107263
0.000199744
3.68582e-05
0.000241501
-4.93901e-05
0.00029073
-0.000153189
0.000348566
-0.000276499
0.00041623
-0.00042133
0.000495165
-0.000589587
0.000587131
-0.000779206
-0.000982313
0.000694618
9.4653e-05
0.000215257
0.000118292
0.000182032
0.000146173
0.000135316
0.000179106
7.433e-05
0.000218006
-2.04196e-06
0.000263883
-9.52672e-05
0.000317826
-0.000207132
0.000380982
-0.000339655
0.000454535
-0.000494883
0.000539781
-0.000674832
0.000638359
-0.000877785
-0.00109661
0.000752655
0.000101049
0.0001269
0.000156182
0.000157432
0.000104784
0.000193505
3.82569e-05
0.000236089
-4.46257e-05
0.000286246
-0.000145424
0.000345105
-0.000265991
0.000413819
-0.000408369
0.000493521
-0.000574585
0.000585302
-0.000766614
0.000690644
-0.000983126
-0.00121749
0.000811521
0.000135162
0.000128102
0.000168396
7.15487e-05
0.000207701
-1.04777e-06
0.000254104
-9.10281e-05
0.000308719
-0.00020004
0.000372711
-0.000329983
0.000447224
-0.000482882
0.000533315
-0.000660676
0.000631814
-0.000865112
0.00074401
-0.00109532
-0.00134457
0.000871094
0.000143164
0.000179174
3.5539e-05
0.000221824
-4.36984e-05
0.000272203
-0.000141407
0.000331476
-0.000259312
0.000400826
-0.000399333
0.000481369
-0.000563425
0.000574052
-0.000753358
0.000679373
-0.000970433
0.000798416
-0.00121437
-0.00147729
0.000931141
0.000189903
-3.34167e-06
0.000236038
-8.98339e-05
0.000290574
-0.000195943
0.000354716
-0.000323454
0.000429651
-0.000474268
0.000516427
-0.000650201
0.000615841
-0.000852772
0.000727987
-0.00108258
0.000853732
-0.00134011
-0.00161487
0.000991306
0.00020075
-4.52155e-05
0.000250534
-0.000139618
0.000309427
-0.000254836
0.000378658
-0.000392685
0.000459388
-0.000554998
0.000552556
-0.000743369
0.000658747
-0.000958963
0.00077759
-0.00120142
0.000909708
-0.00147223
-0.00175625
0.00105109
0.000211902
0.00026552
-0.000193236
0.00032898
-0.000318297
0.000403514
-0.000467219
0.000490214
-0.000641699
0.00058986
-0.000843014
0.000702753
-0.00107186
0.000828019
-0.00132669
0.000965964
-0.00161017
-0.00190012
0.00110983
0.000281207
-0.000250889
0.000349446
-0.000386535
0.00042947
-0.000547242
0.00052226
-0.000734489
0.000628371
-0.000949125
0.000747739
-0.00119122
0.000878989
-0.00145794
0.00102196
-0.00175315
-0.00204492
0.00116676
0.000297797
0.000371009
-0.000459747
0.000456666
-0.0006329
0.000555581
-0.000833404
0.000668019
-0.00106156
0.000793464
-0.00131667
0.000930085
-0.00159456
0.00107696
-0.00190002
-0.00218902
0.00122106
0.000393807
-0.000538093
0.000485172
-0.000724265
0.000590139
-0.000938371
0.000708628
-0.00118005
0.000839597
-0.00144764
0.000980845
-0.00173581
0.00113001
-0.00204919
-0.00233105
0.00127205
0.00041792
0.000514974
-0.000821319
0.000625786
-0.00104918
0.000749883
-0.00130415
0.000885718
-0.00158347
0.0010309
-0.00188099
0.00118044
-0.00219873
-0.00246959
0.00131897
0.000545959
-0.000923929
0.000662253
-0.00116548
0.000791317
-0.00143321
0.000931177
-0.00172333
0.00107958
-0.00202939
0.00122897
-0.00234812
-0.00260102
0.00136041
0.000577927
0.000699169
-0.00128672
0.000832343
-0.00156639
0.000975013
-0.001866
0.00112472
-0.00217909
0.00127587
-0.00249928
-0.00278591
0.00146077
0.000736083
0.000872335
-0.00170264
0.00101642
-0.00201009
0.00116536
-0.00232804
0.00131415
-0.00264807
-0.00294831
0.00147655
0.000910699
-0.00184083
0.00105474
-0.00215413
0.001201
-0.0024743
0.00134472
-0.00279178
-0.00309431
0.00149071
0.000946879
0.00108949
-0.00229675
0.00123167
-0.00261648
0.00136887
-0.00292898
-0.0032273
0.00150186
0.0011203
0.0012573
-0.00275347
0.00138715
-0.00305883
-0.00334908
0.00150892
0.00127782
-0.00288444
0.00139985
-0.00318086
-0.00346075
0.00151152
0.00129323
0.00140723
-0.00329486
-0.00356309
0.00150956
0.00140952
-0.0036567
0.00150313
0.00149248
0.00303599
0.00151232
0.00136551
0.00261883
0.00289888
0.00150262
0.00118822
0.00217527
0.00133903
0.00246802
0.00275141
0.0014865
0.00114801
0.00201887
0.00130585
0.00231019
0.00259334
0.00146393
0.00094276
0.00158294
0.00110201
0.00185962
0.00126597
0.00214623
0.00242422
0.00143509
0.000740785
0.00118684
0.000889809
0.00143391
0.00105044
0.00169899
0.00121937
0.0019773
0.00224311
0.00140048
0.000687267
0.00105601
0.000833249
0.00128793
0.000993559
0.00153868
0.00116598
0.00180488
0.00204814
0.00136095
0.000507215
0.000737306
0.00063226
0.000930965
0.0007736
0.00114659
0.000931424
0.00138085
0.0011054
0.0016309
0.0018359
0.00131764
0.000356535
0.000481356
0.000458193
0.000635647
0.000576444
0.000812715
0.000711485
0.00101155
0.000863747
0.00122859
0.00103436
0.00146029
0.00159795
0.00127231
0.000315669
0.000402521
0.000409993
0.000541323
0.000520624
0.000702084
0.000647888
0.000884286
0.000791797
0.00108468
0.000949009
0.00130308
0.00146311
0.00108385
0.000204579
0.000226695
0.000276521
0.000330579
0.000363275
0.000454569
0.000465759
0.0005996
0.000584281
0.000765763
0.000718075
0.000950891
0.000864971
0.00115618
0.00132529
0.00100279
0.00017438
0.000174228
0.000239533
0.000265426
0.000318682
0.000375419
0.000412823
0.000505459
0.000522364
0.000656223
0.000646587
0.000826667
0.00078531
0.00101746
0.001189
0.000921605
9.96893e-05
6.37724e-05
0.000146505
0.000127412
0.0002051
0.000206831
0.000276794
0.000303725
0.000362655
0.000419598
0.000463279
0.000555598
0.000578332
0.000711614
0.000708445
0.000887344
0.00105508
0.000842365
7.96443e-05
3.17522e-05
0.000121169
8.58878e-05
0.000173549
0.00015445
0.000238091
0.000239184
0.000315921
0.000341768
0.000407828
0.000463691
0.000513932
0.000605511
0.000635279
0.000765997
0.000924455
0.000765901
3.38735e-05
-3.02115e-05
6.18638e-05
3.76191e-06
9.85219e-05
4.92297e-05
0.000145125
0.000107847
0.000202946
0.000181363
0.000273154
0.00027156
0.000356711
0.000380134
0.000454204
0.000508018
0.000567046
0.000653155
0.000798292
0.000693209
2.19909e-05
-4.78438e-05
4.63764e-05
-2.06236e-05
7.86408e-05
1.69653e-05
0.000119979
6.65089e-05
0.000171616
0.000129726
0.000234751
0.000208425
0.000310501
0.000304384
0.000399885
0.000418634
0.000504666
0.000548374
0.000677549
0.000625409
-3.16356e-06
-7.60583e-05
1.19297e-05
-6.29371e-05
3.31484e-05
-4.18422e-05
6.15209e-05
-1.14073e-05
9.81566e-05
2.98733e-05
0.000144229
8.36531e-05
0.000200953
0.000151702
0.00026958
0.000235756
0.000351496
0.000336719
0.000448763
0.000451106
0.000562868
0.000563444
-9.32495e-06
-8.42679e-05
3.59563e-06
-7.58577e-05
2.20831e-05
-6.03297e-05
4.70747e-05
-3.6399e-05
7.9598e-05
-2.64995e-06
0.000120774
4.24775e-05
0.000171822
0.000100653
0.000234108
0.00017347
0.000309294
0.000261533
0.000399665
0.000360735
0.000454599
0.000507934
-1.42433e-05
-9.1057e-05
-3.1502e-06
-8.69507e-05
1.30233e-05
-7.65032e-05
3.51332e-05
-5.85089e-05
6.41329e-05
-3.16496e-05
0.000101093
5.51737e-06
0.000147234
5.45128e-05
0.000204002
0.000116702
0.000273251
0.000192284
0.000357375
0.000276611
0.000352848
0.000459126
-2.36874e-05
-9.2256e-05
-1.80649e-05
-9.66795e-05
-8.48603e-06
-9.65296e-05
5.75791e-06
-9.07471e-05
2.54533e-05
-7.82043e-05
5.14897e-05
-5.76861e-05
8.48937e-05
-2.78865e-05
0.000126879
1.25273e-05
0.000178946
6.46347e-05
0.000243045
0.000128185
0.000321559
0.000198097
0.000257525
0.000416882
-2.56327e-05
-9.387e-05
-2.09584e-05
-0.000101354
-1.26212e-05
-0.000104867
3.1549e-08
-0.0001034
1.77293e-05
-9.5902e-05
4.13096e-05
-8.12664e-05
7.17608e-05
-5.83378e-05
0.000110285
-2.59973e-05
0.000158403
1.65167e-05
0.00021808
6.85086e-05
0.000291574
0.000124603
0.000168391
0.000380708
-2.70121e-05
-9.49191e-05
-2.31077e-05
-0.000105258
-1.57872e-05
-0.000112187
-4.4426e-06
-0.000114745
1.16099e-05
-0.000111955
3.31671e-05
-0.000102824
6.1185e-05
-8.63557e-05
9.68482e-05
-6.16605e-05
0.000141665
-2.83e-05
0.000197545
1.26286e-05
0.000266535
5.56129e-05
8.51131e-05
0.000349813
-2.8565e-05
-8.05374e-05
-2.79745e-05
-9.55096e-05
-2.4704e-05
-0.000108529
-1.82268e-05
-0.000118664
-7.96982e-06
-0.000125002
6.71633e-06
-0.000126641
2.65954e-05
-0.000122703
5.25958e-05
-0.000112356
8.58767e-05
-9.49413e-05
0.000127907
-7.03301e-05
0.000180486
-3.99503e-05
0.000245393
-9.29451e-06
7.31074e-06
0.000323195
-2.88712e-05
-7.86947e-05
-2.86678e-05
-9.5713e-05
-2.59384e-05
-0.000111258
-2.01832e-05
-0.00012442
-1.08569e-05
-0.000134328
2.66279e-06
-0.00014016
2.11141e-05
-0.000141154
4.53993e-05
-0.000136641
7.66445e-05
-0.000126187
0.000116256
-0.000109941
0.000165888
-8.95825e-05
0.000227033
-7.04396e-05
-6.53988e-05
0.000299743
-2.90884e-05
-7.66208e-05
-2.9234e-05
-9.55674e-05
-2.69937e-05
-0.000113498
-2.18904e-05
-0.000129523
-1.34008e-05
-0.000142817
-9.24239e-07
-0.000152637
1.62551e-05
-0.000158333
3.90139e-05
-0.0001594
6.84381e-05
-0.000155611
0.000105855
-0.000147358
0.000152756
-0.000136483
0.000210356
-0.00012804
-0.000133364
0.000278321
-2.70149e-05
-5.39209e-05
-2.93168e-05
-7.43189e-05
-2.98039e-05
-9.50803e-05
-2.80388e-05
-0.000115263
-2.35638e-05
-0.000133998
-1.58749e-05
-0.000150506
-4.38997e-06
-0.000164122
1.15863e-05
-0.000174309
3.29028e-05
-0.000180717
6.05991e-05
-0.000183307
9.59134e-05
-0.000182672
0.000140174
-0.000180744
0.00019435
-0.000182216
-0.000196873
0.000257859
-2.70968e-05
-5.00919e-05
-2.96455e-05
-7.17702e-05
-3.04937e-05
-9.42321e-05
-2.92228e-05
-0.000116534
-2.53936e-05
-0.000137827
-1.85194e-05
-0.00015738
-8.03649e-06
-0.000174605
6.72963e-06
-0.000189076
2.65978e-05
-0.000200585
5.25563e-05
-0.000209266
8.57515e-05
-0.000215867
0.000127358
-0.00022235
0.000178145
-0.000233003
-0.000256137
0.000237409
-2.73179e-05
-4.60787e-05
-3.01507e-05
-6.89374e-05
-3.14019e-05
-9.29809e-05
-3.06717e-05
-0.000117265
-2.75389e-05
-0.00014096
-2.15349e-05
-0.000163384
-1.21146e-05
-0.000184025
1.37365e-06
-0.000202564
1.97156e-05
-0.000218927
4.38458e-05
-0.000233396
7.48207e-05
-0.000246842
0.000113679
-0.000261208
0.000161039
-0.000280363
-0.000311285
0.000216187
-2.77249e-05
-4.18362e-05
-3.08935e-05
-6.57687e-05
-3.2607e-05
-9.12675e-05
-3.24849e-05
-0.000117387
-3.01249e-05
-0.00014332
-2.50775e-05
-0.000168432
-1.68181e-05
-0.000192285
-4.72015e-06
-0.000214662
1.19662e-05
-0.000235613
3.41206e-05
-0.00025555
6.27151e-05
-0.000275437
9.8674e-05
-0.000297167
0.000142512
-0.000324201
-0.000362365
0.000193592
-2.38272e-05
-1.54079e-05
-2.83526e-05
-3.73108e-05
-3.19195e-05
-6.22018e-05
-3.4167e-05
-8.902e-05
-3.4735e-05
-0.000116819
-3.32416e-05
-0.000144813
-2.9258e-05
-0.000172416
-2.22824e-05
-0.00019926
-1.17161e-05
-0.000225228
3.153e-06
-0.000250482
2.31495e-05
-0.000275547
4.91686e-05
-0.000301456
8.20423e-05
-0.00033004
0.000122219
-0.000364378
-0.000409351
0.000169206
-2.43563e-05
-1.0065e-05
-2.92243e-05
-3.24428e-05
-3.32582e-05
-5.81679e-05
-3.61187e-05
-8.61595e-05
-3.74673e-05
-0.00011547
-3.6944e-05
-0.000145337
-3.41425e-05
-0.000175217
-2.85861e-05
-0.000204817
-1.97066e-05
-0.000234107
-6.83143e-06
-0.000263358
1.081e-05
-0.000293188
3.40442e-05
-0.00032469
6.36304e-05
-0.000359627
9.99773e-05
-0.000400725
-0.000452159
0.000142785
-2.50786e-05
-4.42968e-06
-3.03511e-05
-2.71703e-05
-3.49235e-05
-5.35956e-05
-3.84787e-05
-8.26042e-05
-4.07011e-05
-0.000113248
-4.12536e-05
-0.000144784
-3.97548e-05
-0.000176716
-3.57551e-05
-0.000208816
-2.87189e-05
-0.000241144
-1.80145e-05
-0.000274062
-2.92266e-06
-0.00030828
1.73183e-05
-0.000344931
4.34139e-05
-0.000385722
7.57461e-05
-0.000433057
-0.000490646
0.000114234
-2.59946e-05
1.55133e-06
-3.17332e-05
-2.14317e-05
-3.69145e-05
-4.84142e-05
-4.12445e-05
-7.82742e-05
-4.44309e-05
-0.000110061
-4.61614e-05
-0.000143053
-4.60805e-05
-0.000176797
-4.37679e-05
-0.000211129
-3.87222e-05
-0.000246189
-3.03536e-05
-0.000282431
-1.79946e-05
-0.000320639
-9.38209e-07
-0.000361988
2.14812e-05
-0.000408142
4.96034e-05
-0.000461179
-0.000524629
8.35863e-05
-2.07188e-05
2.54739e-05
-2.70966e-05
7.92908e-06
-3.33601e-05
-1.51681e-05
-3.92168e-05
-4.25575e-05
-4.4396e-05
-7.30951e-05
-4.86296e-05
-0.000105828
-5.16309e-05
-0.000140052
-5.30716e-05
-0.000175356
-5.25621e-05
-0.000211638
-4.96366e-05
-0.000249115
-4.37477e-05
-0.00028832
-3.42773e-05
-0.000330109
-2.05786e-05
-0.000375686
-2.09898e-06
-0.000426621
2.17348e-05
-0.000485013
-0.000553877
5.09821e-05
-2.15485e-05
3.19674e-05
-2.837e-05
1.47506e-05
-3.52117e-05
-8.32645e-06
-4.18033e-05
-3.59659e-05
-4.78974e-05
-6.7001e-05
-5.32506e-05
-0.000100474
-5.76019e-05
-0.000135701
-6.06514e-05
-0.000172307
-6.20412e-05
-0.000210248
-6.13421e-05
-0.000249814
-5.80495e-05
-0.000291612
-5.15939e-05
-0.000336565
-4.1373e-05
-0.000385907
-2.67557e-05
-0.000441239
-7.07182e-06
-0.000504697
-0.000577434
1.64855e-05
-2.24878e-05
3.88261e-05
-2.97939e-05
2.20567e-05
-3.72596e-05
-8.60737e-07
-4.46364e-05
-2.85892e-05
-5.16997e-05
-5.99376e-05
-5.82307e-05
-9.39435e-05
-6.39944e-05
-0.000129937
-6.87198e-05
-0.000167581
-7.20812e-05
-0.000206887
-7.3687e-05
-0.000248208
-7.30762e-05
-0.000292223
-6.97278e-05
-0.000339913
-6.30866e-05
-0.000392548
-5.26072e-05
-0.000451718
-3.80032e-05
-0.000519301
-0.000596299
-1.91382e-05
-2.35178e-05
4.60792e-05
-3.13418e-05
2.98807e-05
-3.94682e-05
7.26563e-06
-4.76691e-05
-2.03882e-05
-5.57426e-05
-5.18641e-05
-6.34934e-05
-8.61927e-05
-7.07127e-05
-0.000122718
-7.71581e-05
-0.000161136
-8.25368e-05
-0.000201508
-8.64956e-05
-0.000244249
-8.86175e-05
-0.000290101
-8.84299e-05
-0.000340101
-8.54255e-05
-0.000395553
-7.91039e-05
-0.000458039
-6.90867e-05
-0.000529318
-0.000610604
-5.47816e-05
-2.46165e-05
5.37486e-05
-3.29829e-05
3.82471e-05
-4.17959e-05
1.60786e-05
-5.08474e-05
-1.13367e-05
-5.99567e-05
-4.27549e-05
-6.89516e-05
-7.71978e-05
-7.76486e-05
-0.000114021
-8.58337e-05
-0.000152951
-9.32475e-05
-0.000194094
-9.95752e-05
-0.000237922
-0.000104445
-0.000285232
-0.000107433
-0.000337113
-0.000108079
-0.000394906
-0.000105921
-0.000460198
-0.000100548
-0.000534691
-0.000619781
-9.13714e-05
-2.57591e-05
6.18483e-05
-3.46827e-05
4.71708e-05
-4.41967e-05
2.55926e-05
-5.41114e-05
-1.42204e-06
-6.42661e-05
-3.26002e-05
-7.45105e-05
-6.69535e-05
-8.46853e-05
-0.000103846
-9.46047e-05
-0.000143031
-0.000104042
-0.000184657
-0.000112722
-0.000229242
-0.000120318
-0.000277636
-0.000126458
-0.000330974
-0.000130732
-0.000390632
-0.000132719
-0.000458211
-0.000132022
-0.000535388
-0.00062371
-0.000128094
-2.69188e-05
7.03836e-05
-3.64039e-05
5.66558e-05
-4.66208e-05
3.58096e-05
-5.7397e-05
9.35415e-06
-6.85901e-05
-2.14071e-05
-8.007e-05
-5.54735e-05
-9.17007e-05
-9.22153e-05
-0.000103323
-0.000131409
-0.000114744
-0.000173236
-0.000125727
-0.000218259
-0.000135992
-0.000267371
-0.000145219
-0.000321747
-0.000153054
-0.000382797
-0.000159127
-0.000452138
-0.000163069
-0.000531445
-0.00062239
-0.000164389
-2.80671e-05
7.93505e-05
-3.8107e-05
6.66957e-05
-4.90163e-05
4.67189e-05
-6.06378e-05
2.09756e-05
-7.28454e-05
-9.1995e-06
-8.55277e-05
-4.27912e-05
-9.85702e-05
-7.91728e-05
-0.00011184
-0.000118139
-0.000125175
-0.000159901
-0.00013838
-0.000205055
-0.00015122
-0.000254531
-0.000163429
-0.000309537
-0.000174713
-0.000371513
-0.000184757
-0.000442094
-0.000193237
-0.000522965
-0.000615907
-0.00019972
-1.97894e-05
9.09719e-05
-2.91744e-05
8.87356e-05
-3.97516e-05
7.7273e-05
-5.13302e-05
5.82975e-05
-6.37662e-05
3.34115e-05
-7.69481e-05
3.98236e-06
-9.07807e-05
-2.89585e-05
-0.000105169
-6.47842e-05
-0.000120006
-0.000103302
-0.000135159
-0.000144747
-0.000150471
-0.000189742
-0.000165757
-0.000239246
-0.000180803
-0.000294491
-0.000195377
-0.00035694
-0.000209224
-0.000428246
-0.000222075
-0.000510115
-0.000604426
-0.000233556
-2.04309e-05
9.92091e-05
-3.02111e-05
9.85158e-05
-4.12973e-05
8.83592e-05
-5.35096e-05
7.05099e-05
-6.67153e-05
4.66172e-05
-8.0815e-05
1.80821e-05
-9.57279e-05
-1.40457e-05
-0.000111377
-4.91354e-05
-0.000127676
-8.70031e-05
-0.000144524
-0.000127899
-0.000161801
-0.000172466
-0.000179367
-0.00022168
-0.000197065
-0.000276792
-0.000214722
-0.000339282
-0.00023215
-0.000410819
-0.000249135
-0.00049313
-0.000588189
-0.000265372
-2.10051e-05
0.000107712
-3.11482e-05
0.000108659
-4.27044e-05
9.99154e-05
-5.55029e-05
8.33084e-05
-6.94199e-05
6.05343e-05
-8.4366e-05
3.30282e-05
-0.000100272
1.86023e-06
-0.000117076
-3.23318e-05
-0.000134712
-6.93667e-05
-0.000153107
-0.000109504
-0.000172176
-0.000153396
-0.000191825
-0.000202031
-0.00021195
-0.000256667
-0.000232439
-0.000318794
-0.000253168
-0.000390089
-0.000273986
-0.000472312
-0.000567516
-0.000294659
-2.1493e-05
0.000116445
-3.19578e-05
0.000119124
-4.39349e-05
0.000111892
-5.72606e-05
9.66341e-05
-7.18179e-05
7.50916e-05
-8.75246e-05
4.87349e-05
-0.000104321
1.86561e-05
-0.000122156
-1.44962e-05
-0.000140984
-5.05387e-05
-0.000160755
-8.97326e-05
-0.000181418
-0.000132734
-0.00020292
-0.000180529
-0.00022521
-0.000234378
-0.000248234
-0.00029577
-0.000271933
-0.000366391
-0.000296219
-0.000448025
-0.000542803
-0.000320933
-2.18769e-05
0.000125369
-3.2614e-05
0.000129861
-4.49532e-05
0.000124231
-5.87364e-05
0.000110417
-7.38512e-05
9.02064e-05
-9.02199e-05
6.51036e-05
-0.000107789
3.62248e-05
-0.000126517
4.23244e-06
-0.000146373
-3.06828e-05
-0.000167329
-6.87771e-05
-0.000189362
-0.0001107
-0.000212459
-0.000157431
-0.000236617
-0.00021022
-0.000261838
-0.000270549
-0.000288124
-0.000340104
-0.000315454
-0.000420695
-0.000514514
-0.000343742
-2.21405e-05
0.000134436
-3.30928e-05
0.000140813
-4.57264e-05
0.000136865
-5.98878e-05
0.000124579
-7.54665e-05
0.000105785
-9.23871e-05
8.20242e-05
-0.000110599
5.44365e-05
-0.000130068
2.37013e-05
-0.000150772
-9.97825e-06
-0.000172702
-4.6847e-05
-0.000195861
-8.75412e-05
-0.00022027
-0.000133023
-0.000245968
-0.000184523
-0.000273009
-0.000243508
-0.000301456
-0.000311657
-0.000331346
-0.000390805
-0.000483186
-0.000362675
-2.2269e-05
0.000143592
-3.33723e-05
0.000151916
-4.62251e-05
0.000149718
-6.06765e-05
0.00013903
-7.66166e-05
0.000121725
-9.3969e-05
9.93765e-05
-0.000112683
7.31504e-05
-0.000132727
4.37458e-05
-0.000154088
1.13822e-05
-0.000176767
-2.41676e-05
-0.00020079
-6.35188e-05
-0.000226204
-0.000107608
-0.000253087
-0.00015764
-0.000281539
-0.000215055
-0.000311676
-0.00028152
-0.000343597
-0.000358884
-0.000449412
-0.000377371
-2.22496e-05
-3.34337e-05
-4.64235e-05
-6.10696e-05
-7.72604e-05
-9.49161e-05
-0.000113983
-0.000134429
-0.000156242
-0.000179434
-0.000204042
-0.000230137
-0.000257828
-0.000287254
-0.000318579
-0.000351956
-0.000387529
-0.000469909
-0.00178614
0.00186314
-0.000514084
-0.00303242
0.0030766
-0.000532438
-0.0042744
0.00429275
-0.000508025
-0.00561487
0.00559046
-0.000436272
-0.00658632
0.00651457
-0.00031046
-0.00699202
0.00686621
-0.000132472
-0.0065946
0.00641662
7.52648e-05
-0.00533599
0.00512826
0.000285562
-0.00333828
0.00312798
-0.000763411
0.000561423
-0.000474032
-0.00170546
-0.000524068
-0.00298239
-0.000550185
-0.00424828
-0.00053644
-0.00562861
-0.000477371
-0.00664539
-0.000364715
-0.00710468
-0.000195994
-0.00676333
9.64687e-06
-0.00554163
0.000225032
-0.00355366
-0.000974015
-0.000472139