/*--------------------------------*- C++ -*----------------------------------*\
  =========                 |
  \\      /  F ield         | OpenFOAM: The Open Source CFD Toolbox
   \\    /   O peration     | Website:  https://openfoam.org
    \\  /    A nd           | Version:  7
     \\/     M anipulation  |
\*---------------------------------------------------------------------------*/
FoamFile
{
    version     2.0;
    format      ascii;
    class       volScalarField;
    location    "220";
    object      p;
}
// * * * * * * * * * * * * * * * * * * * * * * * * * * * * * * * * * * * * * //

dimensions      [0 2 -2 0 0 0 0];

internalField   nonuniform List<scalar> 
4575
(
-0.0798468
-0.0839574
-0.0959224
-0.113259
-0.128249
-0.132144
-0.122227
-0.104298
-0.0864765
-0.0734222
-0.0653625
-0.0621354
-0.0647945
-0.0725179
-0.0803207
-0.0823189
-0.0766947
-0.0671614
-0.0581521
-0.0517939
-0.0482933
-0.0485613
-0.0511517
-0.0531638
-0.080461
-0.0851542
-0.0977685
-0.11572
-0.131112
-0.135045
-0.124793
-0.106284
-0.0877858
-0.0740815
-0.0654453
-0.0616616
-0.063726
-0.070867
-0.0782281
-0.0800656
-0.0746164
-0.065521
-0.0570596
-0.0512409
-0.0482827
-0.0490987
-0.0522031
-0.0545791
-0.0810242
-0.0863
-0.09956
-0.118125
-0.133925
-0.137907
-0.127332
-0.108245
-0.0890711
-0.074716
-0.0655052
-0.0611696
-0.0626453
-0.0692104
-0.0761365
-0.0778184
-0.0725445
-0.0638803
-0.0559582
-0.050675
-0.048261
-0.0496313
-0.0532589
-0.0560057
-0.0815329
-0.0873902
-0.101291
-0.120469
-0.136683
-0.140728
-0.129839
-0.11018
-0.0903326
-0.0753268
-0.0655438
-0.0606619
-0.0615555
-0.0675513
-0.0740494
-0.0755803
-0.0704809
-0.0622403
-0.0548483
-0.0500957
-0.0482272
-0.0501578
-0.0543174
-0.0574421
-0.0819837
-0.0884204
-0.102958
-0.122746
-0.139381
-0.143502
-0.132314
-0.11209
-0.0915706
-0.0759149
-0.0655627
-0.0601407
-0.0604595
-0.0658934
-0.0719703
-0.073354
-0.0684274
-0.0606017
-0.0537298
-0.0495025
-0.0481803
-0.0506767
-0.055377
-0.0588867
-0.0823734
-0.0893863
-0.104553
-0.124952
-0.142014
-0.146227
-0.134754
-0.113972
-0.0927851
-0.0764816
-0.0655637
-0.0596081
-0.05936
-0.0642397
-0.0699025
-0.0711423
-0.0663859
-0.0589656
-0.0526031
-0.0488951
-0.0481193
-0.0511864
-0.0564359
-0.0603381
-0.0826989
-0.0902836
-0.106074
-0.127079
-0.144578
-0.148899
-0.137155
-0.115826
-0.0939767
-0.0770278
-0.0655484
-0.0590663
-0.0582598
-0.0625935
-0.0678492
-0.0689478
-0.0643581
-0.0573328
-0.0514683
-0.0482731
-0.0480432
-0.0516855
-0.0574923
-0.0617945
-0.0829572
-0.0911085
-0.107514
-0.129124
-0.147067
-0.151512
-0.139516
-0.117652
-0.0951455
-0.0775549
-0.0655184
-0.0585173
-0.0571615
-0.0609579
-0.0658135
-0.0667731
-0.0623458
-0.0557042
-0.0503259
-0.0476362
-0.047951
-0.0521724
-0.0585445
-0.0632543
-0.0831455
-0.0918571
-0.108869
-0.131081
-0.149477
-0.154065
-0.141836
-0.119447
-0.0962921
-0.0780641
-0.0654754
-0.0579633
-0.0560676
-0.0593356
-0.0637982
-0.0646207
-0.0603506
-0.0540809
-0.049176
-0.046984
-0.0478417
-0.0526455
-0.0595904
-0.0647158
-0.0832614
-0.0925257
-0.110134
-0.132946
-0.151803
-0.156552
-0.14411
-0.121211
-0.0974168
-0.0785567
-0.0654211
-0.0574061
-0.0549804
-0.0577295
-0.0618063
-0.0624931
-0.0583744
-0.0524638
-0.0480191
-0.0463162
-0.0477144
-0.0531033
-0.0606283
-0.0661773
-0.093111
-0.111306
-0.134713
-0.154041
-0.158972
-0.146338
-0.122945
-0.0985201
-0.0790338
-0.0653571
-0.0568477
-0.0539023
-0.0561422
-0.0598404
-0.0603925
-0.0564188
-0.050854
-0.0468557
-0.0456328
-0.047568
-0.053544
-0.0616561
-0.0676367
-0.0936098
-0.112381
-0.136379
-0.156186
-0.161321
-0.148516
-0.124646
-0.0996023
-0.0794967
-0.065285
-0.0562898
-0.0528354
-0.054576
-0.0579031
-0.0583212
-0.0544854
-0.0492524
-0.0456862
-0.0449334
-0.0474017
-0.0539661
-0.0626717
-0.0690924
-0.0940193
-0.113354
-0.137938
-0.158235
-0.163594
-0.150644
-0.126314
-0.100664
-0.0799468
-0.0652064
-0.0557343
-0.0517816
-0.0530332
-0.0559966
-0.0562813
-0.0525758
-0.0476602
-0.0445112
-0.0442179
-0.0472145
-0.054368
-0.0636733
-0.0705424
-0.0943367
-0.114222
-0.139388
-0.160183
-0.165788
-0.152719
-0.127948
-0.101706
-0.0803851
-0.0651228
-0.0551827
-0.0507428
-0.051516
-0.0541233
-0.0542748
-0.0506917
-0.0460785
-0.0433312
-0.0434863
-0.0470055
-0.0547481
-0.0646588
-0.0719848
-0.0945598
-0.114982
-0.140724
-0.162028
-0.1679
-0.154739
-0.129549
-0.102728
-0.0808131
-0.0650357
-0.0546367
-0.0497207
-0.0500262
-0.052285
-0.0523038
-0.0488345
-0.0445083
-0.0421469
-0.0427385
-0.046774
-0.0551047
-0.065626
-0.0734176
-0.0946866
-0.115632
-0.141943
-0.163764
-0.169927
-0.156701
-0.131114
-0.103731
-0.0812319
-0.0649467
-0.0540978
-0.048717
-0.0485656
-0.0504837
-0.0503699
-0.0470059
-0.0429508
-0.0409589
-0.0419745
-0.046519
-0.0554363
-0.066573
-0.0748388
-0.0947152
-0.116168
-0.143042
-0.16539
-0.171867
-0.158605
-0.132644
-0.104715
-0.0816426
-0.0648571
-0.0535674
-0.0477329
-0.0471357
-0.048721
-0.0484749
-0.0452072
-0.0414072
-0.0397681
-0.0411944
-0.04624
-0.0557414
-0.0674977
-0.0762464
-0.0946443
-0.116589
-0.144018
-0.166902
-0.173717
-0.160447
-0.134138
-0.10568
-0.0820464
-0.0647683
-0.0530469
-0.0467698
-0.0457379
-0.0469984
-0.0466204
-0.0434399
-0.0398785
-0.0385751
-0.0403983
-0.0459361
-0.0560184
-0.068398
-0.0776384
-0.0944727
-0.116892
-0.144869
-0.168297
-0.175472
-0.162227
-0.135595
-0.106628
-0.0824444
-0.0646816
-0.0525375
-0.045829
-0.0443733
-0.0453172
-0.0448078
-0.0417054
-0.038366
-0.0373808
-0.0395864
-0.0456067
-0.0562659
-0.069272
-0.0790127
-0.0941998
-0.117076
-0.145593
-0.169573
-0.177131
-0.163941
-0.137014
-0.107558
-0.0828376
-0.0645984
-0.0520404
-0.0449113
-0.0430431
-0.0436785
-0.0430383
-0.040005
-0.0368708
-0.036186
-0.0387589
-0.0452512
-0.0564824
-0.0701175
-0.0803674
-0.093825
-0.117141
-0.146188
-0.170728
-0.178692
-0.16559
-0.138395
-0.108471
-0.0832271
-0.0645199
-0.0515567
-0.0440177
-0.041748
-0.0420832
-0.0413133
-0.03834
-0.0353942
-0.0349916
-0.0379162
-0.0448692
-0.0566667
-0.0709328
-0.0817003
-0.0933482
-0.117084
-0.146652
-0.171759
-0.180151
-0.167169
-0.139737
-0.109366
-0.0836138
-0.0644472
-0.0510875
-0.0431491
-0.0404887
-0.0405321
-0.0396336
-0.0367117
-0.0339372
-0.0337986
-0.0370586
-0.0444601
-0.0568173
-0.0717157
-0.0830094
-0.0927697
-0.116906
-0.146986
-0.172667
-0.181509
-0.168678
-0.14104
-0.110245
-0.0839984
-0.0643815
-0.0506337
-0.0423062
-0.0392658
-0.0390258
-0.0380002
-0.0351214
-0.032501
-0.0326079
-0.0361865
-0.0440236
-0.0569331
-0.0724644
-0.0842927
-0.0920899
-0.116606
-0.147187
-0.173448
-0.182762
-0.170116
-0.142302
-0.111107
-0.084382
-0.0643239
-0.0501963
-0.0414894
-0.0380796
-0.0375646
-0.0364137
-0.0335692
-0.0310869
-0.0314206
-0.0353005
-0.0435595
-0.0570129
-0.0731771
-0.0855483
-0.0913097
-0.116185
-0.147257
-0.174103
-0.183909
-0.171479
-0.143522
-0.111952
-0.0847651
-0.0642752
-0.049776
-0.0406994
-0.0369302
-0.0361487
-0.0348749
-0.0320581
-0.0296959
-0.0302376
-0.034401
-0.0430674
-0.0570556
-0.0738521
-0.086774
-0.0904304
-0.115644
-0.147194
-0.174632
-0.184948
-0.172766
-0.144701
-0.112781
-0.0851485
-0.0642366
-0.0493737
-0.0399365
-0.0358178
-0.0347783
-0.0333841
-0.0306239
-0.0283291
-0.0290601
-0.0334886
-0.0425472
-0.0570603
-0.0744876
-0.0879681
-0.0894533
-0.114982
-0.147
-0.175033
-0.185879
-0.173976
-0.145836
-0.113593
-0.0855327
-0.0642088
-0.04899
-0.0392012
-0.0347423
-0.0334531
-0.0319415
-0.0291793
-0.0269876
-0.027889
-0.0325642
-0.0419989
-0.057026
-0.075082
-0.0891285
-0.0883803
-0.114201
-0.146675
-0.175307
-0.186701
-0.175107
-0.146927
-0.114389
-0.0859184
-0.0641927
-0.0486256
-0.0384937
-0.0337035
-0.032173
-0.0305472
-0.0277725
-0.0256726
-0.0267256
-0.0316283
-0.0414225
-0.056952
-0.0756338
-0.0902535
-0.0872134
-0.113303
-0.14622
-0.175455
-0.187411
-0.176157
-0.147973
-0.115168
-0.086306
-0.064189
-0.0482811
-0.0378142
-0.0327012
-0.0309374
-0.0292012
-0.0264104
-0.0243855
-0.025571
-0.0306817
-0.0408182
-0.0568374
-0.0761416
-0.0913412
-0.0859551
-0.112289
-0.145638
-0.175477
-0.18801
-0.177124
-0.148973
-0.11593
-0.0866957
-0.0641984
-0.047957
-0.0371629
-0.0317349
-0.0297459
-0.0279033
-0.0250969
-0.0231275
-0.0244263
-0.0297254
-0.0401861
-0.0566818
-0.0766039
-0.09239
-0.0846078
-0.111162
-0.144929
-0.175375
-0.188496
-0.178007
-0.149924
-0.116675
-0.0870877
-0.0642214
-0.0476538
-0.0365399
-0.0308043
-0.0285976
-0.0266532
-0.023833
-0.0218996
-0.0232928
-0.0287603
-0.0395265
-0.0564847
-0.0770195
-0.093398
-0.0831745
-0.109923
-0.144095
-0.175151
-0.18887
-0.178804
-0.150827
-0.117402
-0.0874825
-0.0642586
-0.0473719
-0.0359455
-0.0299088
-0.027492
-0.0254505
-0.022617
-0.0207029
-0.0221717
-0.0277872
-0.0388398
-0.0562455
-0.0773873
-0.0943637
-0.0816585
-0.108575
-0.143139
-0.174805
-0.189131
-0.179512
-0.151679
-0.118111
-0.0878812
-0.0643116
-0.0471127
-0.0353802
-0.0290484
-0.0264283
-0.024295
-0.0214478
-0.0195385
-0.0210643
-0.0268074
-0.0381265
-0.0559641
-0.0777062
-0.0952854
-0.0800629
-0.10712
-0.142063
-0.174339
-0.189279
-0.180129
-0.152479
-0.118805
-0.0882849
-0.0643811
-0.0468765
-0.0348439
-0.0282222
-0.0254052
-0.0231858
-0.0203244
-0.0184077
-0.0199723
-0.0258219
-0.0373872
-0.0556403
-0.0779751
-0.0961616
-0.0783917
-0.105562
-0.140869
-0.173755
-0.189314
-0.180657
-0.153228
-0.119478
-0.0886878
-0.0644617
-0.0466589
-0.034333
-0.0274269
-0.024419
-0.0221196
-0.0192445
-0.0173105
-0.0188965
-0.0248318
-0.0366225
-0.055274
-0.0781935
-0.0969913
-0.0766484
-0.103904
-0.139562
-0.17306
-0.189251
-0.181104
-0.153919
-0.120116
-0.0890751
-0.0645421
-0.0464523
-0.0338433
-0.0266597
-0.0234662
-0.021092
-0.0182038
-0.0162448
-0.0178363
-0.0238373
-0.0358328
-0.0548657
-0.0783616
-0.0977754
-0.0748365
-0.10215
-0.138145
-0.172258
-0.189077
-0.181443
-0.154532
-0.120721
-0.0894634
-0.0646433
-0.0462767
-0.0333912
-0.0259349
-0.0225604
-0.0201157
-0.0172125
-0.0152177
-0.0167965
-0.0228411
-0.0350195
-0.0544158
-0.0784787
-0.0985102
-0.0729622
-0.100293
-0.136593
-0.171272
-0.188655
-0.181559
-0.155069
-0.121383
-0.0899678
-0.0648687
-0.0462115
-0.0330312
-0.0252896
-0.0217374
-0.0192353
-0.0163204
-0.0142722
-0.0158081
-0.0218616
-0.0341884
-0.0539183
-0.078526
-0.099162
-0.0710457
-0.0983144
-0.134826
-0.169981
-0.187913
-0.181498
-0.155662
-0.122213
-0.0906451
-0.0652321
-0.0462432
-0.0327316
-0.0246787
-0.0209469
-0.0184109
-0.0155105
-0.01341
-0.0148813
-0.0209091
-0.0333404
-0.0533593
-0.0784762
-0.0997079
-0.0690668
-0.0963912
-0.133315
-0.169313
-0.188122
-0.182209
-0.156443
-0.122763
-0.090842
-0.0650967
-0.0458399
-0.0320881
-0.0237807
-0.0198522
-0.0172369
-0.0143374
-0.0122335
-0.0137083
-0.0197794
-0.0324049
-0.052815
-0.0785594
-0.100516
-0.0931711
-0.134329
-0.174411
-0.195003
-0.187869
-0.15895
-0.123042
-0.0897967
-0.0633559
-0.043801
-0.0299077
-0.0212697
-0.0167585
-0.0135391
-0.0101767
-0.00788425
-0.0094689
-0.0159313
-0.0296898
-0.052016
-0.0801759
-0.104228
-0.0896367
-0.131465
-0.171721
-0.192288
-0.184502
-0.156048
-0.11995
-0.0867834
-0.0605346
-0.0411098
-0.0272076
-0.0184053
-0.0137305
-0.0105467
-0.00732775
-0.00534974
-0.0066621
-0.0133218
-0.0278105
-0.0513611
-0.0810977
-0.106612
-0.085682
-0.126745
-0.166794
-0.188233
-0.18111
-0.152529
-0.116444
-0.0835061
-0.0575372
-0.038321
-0.024514
-0.0156489
-0.0108603
-0.00770685
-0.00459559
-0.00268728
-0.0041993
-0.0111577
-0.0262389
-0.0506032
-0.0814377
-0.108242
-0.0805945
-0.121343
-0.16192
-0.18396
-0.176769
-0.147954
-0.1121
-0.0796914
-0.0542573
-0.0354269
-0.0218316
-0.0129859
-0.00812714
-0.00498077
-0.00193199
-1.93789e-05
-0.00158501
-0.00873449
-0.0243515
-0.0495206
-0.0815445
-0.109776
-0.0747784
-0.115584
-0.156318
-0.178143
-0.170855
-0.14219
-0.106974
-0.0754089
-0.0507281
-0.0324402
-0.019167
-0.0104207
-0.00554521
-0.00244457
0.000506889
0.00246745
0.000989563
-0.00621137
-0.0222596
-0.0482094
-0.0814224
-0.110941
-0.0685055
-0.108919
-0.149066
-0.170551
-0.163388
-0.135281
-0.101099
-0.0706804
-0.0469681
-0.0293771
-0.016533
-0.00796198
-0.00312064
-0.000104186
0.00272856
0.00473807
0.00338706
-0.00378279
-0.0201376
-0.0467167
-0.080878
-0.111403
-0.0616089
-0.100934
-0.140136
-0.161303
-0.154425
-0.127274
-0.0945279
-0.0655541
-0.0430095
-0.0262569
-0.0139416
-0.00561661
-0.000853238
0.0020535
0.00474968
0.00679273
0.00557834
-0.00150534
-0.0180276
-0.0449918
-0.0797655
-0.111052
-0.0539352
-0.0917191
-0.129758
-0.150483
-0.144045
-0.118256
-0.0873419
-0.0600894
-0.0388892
-0.0230997
-0.0114039
-0.00338957
0.00125795
0.00403704
0.00657644
0.00863577
0.00756574
0.000622859
-0.0159107
-0.042989
-0.0780521
-0.109854
-0.0455742
-0.0815041
-0.118079
-0.138218
-0.132397
-0.108359
-0.0796435
-0.0543581
-0.0346503
-0.0199269
-0.00892997
-0.00128472
0.003213
0.00585243
0.00821709
0.0102728
0.0093487
0.00260055
-0.0137836
-0.0407119
-0.0757403
-0.107759
-0.036685
-0.0704389
-0.105267
-0.124724
-0.119695
-0.097756
-0.0715562
-0.0484416
-0.0303405
-0.0167608
-0.00652849
0.000695544
0.0050121
0.00750479
0.00968083
0.0117077
0.0109203
0.00441082
-0.0116704
-0.038183
-0.0728175
-0.104715
-0.0273724
-0.0586868
-0.091589
-0.110296
-0.106208
-0.0866544
-0.0632198
-0.0424277
-0.0260105
-0.0136244
-0.00420688
0.00255068
0.00665632
0.00899809
0.0109759
0.0129427
0.0122705
0.00602843
-0.00960354
-0.0354177
-0.0692696
-0.100696
-0.0177498
-0.046511
-0.0773984
-0.09529
-0.0922519
-0.0752886
-0.0547847
-0.0364069
-0.0217125
-0.0105411
-0.00197122
0.00428224
0.00814835
0.0103355
0.0121092
0.0139796
0.0133884
0.00742806
-0.0076111
-0.0324289
-0.0651015
-0.095706
-0.00800868
-0.0342715
-0.063104
-0.080096
-0.078166
-0.0639073
-0.0464047
-0.030468
-0.0174973
-0.00753426
0.000173642
0.0058939
0.00949328
0.0115209
0.0130873
0.0148197
0.0142641
0.0085873
-0.00571859
-0.0292389
-0.0603387
-0.0897764
0.0015716
-0.0223934
-0.0491362
-0.0651026
-0.0642866
-0.0527576
-0.0382297
-0.0246945
-0.0134122
-0.00462641
0.00222388
0.00739131
0.0106992
0.0125596
0.013918
0.0154671
0.0148904
0.0094865
-0.0039529
-0.0258789
-0.0550228
-0.082965
0.0106199
-0.0113066
-0.0358634
-0.0506599
-0.0509386
-0.0420732
-0.0303972
-0.0191603
-0.00949864
-0.00183866
0.00417644
0.0087818
0.0117775
0.013461
0.0146118
0.0159318
0.0152666
0.0101108
-0.00233904
-0.0223837
-0.049209
-0.0753582
0.0187044
-0.00134118
-0.0235431
-0.0369939
-0.0384155
-0.0320601
-0.0230258
-0.0139275
-0.00579083
0.000810301
0.00602875
0.0100739
0.0127425
0.0142391
0.0151835
0.016232
0.0154049
0.010457
-0.000892423
-0.0187871
-0.0429666
-0.0670689
0.0254562
0.0073434
-0.01235
-0.0245596
-0.0269745
-0.0228835
-0.0162088
-0.009044
-0.00231448
0.00330501
0.00777853
0.0112769
0.0136107
0.014913
0.0156554
0.0163972
0.0153368
0.0105429
0.00038904
-0.0151199
-0.0363793
-0.0582365
0.0307094
0.0147183
-0.00242462
-0.0134855
-0.0168014
-0.0146571
-0.0100099
-0.00454295
0.000913154
0.00563387
0.00942347
0.0123999
0.0144001
0.015505
0.0160563
0.016471
0.0151185
0.0104185
0.00153314
-0.0114066
-0.0295451
-0.0490295
0.0345106
0.0207761
0.00606963
-0.00395214
-0.00800277
-0.00743466
-0.00446106
-0.000443019
0.00388263
0.0077896
0.0109613
0.0134509
0.0151284
0.0160401
0.0164187
0.0165066
0.0146234
0.0101753
0.0026019
-0.00766185
-0.0225787
-0.0396427
0.0370174
0.0254975
0.0130037
0.00395018
-0.000591636
-0.00121142
0.000435211
0.0032502
0.00659118
0.00976912
0.0123901
0.0144368
0.0158111
0.0165424
0.0167765
0.016586
0.0143876
0.00996626
0.00369568
-0.00389149
-0.0156118
-0.0302952
0.0384257
0.0289206
0.018374
0.0102083
0.0055047
0.00406573
0.00470059
0.00654188
0.00904132
0.0115733
0.0137084
0.0153621
0.0164606
0.0170314
0.0171577
0.0167688
0.0143231
0.00995862
0.00494463
-9.61326e-05
-0.00879374
-0.0212267
0.0389576
0.0311934
0.0223286
0.0147843
0.0104263
0.00848151
0.00837356
0.00944565
0.0112396
0.0132061
0.0149161
0.0162292
0.0170858
0.0175213
0.0175792
0.0170935
0.0145449
0.0103264
0.00648659
0.00371851
-0.00228984
-0.0126882
0.0388428
0.0325419
0.025153
0.018632
0.0143775
0.0121354
0.0115024
0.0119813
0.0131954
0.0146741
0.0160149
0.0170388
0.0176911
0.01802
0.0180481
0.0175691
0.015118
0.0112019
0.00843105
0.00752755
0.00372758
-0.00492301
0.0382854
0.0331958
0.027084
0.0214869
0.0174893
0.0151228
0.0141397
0.0141731
0.0149202
0.0159853
0.0170081
0.017791
0.0182776
0.0185281
0.018562
0.0181799
0.0160377
0.0126275
0.0108135
0.0112746
0.00909599
0.00186444
0.0374461
0.0333501
0.0283258
0.0235515
0.0198978
0.0175349
0.0163381
0.0160478
0.0164273
0.0171483
0.0179008
0.0184852
0.0188436
0.0190409
0.0191075
0.0188857
0.0172226
0.0145222
0.0135534
0.0148584
0.013685
0.00754547
0.0364398
0.033156
0.029044
0.0250019
0.0217288
0.0194557
0.0181488
0.0176336
0.0177309
0.0181722
0.0186986
0.0191216
0.0193848
0.019551
0.0196651
0.0196294
0.0185382
0.0166776
0.0164352
0.018123
0.0174174
0.0120978
0.0353444
0.0327241
0.0293735
0.0259751
0.0230873
0.0209602
0.0196203
0.0189591
0.0188465
0.0190657
0.0194071
0.0197004
0.0198954
0.0200475
0.0202147
0.0203576
0.0198403
0.0188067
0.0191506
0.0208823
0.020283
0.015606
0.0342117
0.0321334
0.0294166
0.0265837
0.0240647
0.0221149
0.0207974
0.0200521
0.0197899
0.0198377
0.0200313
0.0202222
0.0203694
0.0205183
0.0207354
0.0210289
0.021021
0.020664
0.0214144
0.0229911
0.0223381
0.018221
0.0330771
0.0314423
0.0292513
0.0269135
0.0247345
0.0229774
0.0217211
0.0209396
0.0205768
0.020497
0.020576
0.0206872
0.0208014
0.0209524
0.0212086
0.0216056
0.0220252
0.0221
0.0230732
0.0244144
0.0236933
0.0201087
0.0319638
0.0306926
0.0289367
0.0270123
0.0251536
0.0235971
0.0224284
0.0216468
0.021223
0.0210522
0.0210453
0.0210958
0.0211867
0.0213401
0.0216212
0.0220563
0.0223578
0.0230727
0.0241368
0.0252329
0.0244896
0.0214195
0.0308872
0.0299146
0.028517
0.026911
0.0253738
0.0240174
0.0229525
0.0221971
0.0217433
0.0215121
0.0214433
0.0214486
0.0215224
0.0216758
0.0219695
0.0224283
0.0229043
0.0236903
0.0247191
0.0255895
0.0248704
0.022281
0.0298572
0.0291303
0.028033
0.0267338
0.0254464
0.0242765
0.0233226
0.0226119
0.0221521
0.0218851
0.021774
0.0217469
0.0218071
0.0219568
0.0222517
0.0227122
0.0232566
0.0240316
0.0249558
0.0256291
0.024961
0.0228
0.0288793
0.0283561
0.0275096
0.0264715
0.0254039
0.0244061
0.0235646
0.0229105
0.0224627
0.0221792
0.0220417
0.0219923
0.0220407
0.0221828
0.0224682
0.0229105
0.0234577
0.0241736
0.0249622
0.0254683
0.0248597
0.023066
0.027957
0.0276023
0.0269644
0.0261465
0.025273
0.0244322
0.0237008
0.0231105
0.0226875
0.0224023
0.0222511
0.0221869
0.0222248
0.0223558
0.0226227
0.0230325
0.0235445
0.0241764
0.0248232
0.0251897
0.0246389
0.0231512
0.027092
0.0268757
0.0264113
0.0257791
0.0250756
0.0243768
0.0237505
0.0232274
0.0228378
0.0225622
0.0224066
0.0223338
0.022362
0.0224795
0.0227215
0.0230889
0.0235453
0.0240841
0.0245967
0.0248479
0.0243493
0.0231109
0.0262841
0.0261814
0.0258612
0.0253853
0.0248295
0.024258
0.0237301
0.0232748
0.0229242
0.0226659
0.0225131
0.0224365
0.0224558
0.0225579
0.0227708
0.0230909
0.0234829
0.023929
0.0243211
0.0244783
0.0240247
0.0229862
0.0215259
0.0255325
0.0255226
0.0253212
0.0249771
0.0245491
0.0240907
0.0236538
0.0232647
0.0229559
0.0227203
0.0225756
0.0224989
0.02251
0.0225958
0.0227775
0.0230472
0.023375
0.0237337
0.0240215
0.0241026
0.0236866
0.0228072
0.0215625
0.0248361
0.0249017
0.0247977
0.024564
0.0242459
0.0238874
0.0235335
0.0232077
0.0229417
0.022732
0.0225989
0.0225247
0.0225287
0.0225982
0.0227488
0.0229682
0.023235
0.0235143
0.0237139
0.0237337
0.0233488
0.022595
0.0215277
0.0241932
0.0243195
0.024296
0.0241538
0.0239295
0.0236584
0.0233793
0.0231129
0.022889
0.022707
0.0225879
0.0225182
0.0225162
0.02257
0.0226911
0.0228662
0.0230738
0.0232824
0.0234084
0.0233791
0.0230197
0.022365
0.0214425
0.0236016
0.0237757
0.023818
0.023752
0.0236072
0.0234122
0.0231998
0.0229882
0.0228048
0.0226509
0.022547
0.0224834
0.0224766
0.0225161
0.0226096
0.0227444
0.0228989
0.0230458
0.0231112
0.0230427
0.022704
0.0221274
0.0213231
0.023059
0.0232708
0.023366
0.0233629
0.0232852
0.0231557
0.0230023
0.0228405
0.0226952
0.0225688
0.0224809
0.0224242
0.0224139
0.0224405
0.0225092
0.0226079
0.0227158
0.0228098
0.0228258
0.0227262
0.0224045
0.0218894
0.021181
0.0225634
0.0228038
0.0229412
0.0229895
0.0229679
0.0228944
0.0227926
0.0226756
0.0225656
0.0224655
0.0223936
0.0223446
0.0223318
0.0223472
0.0223939
0.022461
0.0225289
0.0225781
0.022554
0.0224298
0.0221222
0.0216557
0.021025
0.0221122
0.0223736
0.022544
0.0226341
0.0226589
0.022633
0.0225759
0.0224987
0.0224208
0.0223455
0.0222891
0.022248
0.0222339
0.0222397
0.0222675
0.0223072
0.0223412
0.022353
0.0222967
0.0221532
0.0218572
0.0214292
0.0208617
0.0217029
0.0219789
0.0221746
0.022298
0.022361
0.0223751
0.0223564
0.0223142
0.0222651
0.0222125
0.0221709
0.0221378
0.0221233
0.0221213
0.022133
0.0221495
0.0221551
0.022136
0.022054
0.0218954
0.0216092
0.0212118
0.0206957
0.0213329
0.0216182
0.0218327
0.0219823
0.0220764
0.0221237
0.0221376
0.0221258
0.0221023
0.0220703
0.0220425
0.0220172
0.022003
0.0219948
0.0219933
0.0219903
0.0219724
0.0219281
0.0218258
0.0216556
0.0213775
0.0210048
0.0205304
0.0209997
0.02129
0.0215179
0.0216876
0.0218064
0.0218811
0.0219225
0.0219366
0.0219355
0.021922
0.0219069
0.0218891
0.0218759
0.0218629
0.0218505
0.0218316
0.0217945
0.0217298
0.0216116
0.0214326
0.0211616
0.0208087
0.0203681
0.020701
0.0209926
0.0212293
0.0214141
0.0215524
0.0216492
0.0217133
0.0217496
0.0217678
0.0217706
0.021767
0.0217563
0.0217445
0.0217281
0.021707
0.021675
0.0216226
0.0215415
0.021411
0.0212254
0.0209606
0.0206238
0.0202108
0.0204344
0.0207244
0.0209662
0.0211618
0.0213149
0.0214295
0.0215122
0.0215669
0.0216017
0.0216186
0.0216253
0.0216211
0.0216112
0.0215923
0.0215645
0.0215222
0.0214575
0.0213635
0.0212237
0.0210333
0.0207739
0.0204503
0.0200598
0.0201976
0.0204837
0.0207277
0.0209304
0.0210947
0.021223
0.0213208
0.0213908
0.0214395
0.0214686
0.0214843
0.0214861
0.0214781
0.0214577
0.0214247
0.0213744
0.0213001
0.0211961
0.0210492
0.0208555
0.0206008
0.0202882
0.0199161
0.0199884
0.020269
0.0205128
0.0207198
0.0208919
0.0210308
0.0211404
0.0212228
0.0212831
0.0213225
0.021346
0.0213532
0.0213474
0.0213261
0.0212893
0.0212327
0.0211511
0.0210395
0.0208875
0.0206915
0.0204411
0.0201376
0.0197805
0.0198049
0.0200788
0.0203204
0.0205294
0.0207067
0.0208534
0.0209722
0.0210645
0.0211344
0.0211824
0.0212126
0.0212245
0.0212208
0.0211992
0.0211596
0.0210984
0.0210113
0.020894
0.0207383
0.020541
0.0202943
0.0199986
0.0196538
0.0196451
0.0199115
0.0201497
0.0203588
0.0205393
0.0206915
0.0208173
0.0209174
0.0209948
0.0210499
0.0210858
0.0211018
0.0211001
0.0210786
0.0210372
0.0209726
0.0208814
0.0207599
0.0206017
0.0204038
0.0201605
0.0198712
0.0195365
0.0195073
0.0197658
0.0199997
0.0202076
0.0203897
0.0205455
0.0206763
0.0207824
0.0208658
0.0209267
0.0209673
0.0209868
0.020987
0.0209659
0.0209233
0.0208563
0.0207622
0.0206377
0.0204779
0.0202799
0.0200396
0.0197556
0.0194293
0.0193898
0.0196404
0.0198695
0.0200754
0.0202578
0.0204158
0.0205502
0.0206607
0.0207489
0.0208143
0.0208587
0.0208812
0.020883
0.0208625
0.0208192
0.0207506
0.0206545
0.0205279
0.0203671
0.0201693
0.0199317
0.0196524
0.0193328
0.0192912
0.0195344
0.0197585
0.0199619
0.0201437
0.0203029
0.0204396
0.0205534
0.020645
0.020714
0.0207615
0.0207865
0.0207897
0.0207697
0.0207261
0.0206565
0.0205591
0.0204312
0.0202699
0.0200726
0.0198372
0.0195617
0.0192476
0.0192103
0.0194466
0.0196661
0.0198667
0.0200475
0.0202071
0.0203453
0.0204613
0.0205555
0.0206272
0.020677
0.020704
0.0207085
0.0206891
0.0206454
0.0205752
0.020477
0.0203482
0.0201868
0.01999
0.0197566
0.0194842
0.0191744
0.0191462
0.0193766
0.0195918
0.0197898
0.0199693
0.0201289
0.0202679
0.0203854
0.0204815
0.0205551
0.0206068
0.0206353
0.0206409
0.0206219
0.0205783
0.0205077
0.020409
0.0202798
0.0201184
0.0199221
0.0196904
0.0194204
0.019114
0.0190981
0.0193238
0.0195356
0.0197313
0.0199096
0.0200689
0.0202084
0.0203268
0.0204241
0.0204991
0.0205521
0.0205817
0.020588
0.0205695
0.0205259
0.0204552
0.0203563
0.0202268
0.0200655
0.0198698
0.0196393
0.0193712
0.0190673
0.0190658
0.0192882
0.0194975
0.0196916
0.0198689
0.0200279
0.0201675
0.0202865
0.0203845
0.0204605
0.0205142
0.0205445
0.0205514
0.0205333
0.0204898
0.0204189
0.02032
0.0201903
0.0200292
0.0198339
0.0196042
0.0193374
0.0190351
0.0190494
0.01927
0.019478
0.0196712
0.019848
0.0200067
0.0201464
0.0202657
0.0203641
0.0204404
0.0204946
0.0205253
0.0205324
0.0205144
0.020471
0.0204002
0.0203011
0.0201715
0.0200104
0.0198153
0.019586
0.0193199
0.0190184
0.0140421
0.0144954
0.0149387
0.0153697
0.0157855
0.0161836
0.0165612
0.0169158
0.0172447
0.0175457
0.0178165
0.0180553
0.0182602
0.0184307
0.0185653
0.0186647
0.018728
0.0187571
0.0187512
0.018713
0.0186415
0.0185394
0.0184048
0.0140603
0.0145158
0.0149612
0.015394
0.0158115
0.0162111
0.01659
0.0169456
0.0172753
0.0175767
0.0178475
0.018086
0.0182903
0.0184598
0.0185932
0.0186911
0.0187527
0.0187801
0.0187724
0.0187327
0.0186597
0.0185566
0.0184212
0.0140955
0.0145554
0.0150048
0.0154413
0.0158621
0.0162646
0.0166459
0.0170035
0.0173346
0.0176368
0.0179078
0.0181457
0.0183487
0.0185163
0.0186472
0.0187422
0.0188005
0.0188245
0.0188133
0.0187705
0.0186948
0.0185895
0.0184525
0.0141472
0.0146133
0.0150685
0.0155104
0.015936
0.0163427
0.0167276
0.017088
0.0174212
0.0177246
0.0179958
0.0182328
0.018434
0.0185988
0.018726
0.0188165
0.0188698
0.0188887
0.0188724
0.018825
0.0187451
0.0186367
0.0184976
0.0142147
0.0146889
0.0151515
0.0156002
0.016032
0.0164442
0.0168338
0.017198
0.0175339
0.0178388
0.0181102
0.0183461
0.0185449
0.0187059
0.018828
0.0189125
0.0189591
0.0189712
0.018948
0.0188945
0.0188091
0.0186968
0.0185548
0.0142976
0.0147815
0.0152531
0.0157101
0.0161494
0.0165683
0.0169636
0.0173325
0.0176717
0.0179785
0.01825
0.0184847
0.0186804
0.0188365
0.0189522
0.0190291
0.0190671
0.0190704
0.0190386
0.0189775
0.0188854
0.0187683
0.0186227
0.0143957
0.0148906
0.0153726
0.0158392
0.0162873
0.0167141
0.0171163
0.0174907
0.017834
0.0181431
0.0184151
0.018648
0.0188398
0.0189897
0.0190973
0.0191648
0.0191923
0.019185
0.0191426
0.0190723
0.0189721
0.0188493
0.0186998
0.0145085
0.0150159
0.0155096
0.0159871
0.0164453
0.0168811
0.0172912
0.017672
0.01802
0.0183316
0.0186044
0.0188353
0.0190222
0.0191648
0.0192626
0.0193186
0.0193334
0.0193133
0.0192583
0.0191772
0.0190676
0.0189383
0.0187844
0.014636
0.0151569
0.0156635
0.0161531
0.0166225
0.0170686
0.0174877
0.017876
0.0182296
0.0185446
0.0188179
0.0190462
0.0192274
0.019361
0.0194472
0.0194895
0.0194892
0.0194539
0.0193841
0.0192905
0.01917
0.0190336
0.0188752
0.0147776
0.0153132
0.0158337
0.0163365
0.0168185
0.0172761
0.0177054
0.0181022
0.0184624
0.0187814
0.0190554
0.0192806
0.0194551
0.0195781
0.0196505
0.0196765
0.0196582
0.0196053
0.0195182
0.0194102
0.0192775
0.0191333
0.01897
0.014933
0.0154842
0.0160196
0.0165369
0.0170326
0.017503
0.017944
0.0183505
0.0187183
0.0190419
0.0193169
0.0195385
0.0197051
0.0198156
0.0198717
0.0198785
0.0198393
0.0197657
0.0196587
0.0195343
0.019388
0.0192355
0.0190674
0.0151018
0.0156692
0.0162206
0.0167535
0.0172641
0.0177488
0.0182028
0.0186207
0.0189974
0.0193264
0.0196025
0.0198202
0.0199775
0.0200735
0.0201103
0.0200946
0.0200308
0.0199333
0.0198036
0.0196609
0.0194994
0.0193383
0.0191654
0.0152831
0.0158676
0.0164358
0.0169853
0.0175124
0.0180128
0.0184815
0.0189126
0.0192996
0.019635
0.0199127
0.020126
0.0202728
0.0203515
0.0203659
0.0203236
0.0202312
0.0201061
0.0199506
0.0197874
0.0196094
0.0194394
0.0192622
0.0154763
0.0160783
0.0166643
0.0172316
0.0177766
0.0182944
0.0187796
0.0192254
0.019625
0.019968
0.020248
0.0204565
0.0205911
0.0206498
0.0206377
0.0205643
0.0204387
0.020282
0.0200972