/*--------------------------------*- C++ -*----------------------------------*\
  =========                 |
  \\      /  F ield         | OpenFOAM: The Open Source CFD Toolbox
   \\    /   O peration     | Website:  https://openfoam.org
    \\  /    A nd           | Version:  7
     \\/     M anipulation  |
\*---------------------------------------------------------------------------*/
FoamFile
{
    version     2.0;
    format      ascii;
    class       volVectorField;
    location    "220";
    object      U;
}
// * * * * * * * * * * * * * * * * * * * * * * * * * * * * * * * * * * * * * //

dimensions      [0 1 -1 0 0 0 0];

internalField   nonuniform List<vector> 
4575
(
(0.861526 0.513202 -1.0656e-22)
(0.823228 0.529697 -3.84398e-23)
(0.778218 0.511228 7.57699e-23)
(0.746153 0.414715 1.70415e-23)
(0.736945 0.2398 -7.54981e-23)
(0.750244 0.0292636 2.7235e-22)
(0.779696 -0.162888 1.31907e-22)
(0.81608 -0.300834 1.51257e-23)
(0.850284 -0.378769 5.04547e-23)
(0.872304 -0.417193 -2.63788e-23)
(0.872435 -0.442065 1.11785e-22)
(0.84811 -0.45989 1.59535e-23)
(0.808127 -0.449786 3.04061e-23)
(0.770547 -0.38336 -1.63067e-22)
(0.750001 -0.253967 -1.00852e-22)
(0.751672 -0.0854736 -7.29558e-24)
(0.773201 0.0804259 -6.05417e-23)
(0.806119 0.212252 -8.39658e-23)
(0.8336 0.300652 7.87434e-23)
(0.84097 0.35951 -6.46668e-23)
(0.824995 0.392574 1.89586e-23)
(0.797578 0.387291 2.33194e-23)
(0.773675 0.325035 2.59622e-23)
(0.765404 0.206417 -3.34862e-23)
(0.861008 0.51591 -1.53458e-22)
(0.823484 0.533656 -4.37871e-22)
(0.779597 0.514902 2.19478e-22)
(0.748752 0.416788 -3.40195e-22)
(0.740438 0.239866 1.47815e-22)
(0.75423 0.0276152 4.03155e-22)
(0.783674 -0.16557 -2.40591e-22)
(0.819434 -0.303737 1.51887e-22)
(0.852658 -0.381065 -7.1688e-23)
(0.87378 -0.418065 9.7505e-23)
(0.873269 -0.441054 1.4943e-22)
(0.848486 -0.457316 -8.08917e-23)
(0.807944 -0.446768 1.6414e-22)
(0.769636 -0.381186 -1.72932e-22)
(0.748592 -0.253361 2.33328e-22)
(0.750249 -0.0864666 1.83765e-22)
(0.772104 0.078317 1.098e-22)
(0.805356 0.209998 6.84081e-23)
(0.832985 0.299363 -2.30843e-22)
(0.84045 0.359758 -1.4548e-23)
(0.82463 0.394009 -2.49263e-22)
(0.797419 0.389 4.49528e-23)
(0.773634 0.326137 -1.13241e-22)
(0.76529 0.206471 -2.82748e-22)
(0.860606 0.518511 1.81798e-22)
(0.823902 0.537522 2.18785e-22)
(0.781161 0.518548 6.04267e-23)
(0.751515 0.418951 4.41174e-22)
(0.744067 0.240124 -9.88998e-22)
(0.758333 0.0261998 2.15199e-22)
(0.787765 -0.168025 -3.9701e-22)
(0.822895 -0.306447 -2.32453e-22)
(0.855127 -0.383221 -5.34533e-22)
(0.875349 -0.418846 3.49246e-22)
(0.874211 -0.439983 -3.76906e-22)
(0.848995 -0.454703 6.01073e-23)
(0.80793 -0.443739 1.47064e-22)
(0.768909 -0.379054 -2.49138e-22)
(0.74735 -0.252865 4.96522e-22)
(0.748969 -0.0876097 -2.90743e-22)
(0.771123 0.0760656 5.76145e-22)
(0.804686 0.207642 3.0829e-22)
(0.832461 0.29801 2.01741e-22)
(0.840033 0.359962 1.43024e-23)
(0.824379 0.39542 3.77748e-22)
(0.797382 0.39072 -4.64471e-22)
(0.773711 0.327295 9.33933e-23)
(0.765279 0.206609 3.99293e-22)
(0.860316 0.520996 -5.02978e-22)
(0.824479 0.541289 4.5924e-22)
(0.782903 0.522166 -7.75382e-22)
(0.754435 0.421208 -1.27967e-21)
(0.747825 0.240579 2.45131e-21)
(0.76255 0.0250221 -1.7845e-21)
(0.791966 -0.17025 7.08259e-22)
(0.826464 -0.308963 7.43462e-22)
(0.857691 -0.385238 -7.12734e-22)
(0.877012 -0.419538 9.62335e-22)
(0.875261 -0.438858 -2.07991e-22)
(0.849636 -0.452058 4.72131e-22)
(0.808086 -0.440702 -2.54789e-22)
(0.768366 -0.376963 9.66092e-22)
(0.746276 -0.252475 1.07393e-22)
(0.747832 -0.0888984 -3.24616e-22)
(0.770256 0.0736752 -6.87706e-22)
(0.80411 0.205184 -7.04313e-22)
(0.832028 0.29659 -1.0892e-22)
(0.839717 0.36012 6.16899e-23)
(0.824241 0.396807 -1.5698e-22)
(0.797469 0.39245 5.72012e-22)
(0.773909 0.328512 -5.84678e-23)
(0.765374 0.206833 1.4069e-22)
(0.860135 0.523355 4.70516e-22)
(0.825212 0.544952 -1.96668e-22)
(0.784817 0.525757 7.46826e-23)
(0.757505 0.423567 1.3744e-22)
(0.751709 0.241239 -1.20007e-21)
(0.766877 0.0240864 2.38781e-21)
(0.796277 -0.172242 7.4375e-22)
(0.830141 -0.311283 7.14695e-23)
(0.860353 -0.387116 5.13271e-22)
(0.87877 -0.420147 -8.47722e-22)
(0.87642 -0.437685 -2.18641e-23)
(0.85041 -0.449384 -5.2414e-22)
(0.80841 -0.437659 -5.07481e-22)
(0.76801 -0.374911 -9.81738e-22)
(0.745371 -0.252184 -9.8858e-22)
(0.746836 -0.0903277 1.30475e-21)
(0.769503 0.0711489 5.78165e-22)
(0.803626 0.202625 1.03488e-22)
(0.831686 0.295101 1.42328e-22)
(0.839502 0.360229 -1.87173e-22)
(0.824217 0.398166 5.98476e-22)
(0.797679 0.394192 -4.38637e-22)
(0.77423 0.329787 3.89514e-22)
(0.765577 0.207145 5.0515e-22)
(0.860062 0.525581 -5.1057e-22)
(0.826095 0.548504 -1.0388e-21)
(0.786896 0.529322 -5.10903e-23)
(0.760719 0.42603 9.19947e-22)
(0.755713 0.242107 -2.91294e-22)
(0.771311 0.023397 -5.08924e-22)
(0.800692 -0.174001 -2.05921e-21)
(0.833926 -0.313408 4.52241e-23)
(0.863111 -0.388856 1.32201e-22)
(0.880623 -0.420676 -1.16275e-21)
(0.877687 -0.436468 5.05011e-22)
(0.851314 -0.446688 -1.21548e-22)
(0.808902 -0.434612 8.63611e-23)
(0.767841 -0.372894 1.16339e-21)
(0.744636 -0.25199 2.48031e-24)
(0.74598 -0.0918925 -5.19134e-22)
(0.768859 0.0684903 -2.52859e-22)
(0.803232 0.199965 7.35276e-22)
(0.831433 0.293541 -7.47089e-25)
(0.839387 0.360285 -3.10069e-23)
(0.824308 0.399497 2.54132e-22)
(0.798015 0.395943 -1.03697e-21)
(0.774675 0.331121 -3.39178e-22)
(0.76589 0.207549 -1.2112e-21)
(0.860092 0.527664 2.034e-22)
(0.827125 0.55194 1.7154e-22)
(0.789133 0.532861 2.87209e-22)
(0.764071 0.428602 -1.93008e-21)
(0.759832 0.24319 4.0754e-21)
(0.775846 0.0229579 1.73444e-21)
(0.80521 -0.175523 -5.85939e-23)
(0.837818 -0.315336 -1.60594e-21)
(0.865968 -0.390459 6.07139e-22)
(0.88257 -0.421128 9.66098e-22)
(0.879063 -0.435213 7.44438e-22)
(0.852348 -0.443973 -1.20436e-22)
(0.809557 -0.431565 -5.63416e-22)
(0.767858 -0.370913 -3.95015e-22)
(0.744072 -0.251885 2.63683e-23)
(0.745262 -0.0935878 -9.45289e-22)
(0.768323 0.0657027 9.93584e-23)
(0.802925 0.197206 -3.14103e-22)
(0.831268 0.291909 -5.51848e-22)
(0.839372 0.360287 2.57162e-22)
(0.824514 0.400795 -5.04436e-22)
(0.798477 0.397703 1.00207e-21)
(0.775245 0.332516 8.32331e-23)
(0.766316 0.208044 1.15263e-21)
(0.860222 0.529594 -5.50097e-22)
(0.828295 0.555254 -5.27592e-22)
(0.79152 0.536373 1.73685e-21)
(0.767553 0.431287 1.19354e-21)
(0.764061 0.244491 -3.32773e-21)
(0.780478 0.0227729 7.28027e-22)
(0.809828 -0.176807 -2.26187e-22)
(0.841816 -0.317067 3.36008e-21)
(0.868923 -0.391925 -4.47606e-21)
(0.884611 -0.421505 7.93276e-22)
(0.880547 -0.433924 -1.16611e-21)
(0.85351 -0.441245 1.70749e-21)
(0.810375 -0.428519 6.43654e-23)
(0.768062 -0.368963 7.6169e-22)
(0.743678 -0.251866 3.30488e-22)
(0.744682 -0.0954078 -9.20709e-23)
(0.767893 0.0627897 2.48779e-22)
(0.802705 0.194347 1.5114e-22)
(0.831189 0.290202 6.12306e-22)
(0.839455 0.36023 -6.24995e-22)
(0.824833 0.402059 -5.08945e-22)
(0.799065 0.39947 1.97906e-22)
(0.775943 0.333973 -1.70995e-21)
(0.766858 0.208634 4.08305e-22)
(0.860448 0.531363 1.10826e-21)
(0.8296 0.558439 5.59778e-22)
(0.794049 0.539858 -2.95965e-21)
(0.771159 0.434087 2.9975e-22)
(0.768395 0.246015 1.63315e-22)
(0.785202 0.0228445 -1.63507e-21)
(0.814541 -0.17785 5.56065e-22)
(0.84592 -0.318599 -7.12021e-22)
(0.871978 -0.393255 7.26989e-22)
(0.886745 -0.421812 -2.27831e-21)
(0.882138 -0.432606 1.26334e-21)
(0.854798 -0.438507 -4.68051e-23)
(0.811351 -0.425475 -1.35241e-21)
(0.76845 -0.367044 3.05005e-22)
(0.743455 -0.251926 2.82223e-21)
(0.744237 -0.0973471 -1.34087e-22)
(0.767566 0.0597547 -1.05292e-21)
(0.80257 0.191389 1.23656e-21)
(0.831195 0.288418 -4.38996e-22)
(0.839634 0.360112 -3.44186e-22)
(0.825267 0.403286 7.46762e-22)
(0.79978 0.401244 2.01497e-22)
(0.776769 0.33549 2.41534e-21)
(0.767517 0.20932 -5.60219e-22)
(0.860765 0.532963 -1.93554e-21)
(0.831033 0.56149 2.74309e-22)
(0.796713 0.543315 3.24293e-21)
(0.774882 0.437004 -1.17195e-21)
(0.772827 0.247765 1.34516e-21)
(0.790013 0.0231757 6.11424e-22)
(0.819345 -0.178653 -2.61354e-22)
(0.850126 -0.319931 -1.40854e-21)
(0.875131 -0.394449 -7.40509e-22)
(0.888972 -0.422051 1.88413e-21)
(0.883834 -0.431265 3.69396e-22)
(0.856211 -0.435765 8.52603e-22)
(0.812483 -0.422438 -1.35682e-21)
(0.769022 -0.365153 5.76218e-22)
(0.743402 -0.25206 -1.29308e-21)
(0.743927 -0.0993998 7.68467e-22)
(0.76734 0.0566013 -2.87718e-22)
(0.802516 0.188332 1.52709e-21)
(0.831284 0.286555 -1.93343e-21)
(0.839909 0.35993 -8.05303e-22)
(0.825814 0.404473 1.08581e-22)
(0.800622 0.403024 -2.15531e-22)
(0.777724 0.33707 -7.31055e-22)
(0.768295 0.210104 -6.42697e-22)
(0.832588 0.564401 1.35599e-21)
(0.799502 0.546741 5.976e-22)
(0.778716 0.44004 1.59105e-21)
(0.777352 0.249744 -3.20439e-21)
(0.794906 0.02377 2.52677e-21)
(0.824236 -0.179212 -2.88271e-21)
(0.854434 -0.321065 3.0646e-22)
(0.878384 -0.395507 8.13643e-22)
(0.891289 -0.422225 -5.01825e-22)
(0.885634 -0.429903 -3.17204e-22)
(0.857747 -0.433022 -1.27376e-21)
(0.813765 -0.419408 8.38876e-22)
(0.769775 -0.363288 -1.43597e-22)
(0.743519 -0.252262 -4.51399e-22)
(0.743749 -0.10156 -1.4558e-21)
(0.767211 0.0533331 -2.17528e-22)
(0.802541 0.185177 -9.00377e-23)
(0.831453 0.28461 1.41123e-21)
(0.840278 0.35968 1.49528e-21)
(0.826473 0.405618 8.64953e-23)
(0.80159 0.404807 -8.35347e-23)
(0.778809 0.338711 -1.01506e-21)
(0.769194 0.210987 3.59626e-22)
(0.834257 0.567166 -1.0295e-21)
(0.802411 0.550136 9.84404e-22)
(0.782652 0.443196 -3.06062e-21)
(0.781962 0.251954 -4.06108e-22)
(0.799876 0.0246307 2.9633e-21)
(0.829211 -0.179526 1.81075e-22)
(0.858842 -0.321998 7.09103e-22)
(0.881736 -0.396429 1.96616e-22)
(0.893697 -0.422335 2.2699e-21)
(0.887535 -0.428527 -3.63167e-22)
(0.859404 -0.430283 -6.59435e-22)
(0.815194 -0.416388 -2.93272e-22)
(0.770705 -0.361448 1.6948e-22)
(0.743805 -0.252527 -1.12071e-21)
(0.743701 -0.103821 -5.11714e-22)
(0.767178 0.0499539 -1.43479e-22)
(0.802644 0.181923 -2.07642e-21)
(0.831701 0.282582 1.9542e-21)
(0.840738 0.359359 -2.37003e-21)
(0.827243 0.406717 -7.78664e-22)
(0.802685 0.406592 7.44169e-22)
(0.780025 0.340414 -9.59076e-22)
(0.770216 0.211971 5.7822e-22)
(0.836034 0.569779 5.93226e-22)
(0.805429 0.553496 2.46345e-21)
(0.786684 0.446472 9.84024e-22)
(0.786653 0.254399 -2.55989e-21)
(0.804917 0.0257612 2.17485e-21)
(0.834263 -0.179595 -4.24558e-21)
(0.863345 -0.322731 2.53611e-21)
(0.885187 -0.397215 -3.21088e-21)
(0.896193 -0.422383 5.9245e-22)
(0.889537 -0.427139 2.49392e-21)
(0.86118 -0.427551 -2.38163e-21)
(0.816766 -0.41338 1.29142e-22)
(0.771809 -0.35963 -1.15422e-21)
(0.744258 -0.252848 2.96295e-21)
(0.743783 -0.106177 -6.19171e-23)
(0.767238 0.0464674 -9.49609e-22)
(0.802821 0.178572 8.66483e-22)
(0.832024 0.280469 1.01496e-22)
(0.841289 0.358964 -7.78481e-23)
(0.828123 0.407768 9.60604e-22)
(0.803905 0.408377 -1.29026e-21)
(0.78137 0.342178 2.20047e-21)
(0.771362 0.213057 -1.60905e-22)
(0.837909 0.572233 5.18044e-21)
(0.808549 0.556818 -1.05453e-21)
(0.790805 0.449867 8.26161e-22)
(0.791416 0.25708 1.71518e-21)
(0.810022 0.027164 2.01891e-22)
(0.839389 -0.179417 -4.61415e-21)
(0.867942 -0.323264 -1.05248e-21)
(0.888736 -0.397866 6.18968e-22)
(0.898777 -0.422373 -1.48799e-21)
(0.891635 -0.425745 -2.99824e-21)
(0.863073 -0.42483 1.88213e-21)
(0.818475 -0.410386 8.78273e-22)
(0.773082 -0.357833 2.63567e-21)
(0.744878 -0.253221 -1.11093e-21)
(0.743991 -0.108622 2.854e-22)
(0.767388 0.0428776 4.30453e-22)
(0.803069 0.175124 -7.32773e-22)
(0.83242 0.278267 4.80405e-23)
(0.841927 0.358491 4.76849e-22)
(0.829111 0.408767 -8.10882e-22)
(0.805249 0.41016 1.31751e-21)
(0.782846 0.344003 -1.10594e-21)
(0.772632 0.214246 3.35672e-22)
(0.839876 0.574523 -6.21012e-21)
(0.811763 0.560098 -7.0814e-21)
(0.795006 0.453381 4.71868e-21)
(0.796246 0.259997 2.75203e-21)
(0.815186 0.0288381 -6.87928e-21)
(0.844583 -0.178992 8.77725e-21)
(0.87263 -0.323596 -1.34571e-22)
(0.892382 -0.39838 1.72409e-21)
(0.901448 -0.422304 -8.55439e-22)
(0.893827 -0.424347 5.52057e-22)
(0.86508 -0.422125 4.06952e-22)
(0.820318 -0.407407 4.25999e-22)
(0.77452 -0.356055 -1.35766e-21)
(0.745662 -0.253639 -1.15712e-21)
(0.744326 -0.111149 1.85613e-21)
(0.767626 0.0391884 1.10107e-21)
(0.803386 0.17158 2.29247e-22)
(0.832886 0.275976 -2.39076e-22)
(0.842651 0.357938 2.13155e-21)
(0.830206 0.409712 8.01059e-22)
(0.806716 0.411939 -4.5194e-22)
(0.784452 0.345889 1.37355e-21)
(0.774028 0.215539 -1.03059e-21)
(0.841926 0.576641 8.57726e-22)
(0.815061 0.563333 3.51921e-21)
(0.79928 0.45701 4.48752e-21)
(0.801134 0.263152 -3.50761e-22)
(0.820403 0.0307857 3.60146e-21)
(0.849841 -0.178317 -4.90592e-21)
(0.877404 -0.323727 -3.67499e-21)
(0.896125 -0.398758 3.7248e-21)
(0.904203 -0.422178 -5.64508e-22)
(0.89611 -0.42295 1.70956e-21)
(0.867199 -0.419437 -3.00877e-21)
(0.822288 -0.404446 -6.24216e-22)
(0.776115 -0.354295 -2.31859e-22)
(0.746609 -0.254096 1.01377e-21)
(0.744784 -0.113751 -7.20047e-22)
(0.767948 0.0354041 -1.30034e-21)
(0.803769 0.167939 1.01954e-21)
(0.83342 0.273592 -6.13702e-22)
(0.843458 0.357301 -8.05802e-22)
(0.831405 0.410599 -1.1292e-21)
(0.808305 0.413712 1.35947e-22)
(0.786186 0.347833 -1.33712e-21)
(0.775551 0.216936 1.57699e-21)
(0.84405 0.578581 -2.39378e-21)
(0.818436 0.566516 9.89966e-22)
(0.803618 0.460754 -1.31363e-21)
(0.806073 0.266545 -8.86288e-22)
(0.825666 0.0330111 8.61759e-22)
(0.855156 -0.177394 -6.98777e-21)
(0.882261 -0.323657 6e-22)
(0.899963 -0.398998 2.20672e-21)
(0.907043 -0.421996 -1.87603e-21)
(0.89848 -0.421557 3.4817e-21)
(0.869426 -0.416772 -2.67942e-21)
(0.824383 -0.401504 1.55271e-21)
(0.777863 -0.352552 1.7687e-21)
(0.747715 -0.254588 -2.30188e-22)
(0.745365 -0.116422 1.07848e-21)
(0.768352 0.0315287 2.44423e-23)
(0.804214 0.164203 2.47365e-22)
(0.834018 0.271115 -8.95395e-22)
(0.844345 0.356576 -3.16541e-22)
(0.832706 0.411426 -1.01264e-21)
(0.810013 0.415477 -1.22552e-21)
(0.788049 0.349836 7.2772e-22)
(0.7772 0.218439 2.76027e-21)
(0.84624 0.580337 3.89379e-22)
(0.821879 0.569644 -5.09285e-21)
(0.808014 0.464607 3.09262e-21)
(0.811055 0.270175 3.68562e-22)
(0.830969 0.0355146 7.7464e-21)
(0.860524 -0.176219 2.19298e-21)
(0.887197 -0.323387 -5.13891e-21)
(0.903894 -0.399102 -1.47713e-21)
(0.909965 -0.421759 -1.72376e-21)
(0.900933 -0.420171 -9.69802e-22)
(0.87176 -0.414133 4.58104e-22)
(0.826598 -0.398583 -1.0817e-21)
(0.779755 -0.350824 6.43516e-22)
(0.748977 -0.25511 -2.08855e-21)
(0.746066 -0.119155 1.01734e-22)
(0.768836 0.0275668 -1.31455e-22)
(0.804718 0.160373 -1.44951e-21)
(0.834676 0.268542 1.11024e-21)
(0.845309 0.355761 8.71163e-22)
(0.834106 0.412187 -2.80112e-22)
(0.811838 0.41723 2.04036e-22)
(0.790039 0.351895 1.93807e-21)
(0.778976 0.220047 -4.21596e-21)
(0.848487 0.581901 -3.3406e-21)
(0.825381 0.572709 -1.11263e-21)
(0.812459 0.468568 -5.37137e-21)
(0.816073 0.274042 7.70659e-21)
(0.836304 0.0382981 -7.76225e-22)
(0.865939 -0.174794 -3.79305e-21)
(0.892206 -0.322916 4.38361e-21)
(0.907917 -0.399068 -2.13109e-21)
(0.912968 -0.421467 1.80157e-21)
(0.903467 -0.418795 4.15531e-21)
(0.874195 -0.411522 -1.6689e-21)
(0.828929 -0.395683 1.89992e-21)
(0.781784 -0.34911 6.53785e-22)
(0.750391 -0.255656 -5.29644e-22)
(0.746887 -0.121943 1.6894e-21)
(0.769397 0.0235228 1.06099e-22)
(0.805277 0.15645 2.97112e-22)
(0.835392 0.265871 -3.96438e-23)
(0.846347 0.354852 -5.02703e-22)
(0.835603 0.412881 -4.05526e-22)
(0.813778 0.418969 9.92904e-22)
(0.792154 0.354009 -9.50267e-24)
(0.780879 0.221762 5.3661e-22)
(0.850783 0.583266 9.02892e-22)
(0.828934 0.575706 6.73215e-21)
(0.816944 0.47263 -9.92831e-21)
(0.821119 0.278144 5.41457e-21)
(0.841666 0.0413629 -6.12804e-21)
(0.871395 -0.173116 2.15429e-21)
(0.897286 -0.322244 -2.5931e-21)
(0.912029 -0.398895 7.39548e-21)
(0.916051 -0.42112 -3.31143e-21)
(0.906077 -0.417432 -4.6898e-21)
(0.87673 -0.408944 -3.28567e-22)
(0.831372 -0.392807 5.66143e-23)
(0.783944 -0.347409 1.75433e-21)
(0.751952 -0.256222 7.18226e-22)
(0.747825 -0.12478 -3.97646e-22)
(0.770033 0.0194014 -1.83638e-22)
(0.80589 0.152433 -1.13621e-21)
(0.836162 0.2631 1.69355e-22)
(0.847455 0.353846 8.67064e-22)
(0.837194 0.413504 5.76426e-22)
(0.815831 0.420692 3.79277e-22)
(0.794393 0.356177 1.1296e-21)
(0.782908 0.223582 1.12266e-22)
(0.853118 0.584426 -1.6057e-21)
(0.832529 0.578628 2.30554e-21)
(0.821462 0.476789 -6.71827e-21)
(0.826183 0.28248 3.3646e-21)
(0.847047 0.0447057 5.18671e-21)
(0.876888 -0.171187 6.24244e-21)
(0.90243 -0.321372 -5.6695e-22)
(0.916228 -0.398585 -6.13886e-21)
(0.919213 -0.420717 3.27806e-21)
(0.90876 -0.416083 -7.77242e-22)
(0.879358 -0.406401 -9.42414e-22)
(0.833925 -0.389955 1.01053e-21)
(0.786225 -0.34572 -2.6434e-21)
(0.753655 -0.256803 -2.36328e-21)
(0.748879 -0.127659 1.69908e-21)
(0.77074 0.0152075 7.0131e-22)
(0.806551 0.148326 -3.95548e-22)
(0.836983 0.260229 -5.82632e-23)
(0.848631 0.352741 -1.7016e-21)
(0.838874 0.414052 9.78003e-22)
(0.817994 0.422395 -1.24113e-21)
(0.796753 0.358396 7.90646e-22)
(0.785063 0.225508 -2.61431e-21)
(0.855483 0.585374 1.45894e-21)
(0.836157 0.581466 1.56437e-21)
(0.826004 0.48104 8.83382e-21)
(0.831258 0.287046 1.13069e-21)
(0.852441 0.0483271 6.21326e-22)
(0.882412 -0.169004 -7.44854e-21)
(0.907635 -0.3203 5.47121e-21)
(0.920511 -0.398135 8.94691e-22)
(0.922452 -0.420258 2.26154e-21)
(0.911512 -0.414753 3.18614e-22)
(0.882076 -0.403897 2.56542e-22)
(0.836583 -0.387128 -1.38831e-21)
(0.788622 -0.344041 1.09185e-21)
(0.755494 -0.257395 5.33783e-22)
(0.750047 -0.130573 -1.85867e-21)
(0.771519 0.0109462 -1.18705e-22)
(0.807259 0.144129 1.29113e-21)
(0.837849 0.257255 -3.30919e-22)
(0.849871 0.351532 3.45678e-22)
(0.840641 0.414523 1.30497e-22)
(0.820262 0.424075 3.63078e-21)
(0.799232 0.360664 -3.97317e-21)
(0.787341 0.22754 -5.68052e-22)
(0.857869 0.586101 -1.12449e-21)
(0.839811 0.584213 -9.77945e-22)
(0.830562 0.485375 7.53301e-21)
(0.836336 0.291839 -1.36388e-20)
(0.857841 0.0522316 -3.96023e-21)
(0.887961 -0.166567 -2.19072e-21)
(0.912894 -0.319028 -4.61828e-21)
(0.924875 -0.397546 -4.04424e-21)
(0.925768 -0.419742 2.46757e-21)
(0.914329 -0.413441 -3.83749e-21)
(0.88488 -0.401435 2.12383e-21)
(0.839343 -0.384328 1.02665e-22)
(0.791125 -0.342371 3.99529e-22)
(0.757461 -0.257994 8.09988e-22)
(0.751327 -0.133517 1.24161e-21)
(0.772365 0.00662231 -1.74541e-21)
(0.808009 0.139844 -2.30148e-22)
(0.838759 0.254177 9.51056e-23)
(0.851171 0.350217 -5.07663e-22)
(0.842492 0.414912 -1.04684e-21)
(0.822634 0.425729 -6.01685e-22)
(0.801828 0.362979 4.5129e-22)
(0.789743 0.229676 3.2187e-21)
(0.860268 0.586601 4.32304e-22)
(0.843482 0.586861 3.04071e-21)
(0.835127 0.489787 -1.82696e-21)
(0.841408 0.296857 7.43012e-21)
(0.863241 0.056416 5.69054e-21)
(0.893531 -0.163877 2.248e-21)
(0.918203 -0.317556 4.39545e-21)
(0.929317 -0.396817 -4.10694e-21)
(0.929157 -0.419169 -6.80547e-22)
(0.917208 -0.412149 -2.96611e-21)
(0.887763 -0.399018 1.07474e-21)
(0.842203 -0.381556 -1.77192e-21)
(0.793729 -0.340709 -1.67428e-22)
(0.759548 -0.258597 1.52576e-21)
(0.752717 -0.136484 -1.98892e-21)
(0.773279 0.00224187 8.88073e-23)
(0.808798 0.135472 1.17025e-21)
(0.839708 0.250994 -1.02815e-21)
(0.852526 0.348793 1.07452e-21)
(0.844421 0.415216 -3.34948e-22)
(0.825105 0.427353 2.39704e-21)
(0.804536 0.365338 -5.30444e-21)
(0.792266 0.231915 3.99639e-21)
(0.862671 0.586866 6.92803e-21)
(0.847162 0.5894 -2.66695e-21)
(0.839692 0.494269 -8.09983e-21)
(0.846465 0.302094 -1.02419e-21)
(0.868634 0.0608775 -7.26476e-22)
(0.899115 -0.160932 -6.02625e-21)
(0.923557 -0.315884 -1.22474e-21)
(0.933833 -0.395948 -4.53283e-23)
(0.932619 -0.418536 3.72262e-21)
(0.920146 -0.410879 4.7007e-22)
(0.890721 -0.396649 1.23608e-21)
(0.84516 -0.378813 -2.5082e-21)
(0.796427 -0.339053 1.24897e-21)
(0.761747 -0.2592 -1.21656e-21)
(0.754214 -0.139468 1.96263e-21)
(0.774258 -0.00218501 -4.67516e-22)
(0.809625 0.131016 1.19705e-22)
(0.840692 0.247705 -2.6634e-22)
(0.853934 0.347257 4.27584e-22)
(0.846425 0.415432 -6.10971e-22)
(0.827671 0.428945 -2.75896e-21)
(0.807355 0.367739 6.35559e-21)
(0.794908 0.234258 4.16547e-21)
(0.865067 0.586889 5.12885e-23)
(0.850842 0.591821 3.28648e-21)
(0.844249 0.498813 -3.6707e-21)
(0.851501 0.307546 -1.76043e-21)
(0.874014 0.0656165 4.44544e-21)
(0.904711 -0.157732 3.37756e-21)
(0.928949 -0.314013 -1.37574e-21)
(0.938419 -0.394938 -2.72893e-21)
(0.936153 -0.417844 -1.18985e-21)
(0.92314 -0.40963 -3.14654e-21)
(0.893748 -0.394331 1.10919e-21)
(0.848209 -0.3761 2.0385e-21)
(0.799214 -0.337402 -1.47712e-21)
(0.764047 -0.259799 1.80124e-22)
(0.755816 -0.142464 -5.80286e-22)
(0.775302 -0.0066573 -6.24661e-22)
(0.810485 0.126477 1.64712e-21)
(0.841707 0.244309 1.16801e-21)
(0.855389 0.345607 -1.25349e-21)
(0.8485 0.415556 1.753e-21)
(0.830329 0.4305 -2.86742e-21)
(0.810281 0.370178 -4.41511e-21)
(0.797668 0.236702 -3.68853e-21)
(0.867449 0.586663 -1.31692e-21)
(0.854515 0.594115 6.17726e-21)
(0.848789 0.503408 5.57051e-22)
(0.856505 0.313207 1.1219e-21)
(0.879376 0.0706322 -5.8311e-21)
(0.910313 -0.154277 9.58171e-21)
(0.934376 -0.311942 -1.14874e-21)
(0.943071 -0.393787 -1.55519e-21)
(0.939755 -0.41709 1.01877e-21)
(0.926187 -0.408404 2.44676e-22)
(0.896838 -0.392067 5.7227e-22)
(0.851349 -0.373418 -6.13866e-22)
(0.802086 -0.335755 1.65187e-21)
(0.766438 -0.260392 -3.31282e-22)
(0.757518 -0.145466 2.51113e-23)
(0.776411 -0.0111719 -8.82706e-23)
(0.811376 0.12186 -1.17956e-21)
(0.84275 0.240805 4.92001e-22)
(0.856888 0.343841 -9.30241e-22)
(0.850641 0.415585 7.7442e-22)
(0.833074 0.432016 1.46514e-21)
(0.813309 0.372652 5.9862e-21)
(0.800543 0.239246 -2.54198e-22)
(0.869808 0.586181 6.00909e-21)
(0.858173 0.59627 -1.36666e-20)
(0.853305 0.508047 5.21244e-21)
(0.861472 0.319072 -1.06513e-20)
(0.884714 0.0759219 7.10252e-21)
(0.915917 -0.150567 -1.20438e-20)
(0.93983 -0.30967 8.62112e-21)
(0.947784 -0.392496 5.65646e-21)
(0.943425 -0.416272 -9.7785e-22)
(0.929283 -0.4072 1.78576e-21)
(0.899987 -0.38986 -9.29427e-22)
(0.854574 -0.370769 1.09712e-21)
(0.80504 -0.334108 -2.56555e-23)
(0.76891 -0.260975 -1.65793e-21)
(0.759315 -0.14847 2.53085e-22)
(0.777584 -0.0157286 1.18925e-21)
(0.812297 0.117165 8.01616e-22)
(0.843816 0.237193 3.31604e-24)
(0.858425 0.341955 -9.86509e-22)
(0.852844 0.415516 9.48855e-23)
(0.835903 0.433488 -4.95917e-22)
(0.816437 0.375159 -1.99274e-21)
(0.80353 0.241888 -4.47546e-21)
(0.872135 0.585435 3.84929e-21)
(0.861807 0.598278 -3.98618e-21)
(0.857789 0.512718 -3.11243e-21)
(0.866392 0.325132 -8.0632e-22)
(0.890026 0.0814823 5.803e-21)
(0.921521 -0.1466 1.93554e-21)
(0.945307 -0.307199 -4.26545e-21)
(0.952554 -0.391062 -1.65003e-21)
(0.94716 -0.41539 4.81111e-22)
(0.932427 -0.406018 -2.66893e-21)
(0.903189 -0.387712 1.00919e-22)
(0.85788 -0.368155 9.33562e-22)
(0.808071 -0.332461 3.7572e-22)
(0.771454 -0.261545 -3.90587e-22)
(0.7612 -0.151472 8.38498e-23)
(0.778822 -0.0203248 9.54188e-22)
(0.813248 0.112397 -3.03268e-22)
(0.844904 0.233473 -3.89248e-22)
(0.859998 0.339947 6.1578e-22)
(0.855104 0.415344 6.00115e-22)
(0.838809 0.434913 4.94245e-22)
(0.819659 0.377694 -2.33317e-21)
(0.806626 0.244626 1.74029e-21)
(0.87442 0.584418 1.35782e-22)
(0.865411 0.600127 8.65852e-22)
(0.862233 0.51741 -3.43313e-21)
(0.87126 0.33138 -9.33122e-21)
(0.895309 0.0873105 2.02019e-20)
(0.92712 -0.142377 -9.65244e-21)
(0.950802 -0.304528 -4.3639e-21)
(0.957376 -0.389487 3.17632e-21)
(0.950958 -0.41444 1.82243e-21)
(0.935616 -0.404857 -6.08946e-22)
(0.906438 -0.385626 7.66394e-22)
(0.861263 -0.365577 -1.27069e-21)
(0.811179 -0.330812 -1.22207e-23)
(0.774058 -0.262099 -1.5109e-22)
(0.763165 -0.154467 1.38524e-22)
(0.780126 -0.0249447 -3.54117e-22)
(0.814228 0.107558 -7.52293e-22)
(0.846008 0.229645 1.61388e-22)
(0.861601 0.337816 -8.02635e-22)
(0.857416 0.415068 1.66358e-21)
(0.84179 0.436286 1.78393e-21)
(0.822972 0.380254 1.74109e-21)
(0.809829 0.247457 -3.99211e-21)
(0.876657 0.583124 9.22419e-22)
(0.868977 0.601806 7.40086e-22)
(0.86663 0.522113 1.22089e-20)
(0.87607 0.337808 -1.72677e-21)
(0.900562 0.0934028 -6.16862e-21)
(0.932715 -0.137898 1.00684e-20)
(0.956309 -0.301655 -2.37469e-21)
(0.962245 -0.38777 9.62005e-22)
(0.954817 -0.413422 -4.40406e-21)
(0.938847 -0.403716 3.09297e-21)
(0.909729 -0.383605 -7.51108e-22)
(0.864718 -0.363037 8.46337e-22)
(0.814362 -0.329159 -6.62501e-22)
(0.776716 -0.262634 -5.01918e-22)
(0.7652 -0.157451 -1.59746e-22)
(0.781496 -0.0295826 -1.78493e-23)
(0.815238 0.102652 4.29471e-22)
(0.847128 0.225709 -3.60566e-22)
(0.86323 0.335559 -8.81676e-22)
(0.859776 0.414684 5.94666e-22)
(0.844839 0.437605 1.26518e-22)
(0.826371 0.382835 -4.10746e-21)
(0.813136 0.25038 9.19061e-22)
(0.878835 0.581546 8.28546e-22)
(0.872498 0.603303 -1.11408e-20)
(0.870973 0.526815 -3.96199e-21)
(0.880815 0.344406 1.58759e-21)
(0.905786 0.0997551 2.26483e-21)
(0.938302 -0.133161 4.95972e-21)
(0.961823 -0.29858 -1.13268e-20)
(0.967155 -0.38591 4.13006e-21)
(0.958734 -0.412333 -4.63655e-21)
(0.942118 -0.402593 1.76516e-21)
(0.913057 -0.381649 -1.99549e-21)
(0.86824 -0.360538 5.51927e-22)
(0.817619 -0.3275 7.07356e-22)
(0.779419 -0.263146 1.23439e-21)
(0.767295 -0.160421 7.04066e-22)
(0.782932 -0.0342351 -6.76544e-22)
(0.816281 0.097683 -3.98237e-22)
(0.848262 0.221667 -4.1694e-22)
(0.864881 0.333176 -5.51816e-24)
(0.862179 0.414188 -1.08071e-21)
(0.847952 0.438865 4.8762e-22)
(0.829852 0.385434 8.69623e-22)
(0.816543 0.253391 3.52561e-22)
(0.880947 0.579678 -3.7879e-21)
(0.875968 0.604608 1.56011e-21)
(0.875255 0.531502 7.13209e-21)
(0.885494 0.351164 -1.14462e-21)
(0.910987 0.106363 -1.0345e-21)
(0.943884 -0.128166 -3.65368e-21)
(0.967338 -0.295302 3.25079e-21)
(0.972101 -0.383908 -6.45671e-21)
(0.962706 -0.411172 3.26466e-21)
(0.945428 -0.401488 -1.30688e-21)
(0.916418 -0.379761 1.21751e-21)
(0.871823 -0.358082 -5.83427e-22)
(0.820949 -0.325834 -3.3202e-22)
(0.782161 -0.263631 -7.97773e-22)
(0.769437 -0.163374 1.07526e-21)
(0.784434 -0.038898 1.48941e-22)
(0.817362 0.0926546 -2.35756e-23)
(0.84941 0.21752 4.33667e-22)
(0.866551 0.330665 1.55408e-21)
(0.864619 0.413578 3.84561e-22)
(0.851124 0.440063 -2.5254e-21)
(0.833409 0.388046 1.01193e-22)
(0.820049 0.256487 -1.40173e-21)
(0.882985 0.577513 -1.00724e-20)
(0.879379 0.605709 8.55808e-21)
(0.879467 0.536162 5.20455e-21)
(0.890105 0.358071 -8.66335e-21)
(0.916175 0.113221 9.84163e-21)
(0.949462 -0.12291 2.83779e-21)
(0.972849 -0.291819 5.81667e-21)
(0.977076 -0.381764 -1.00304e-20)
(0.966731 -0.409939 -1.28171e-21)
(0.948773 -0.400399 1.84764e-21)
(0.919807 -0.377944 1.49478e-21)
(0.875462 -0.355673 -2.50261e-21)
(0.82435 -0.32416 5.00292e-22)
(0.78494 -0.264085 -3.19145e-22)
(0.771613 -0.166308 -2.61304e-22)
(0.786 -0.0435695 5.58537e-22)
(0.818487 0.0875702 -5.94629e-22)
(0.850575 0.213269 2.92506e-22)
(0.868238 0.328024 -2.48183e-22)
(0.867093 0.412851 -8.59571e-22)
(0.85435 0.441194 2.07713e-21)
(0.837039 0.390666 -2.45427e-21)
(0.823652 0.259666 -4.78318e-22)
(0.884942 0.575047 2.15808e-21)
(0.882725 0.606594 -1.91963e-21)
(0.883603 0.540781 1.32201e-21)
(0.894654 0.365116 -1.00156e-20)
(0.921368 0.120326 2.29436e-21)
(0.955039 -0.117395 1.13813e-20)
(0.97835 -0.288133 -1.49867e-20)
(0.982075 -0.379479 1.35191e-20)
(0.970806 -0.408629 5.45838e-22)
(0.952153 -0.399322 -4.48134e-21)
(0.923219 -0.376195 2.91951e-21)
(0.87915 -0.353312 2.29573e-22)
(0.82782 -0.322474 7.35454e-23)
(0.787753 -0.264503 -6.30319e-22)
(0.773808 -0.169217 -4.43868e-22)
(0.787625 -0.0482464 3.17381e-22)
(0.819665 0.0824341 -5.3598e-23)
(0.851762 0.208916 7.85899e-22)
(0.86994 0.325253 -1.9911e-21)
(0.869596 0.412005 1.15445e-21)
(0.857626 0.442256 2.14022e-21)
(0.840737 0.393292 1.26936e-21)
(0.82735 0.262924 -1.33441e-21)
(0.886811 0.572274 5.78256e-21)
(0.886001 0.607252 4.87818e-21)
(0.887658 0.545343 2.83279e-21)
(0.899158 0.372278 -4.60837e-21)
(0.926595 0.127652 -4.67764e-22)
(0.960621 -0.111633 -1.20923e-20)
(0.983835 -0.28424 3.00419e-21)
(0.987091 -0.377039 3.8042e-21)
(0.974926 -0.407226 -3.70694e-22)
(0.955565 -0.39824 -1.5992e-21)
(0.926651 -0.374506 -4.61727e-22)
(0.882883 -0.350994 2.42517e-21)
(0.831359 -0.320773 -1.80553e-24)
(0.790599 -0.264875 -8.79113e-22)
(0.776009 -0.172093 -3.43302e-22)
(0.789302 -0.0529203 2.76141e-22)
(0.820908 0.0772551 -4.8882e-23)
(0.852982 0.204468 2.92982e-22)
(0.871661 0.322354 9.65379e-22)
(0.872128 0.411037 -8.58076e-23)
(0.860947 0.443242 -1.83597e-21)
(0.844501 0.395916 -2.04918e-21)
(0.831144 0.266253 2.31132e-21)
(0.888593 0.569191 -6.22258e-23)
(0.889205 0.607667 2.8794e-21)
(0.891633 0.549817 -4.71598e-21)
(0.903655 0.379512 -6.86713e-21)
(0.931899 0.135172 1.03151e-20)
(0.966217 -0.10562 7.05577e-21)
(0.989301 -0.28012 -9.1361e-21)
(0.992119 -0.37443 -2.80328e-21)
(0.979091 -0.405722 -1.19372e-21)
(0.959008 -0.397151 9.84703e-22)
(0.930099 -0.37288 -2.2947e-22)
(0.886654 -0.348728 1.01104e-21)
(0.834963 -0.319062 5.78919e-22)
(0.79348 -0.265202 -4.30909e-22)
(0.778203 -0.174936 3.34084e-22)
(0.791019 -0.0575895 -2.30271e-22)
(0.822228 0.0720392 4.76057e-22)
(0.854254 0.199932 -5.91295e-22)
(0.873408 0.319331 -3.85535e-22)
(0.874688 0.409946 7.67235e-22)
(0.864314 0.444148 -1.38178e-21)
(0.84833 0.398528 1.79735e-21)
(0.835039 0.269643 3.65947e-22)
(0.890301 0.565799 4.73636e-21)
(0.892348 0.60783 -7.21774e-21)
(0.895551 0.554196 3.28241e-21)
(0.90823 0.386859 -9.75602e-21)
(0.937352 0.143016 1.42455e-20)
(0.971841 -0.0992301 -5.31973e-21)
(0.994743 -0.275748 5.64992e-21)
(0.997151 -0.371713 -9.97503e-21)
(0.983294 -0.404208 5.3252e-21)
(0.962479 -0.39614 4.41567e-21)
(0.933557 -0.37139 -3.3431e-21)
(0.890457 -0.346572 8.84401e-22)
(0.83863 -0.317384 -2.02107e-21)
(0.796398 -0.265526 2.75599e-22)
(0.780381 -0.177795 3.01743e-22)
(0.792763 -0.0623088 6.48653e-23)
(0.82364 0.0667419 1.34438e-23)
(0.855606 0.195278 -2.02324e-22)
(0.875203 0.316165 3.30054e-22)
(0.877288 0.408725 -4.84486e-22)
(0.86773 0.444974 -2.44449e-23)
(0.852232 0.40114 -9.66627e-23)
(0.839043 0.273126 -2.12555e-22)
(0.892008 0.562068 4.23858e-21)
(0.895505 0.607833 -7.71052e-21)
(0.899528 0.558739 -4.77263e-22)
(0.913088 0.394748 8.76769e-21)
(0.94307 0.15159 -3.81241e-21)
(0.977505 -0.0923064 2.59343e-21)
(1.00014 -0.27122 -1.28962e-20)
(1.00218 -0.369062 1.20566e-20)
(0.98753 -0.40284 -3.83779e-21)
(0.965977 -0.395325 -4.43208e-21)
(0.937026 -0.370117 1.96079e-21)
(0.894289 -0.34457 -4.3899e-22)
(0.842357 -0.315758 2.04406e-21)