/*--------------------------------*- C++ -*----------------------------------*\
  =========                 |
  \\      /  F ield         | OpenFOAM: The Open Source CFD Toolbox
   \\    /   O peration     | Website:  https://openfoam.org
    \\  /    A nd           | Version:  7
     \\/     M anipulation  |
\*---------------------------------------------------------------------------*/
FoamFile
{
    version     2.0;
    format      ascii;
    class       volScalarField;
    location    "200";
    object      p;
}
// * * * * * * * * * * * * * * * * * * * * * * * * * * * * * * * * * * * * * //

dimensions      [0 2 -2 0 0 0 0];

internalField   nonuniform List<scalar> 
7156
(
0.245303
0.252829
0.260202
0.272872
0.267418
0.280266
0.27447
0.287489
0.281354
0.294532
0.288064
0.308842
0.301392
0.294594
0.315824
0.30806
0.30094
0.322601
0.314532
0.307094
0.329166
0.320802
0.313054
0.343906
0.335514
0.326863
0.318813
0.350345
0.341638
0.332711
0.324366
0.356543
0.347533
0.338339
0.329709
0.362495
0.353193
0.343744
0.334837
0.368194
0.358613
0.348919
0.339746
0.383531
0.373636
0.363787
0.35386
0.344431
0.388978
0.378814
0.368712
0.358562
0.348887
0.394143
0.383725
0.373381
0.363021
0.353112
0.399022
0.388363
0.377792
0.367232
0.3571
0.403608
0.392723
0.381938
0.371191
0.36085
0.407899
0.396802
0.385817
0.374895
0.364356
0.41189
0.400596
0.389425
0.37834
0.367617
0.427167
0.415576
0.4041
0.392757
0.381522
0.370628
0.43072
0.418954
0.407312
0.395812
0.384439
0.373388
0.433944
0.422021
0.410227
0.398585
0.387088
0.375894
0.436837
0.424773
0.412844
0.401074
0.389466
0.378143
0.439397
0.427208
0.41516
0.403277
0.391571
0.380134
0.44162
0.429323
0.417172
0.405192
0.3934
0.381864
0.443504
0.431116
0.418878
0.406816
0.394952
0.383332
0.445048
0.432586
0.420277
0.408148
0.396226
0.384536
0.446249
0.433731
0.421367
0.409187
0.39722
0.385477
0.447107
0.434549
0.422147
0.409931
0.397933
0.386155
0.447621
0.43504
0.422617
0.41038
0.398366
0.386564
0.447789
0.435204
0.422776
0.410534
0.398515
0.386709
0.447612
0.435039
0.422623
0.410392
0.398382
0.386586
0.44709
0.434547
0.422159
0.409954
0.397967
0.386195
0.446224
0.433728
0.421384
0.409222
0.397271
0.385539
0.445014
0.432582
0.4203
0.408195
0.396294
0.384619
0.443462
0.431112
0.418907
0.406874
0.395037
0.383434
0.441569
0.429317
0.417206
0.405262
0.393502
0.381986
0.439337
0.427201
0.415199
0.403359
0.391689
0.380275
0.436768
0.424764
0.412889
0.401167
0.389601
0.378305
0.433865
0.42201
0.410277
0.398689
0.38724
0.376076
0.430631
0.418942
0.407367
0.395927
0.384608
0.373591
0.427069
0.415562
0.40416
0.392883
0.381707
0.370851
0.423183
0.411873
0.40066
0.389562
0.378541
0.367859
0.40788
0.396871
0.385965
0.375112
0.364619
0.403587
0.392797
0.382096
0.371424
0.361132
0.398997
0.38844
0.37796
0.367481
0.357403
0.394115
0.383806
0.37356
0.363286
0.353434
0.388946
0.378899
0.3689
0.358842
0.34923
0.383495
0.373724
0.363986
0.354156
0.344793
0.377768
0.368286
0.358821
0.34923
0.340129
0.36259
0.353411
0.34407
0.33524
0.356641
0.34776
0.338681
0.330132
0.350445
0.341875
0.333067
0.324809
0.344009
0.33576
0.327234
0.319276
0.337338
0.329422
0.321188
0.313537
0.322866
0.314933
0.307598
0.316098
0.308476
0.301463
0.309125
0.301822
0.295139
0.301953
0.294978
0.288629
0.28795
0.281941
0.280743
0.275079
0.273365
0.268048
0.265821
0.260855
0.253506
0.246004
0.238357
0.113771
0.114438
0.115752
0.11762
0.119994
0.122828
0.126085
0.129725
0.133709
0.137997
0.142539
0.147281
0.152152
0.157075
0.161946
0.166655
0.171054
0.174991
0.178261
0.18067
0.181939
0.18185
0.180026
0.176288
0.170073
0.161447
0.149281
0.113093
0.113736
0.114999
0.116796
0.119072
0.121782
0.124884
0.128337
0.132094
0.136114
0.140339
0.144709
0.149147
0.153569
0.157865
0.16192
0.165581
0.168695
0.171058
0.172484
0.172706
0.171525
0.168598
0.163779
0.156578
0.147087
0.134425
0.112368
0.112986
0.114196
0.115915
0.118087
0.120665
0.123603
0.126858
0.130381
0.134121
0.138019
0.14201
0.14601
0.14993
0.153658
0.157073
0.160025
0.162361
0.163886
0.164424
0.163728
0.161628
0.157816
0.152197
0.144355
0.134449
0.121841
0.111596
0.112186
0.11334
0.114978
0.117041
0.119481
0.122249
0.125299
0.128578
0.132032
0.135595
0.139198
0.142754
0.14617
0.149329
0.152112
0.154367
0.155949
0.156669
0.156367
0.154818
0.151878
0.147284
0.140974
0.132627
0.122415
0.109907
0.110774
0.111336
0.112432
0.113985
0.115935
0.118233
0.120826
0.123666
0.126696
0.129858
0.133083
0.136297
0.13941
0.142326
0.144928
0.147096
0.148684
0.14955
0.149521
0.148449
0.146135
0.14246
0.137207
0.130341
0.121628
0.111225
0.0988435
0.109904
0.110436
0.111472
0.112937
0.114771
0.116922
0.119337
0.121962
0.124739
0.127606
0.130492
0.133318
0.135993
0.13842
0.140482
0.142061
0.143017
0.143218
0.142503
0.140741
0.137763
0.133468
0.12769
0.12041
0.11147
0.101009
0.0888497
0.108984
0.109486
0.11046
0.111835
0.113549
0.11555
0.117781
0.120189
0.12271
0.125281
0.127828
0.13027
0.132516
0.134466
0.136008
0.137028
0.137392
0.136979
0.135645
0.133275
0.129727
0.124923
0.118738
0.111171
0.102123
0.0917242
0.0798803
0.108015
0.108485
0.109396
0.110678
0.11227
0.114117
0.116163
0.11835
0.120614
0.12289
0.1251
0.127164
0.128989
0.13048
0.131525
0.132017
0.131832
0.130859
0.12897
0.12607
0.122042
0.116829
0.110342
0.102597
0.0935401
0.0832967
0.0718314
0.106996
0.107434
0.10828
0.109468
0.110935
0.112626
0.114484
0.116449
0.118457
0.120438
0.122316
0.12401
0.125429
0.126478
0.127052
0.12705
0.12636
0.12488
0.122502
0.119147
0.114723
0.109191
0.102497
0.0946653
0.0856817
0.0756642
0.0646197
0.105928
0.106333
0.107112
0.108204
0.109545
0.111079
0.112748
0.114491
0.116242
0.117933
0.119485
0.12082
0.121846
0.122475
0.122607
0.122147
0.120996
0.119064
0.116261
0.112521
0.10778
0.102013
0.0951916
0.0873525
0.0785088
0.0687716
0.0581776
0.104811
0.105182
0.105895
0.106888
0.108102
0.109478
0.110957
0.112479
0.113977
0.115382
0.116617
0.117604
0.118256
0.118487
0.118206
0.117326
0.115759
0.113428
0.11026
0.106205
0.101218
0.0952884
0.0884117
0.080631
0.0719809
0.0625651
0.0524415
0.103645
0.103982
0.104627
0.105522
0.106607
0.107825
0.109116
0.110419
0.111668
0.112793
0.11372
0.114373
0.114669
0.114528
0.113865
0.112603
0.110665
0.107988
0.104513
0.100205
0.0950361
0.08901
0.0821386
0.0744709
0.0660566
0.0569921
0.0473496
0.102431
0.102734
0.103311
0.104107
0.105064
0.106123
0.107227
0.108315
0.109319
0.110173
0.110804
0.111139
0.1111
0.110611
0.109599
0.107993
0.105728
0.102754
0.0990271
0.0945233
0.0892318
0.0831657
0.076351
0.0688406
0.0606947
0.0520016
0.042843
0.10117
0.101438
0.101947
0.102645
0.103473
0.104376
0.105296
0.106171
0.106938
0.10753
0.107878
0.107911
0.107558
0.106749
0.105419
0.103507
0.100959
0.0977361
0.0938072
0.0891605
0.0837978
0.0777408
0.0710259
0.0637081
0.0558544
0.0475451
0.038867
0.0998632
0.100097
0.100537
0.101137
0.101838
0.102587
0.103325
0.103994
0.104531
0.104872
0.10495
0.104699
0.104055
0.102954
0.101338
0.0991565
0.0963671
0.0929393
0.0888555
0.0841131
0.0787247
0.0727186
0.0661389
0.0590411
0.0514962
0.0435765
0.0353708
0.0985114
0.0987105
0.0990837
0.0995856
0.100162
0.100759
0.101321
0.101789
0.102104
0.102205
0.102028
0.101514
0.100601
0.0992345
0.097365
0.0949503
0.091958
0.0883675
0.0841713
0.0793754
0.0740008
0.0680809
0.0616648
0.0548079
0.0475821
0.0400525
0.0323073
0.0971162
0.0972811
0.0975877
0.0979936
0.098447
0.0988956
0.0992855
0.0995609
0.0996643
0.0995374
0.0991222
0.0983624
0.0972047
0.0956007
0.0935086
0.090895
0.0877368
0.0840221
0.079752
0.0749397
0.0696129
0.0638084
0.0575785
0.0509771
0.044076
0.0369326
0.0296335
0.0956794
0.0958105
0.0960516
0.0963632
0.0966965
0.0970009
0.097225
0.0973152
0.0972171
0.0968761
0.0962387
0.0952539
0.0938749
0.0920601
0.0897755
0.0869958
0.0837062
0.0799024
0.075593
0.0707968
0.0655464
0.0598811
0.0538546
0.0475186
0.0409433
0.0341792
0.0273097
0.0942027
0.0943007
0.0944776
0.0946973
0.0949137
0.0950789
0.0951436
0.0950574
0.094769
0.0942278
0.0933853
0.0921957
0.0906187
0.0886194
0.0861713
0.0832564
0.0798672
0.0760062
0.071688
0.0669359
0.0617861
0.0562789
0.0504683
0.0444035
0.0381519
0.0317574
0.0252995
0.0926882
0.0927539
0.0928683
0.0929987
0.0931022
0.0931335
0.0930462
0.0927928
0.0923259
0.0915991
0.0905686
0.0891946
0.0874425
0.0852842
0.0827001
0.0796787
0.0762192
0.0723295
0.0680294
0.0633454
0.0583159
0.0529815
0.0473956
0.0416041
0.0356713
0.0296348
0.0235701
0.0911381
0.0911724
0.0912263
0.0912705
0.0912655
0.0911689
0.0909373
0.0905267
0.0898936
0.0889959
0.0877951
0.0862565
0.0843518
0.082059
0.0793647
0.0762635
0.0727602
0.0688675
0.0646087
0.0600129
0.0551196
0.0499692
0.0446131
0.0390943
0.0334732
0.0277819
0.0220912
0.089555
0.0895589
0.0895545
0.0895159
0.0894072
0.0891891
0.0888216
0.0882642
0.0874775
0.086424
0.0850702
0.0833868
0.0813511
0.078947
0.0761669
0.0730104
0.0694873
0.0656139
0.0614164
0.0569255
0.0521811
0.0472222
0.0420985
0.0368494
0.0315313
0.0261714
0.0208355
0.0879412
0.087916
0.0878558
0.0877382
0.087531
0.0871984
0.0867036
0.0860102
0.0850829
0.0838887
0.082399
0.0805899
0.0784441
0.0759507
0.0731071
0.0699178
0.0663962
0.0625617
0.0584426
0.0540702
0.0494841
0.0447219
0.0398306
0.0348463
0.0298213
0.0247782
0.0197781
0.0862997
0.0862466
0.0861333
0.0859408
0.0856408
0.0852008
0.084588
0.0837695
0.0827146
0.0813947
0.0797861
0.0778699
0.0756337
0.0730715
0.0701853
0.0669833
0.0634821
0.0597035
0.0556768
0.0514337
0.0470128
0.0424498
0.0377891
0.0330632
0.0283206
0.0235796
0.0188967
0.0846333
0.0845538
0.0843902
0.0841272
0.0837402
0.0832005
0.0824789
0.0815467
0.0803771
0.0789464
0.0772353
0.0752297
0.0729218
0.07031
0.0674
0.0642034
0.0607393
0.057031
0.0531084
0.0490029
0.0447518
0.0403887
0.035955
0.0314801
0.0270085
0.0225546
0.0181707
0.082945
0.0828406
0.0826299
0.082301
0.0818331
0.0812015
0.0803806
0.0793459
0.0780747
0.0765476
0.07475
0.0726718
0.0703098
0.0676659
0.0647493
0.0615742
0.0581616
0.0545357
0.0507266
0.0467648
0.0426861
0.0385218
0.0343105
0.0300782
0.0258657
0.0216843
0.0175819
0.0812379
0.0811103
0.0808556
0.0804656
0.0799233
0.0792077
0.0782972
0.0771711
0.0758111
0.0742018
0.0723327
0.0701981
0.0677982
0.0651384
0.0622307
0.0590912
0.0557424
0.0522089
0.0485205
0.0447067
0.0408013
0.0368335
0.0328387
0.0288402
0.0248749
0.0209513
0.0171136
0.0795154
0.0793662
0.079071
0.0786247
0.0780145
0.077223
0.0762325
0.0750262
0.0735898
0.0719119
0.0699859
0.0678098
0.065387
0.062726
0.0598408
0.0567494
0.0534747
0.0500418
0.0464796
0.0428164
0.0390838
0.0353089
0.0315241
0.0277499
0.02402
0.0203401
0.0167508
0.0777806
0.0776117
0.0772793
0.0767819
0.0761103
0.075251
0.0741901
0.0729146
0.0714138
0.0696803
0.0677111
0.0655074
0.0630756
0.0604266
0.0575761
0.0545433
0.0513516
0.0480256
0.0445935
0.0410819
0.0375205
0.0339341
0.0303521
0.0267927
0.0232863
0.0198364
0.0164802
0.0760371
0.0758502
0.0754841
0.0749408
0.0742144
0.0732954
0.0721735
0.0708392
0.0692858
0.0675091
0.0655095
0.0632912
0.060863
0.0582377
0.0554326
0.0524674
0.0493656
0.0461515
0.0428518
0.0394918
0.036099
0.0326958
0.0293093
0.025955
0.0226604
0.0194273
0.0162895
0.0742881
0.0740851
0.073689
0.0731047
0.0723302
0.0713595
0.0701858
0.0688031
0.0672081
0.0654
0.063382
0.0611608
0.0587475
0.0561564
0.0534058
0.0505158
0.0475096
0.0444109
0.0412449
0.0380353
0.0348076
0.0315821
0.0283831
0.0252242
0.0221302
0.0191011
0.0161679
0.0725372
0.0723198
0.0718972
0.0712772
0.0704612
0.0694465
0.0682299
0.0668087
0.0651827
0.0633541
0.0613287
0.0591155
0.0567272
0.0541795
0.0514912
0.0486826
0.0457764
0.0427953
0.0397632
0.0367021
0.0336354
0.0305814
0.027562
0.0245891
0.0216846
0.0188473
0.0161057
0.0707878
0.0705579
0.0701124
0.0694617
0.0686104
0.0675594
0.0663085
0.0648583
0.0632113
0.0613724
0.0593497
0.0571542
0.0548
0.0523036
0.0496841
0.0469619
0.0441588
0.0412965
0.0383976
0.0354823
0.032572
0.0296832
0.0268355
0.024039
0.0213135
0.0186566
0.0160941
0.0690433
0.0688028
0.0683377
0.0676613
0.0667811
0.0657011
0.0644242
0.0629538
0.061295
0.0594553
0.0574446
0.0552755
0.0529632
0.0505249
0.0479797
0.0453477
0.0426499
0.0399068
0.0371396
0.0343668
0.0316079
0.0288777
0.0261938
0.0235646
0.0210078
0.0185203
0.0161254
0.0673071
0.0670577
0.0665766
0.0658792
0.0649761
0.0638742
0.0625791
0.0610969
0.0594351
0.0576031
0.0556127
0.0534777
0.0512142
0.0488397
0.0463732
0.0438341
0.0412429
0.0386186
0.0359809
0.0333469
0.0307342
0.028156
0.025628
0.0231572
0.0207594
0.0184308
0.0161926
0.0655825
0.065326
0.0648321
0.0641184
0.0631982
0.0620811
0.0607752
0.0592889
0.057632
0.0558157
0.0538531
0.051759
0.0495501
0.047244
0.0448596
0.0424156
0.0399312
0.0374246
0.0349138
0.0324145
0.0299426
0.0275097
0.0251299
0.0228089
0.0205609
0.0183813
0.0162896
0.0638727
0.0636108
0.0631073
0.0623819
0.0614501
0.060324
0.0590142
0.0575312
0.0558864
0.0540928
0.0521645
0.0501172
0.0479679
0.0457341
0.0434342
0.0410863
0.0387086
0.036318
0.0339311
0.031562
0.0292253
0.0269312
0.024692
0.0225127
0.0204055
0.0183657
0.0164109
0.062181
0.0619152
0.0614052
0.0606722
0.059734
0.0586049
0.0572976
0.0558244
0.0541985
0.0524338
0.0505457
0.0485502
0.0464645
0.0443059
0.0420924
0.039841
0.0375691
0.0352923
0.0330258
0.0307825
0.0285754
0.0264135
0.0243077
0.022262
0.0202873
0.0183785
0.0165516
0.0605104
0.0602422
0.0597285
0.058992
0.0580523
0.0569257
0.0556268
0.0541694
0.0525682
0.0508381
0.048995
0.0470556
0.0450367
0.0429556
0.0408294
0.0386745
0.0365069
0.0343413
0.0321916
0.0300694
0.0279863
0.0259502
0.0239707
0.0220511
0.0202009
0.0184149
0.0167075
0.0588637
0.0585946
0.05808
0.0573437
0.056407
0.055288
0.0540027
0.0525667
0.0509953
0.0493046
0.0475109
0.0456309
0.0436815
0.0416793
0.0396408
0.0375816
0.0355167
0.0334594
0.0314226
0.0294166
0.027452
0.0255354
0.0236756
0.0218748
0.0201416
0.0184705
0.0168748
0.0572438
0.0569751
0.0564621
0.0557295
0.0547999
0.0536931
0.0524264
0.0510164
0.0494796
0.0478324
0.0460916
0.0442738
0.0423956
0.0404733
0.0385224
0.0365578
0.0345933
0.0326412
0.0307132
0.0288188
0.026967
0.025164
0.0234172
0.0217283
0.0201049
0.0185417
0.0170503
0.0556532
0.0553863
0.0548771
0.0541513
0.0532328
0.0521423
0.0508985
0.0495188
0.0480205
0.0464203
0.0447353
0.0429818
0.0411761
0.0393339
0.0374701
0.0355984
0.0337318
0.0318816
0.0300584
0.0282706
0.0265264
0.024831
0.023191
0.0216075
0.0200873
0.0186249
0.0172311
0.0540945
0.0538304
0.0533272
0.0526112
0.051707
0.0506366
0.0494194
0.0480738
0.0466173
0.0450671
0.04344
0.0417523
0.0400199
0.0382577
0.0364798
0.0346992
0.0329278
0.031176
0.0294534
0.0277675
0.0261256
0.0245322
0.0229929
0.0215087
0.0200853
0.0187174
0.0174146
0.0525699
0.0523096
0.0518143
0.0511107
0.050224
0.0491769
0.0479897
0.0466812
0.0452693
0.0437713
0.0422039
0.0405831
0.0389241
0.0372412
0.0355479
0.0338562
0.0321771
0.0305201
0.0288939
0.0273053
0.0257605
0.0242636
0.0228194
0.0214285
0.0200959
0.0188165
0.0175988
0.0510815
0.0508261
0.0503404
0.0496513
0.0487848
0.0477638
0.0466095
0.0453407
0.0439757
0.0425317
0.0410251
0.0394716
0.0378858
0.0362813
0.0346709
0.0330656
0.0314757
0.0299099
0.028376
0.0268799
0.0254273
0.0240216
0.0226671
0.0213639
0.0201165
0.0189199
0.0177819
0.0496314
0.0493815
0.0489069
0.0482345
0.0473904
0.0463981
0.0452788
0.044052
0.0427356
0.0413468
0.0399017
0.0384155
0.0369022
0.0353749
0.0338453
0.0323239
0.0308201
0.0293417
0.0278959
0.0264879
0.0251227
0.0238032
0.0225331
0.0213125
0.020145
0.0190259
0.0179622
0.0482212
0.0479776
0.0475154
0.0468614
0.0460416
0.0450799
0.0439977
0.0428144
0.0415479
0.0402151
0.0388318
0.0374126
0.0359709
0.0345191
0.0330682
0.0316279
0.0302068
0.0288122
0.0274504
0.026126
0.0248436
0.0236055
0.022415
0.0212718
0.0201792
0.0191327
0.0181385
0.0468525
0.0466158
0.0461671
0.0455328
0.0447391
0.0438097
0.042766
0.0416274
0.0404117
0.0391353
0.0378136
0.0364606
0.0350892
0.0337111
0.0323365
0.0309744
0.0296328
0.0283182
0.0270364
0.0257914
0.0245873
0.023426
0.0223103
0.0212399
0.0202176
0.019239
0.0183097
0.0455267
0.0452974
0.0448631
0.0442498
0.0434833
0.0425874
0.0415834
0.0404904
0.0393258
0.0381058
0.0368452
0.0355575
0.0342549
0.0329483
0.0316475
0.0303607
0.0290953
0.0278571
0.0266512
0.0254815
0.0243514
0.0232625
0.0222172
0.0212151
0.0202585
0.0193435
0.0184749
0.0442451
0.0440236
0.0436043
0.0430129
0.0422748
0.0414133
0.0404496
0.0394025
0.0382892
0.0371253
0.035925
0.0347012
0.0334656
0.0322285
0.0309988
0.0297842
0.0285916
0.0274261
0.0262925
0.025194
0.0241337
0.0231129
0.0221338
0.0211958
0.0203009
0.0194453
0.0186334
0.0430086
0.0427952
0.0423916
0.0418228
0.0411136
0.0402871
0.0393642
0.0383632
0.0373009
0.0361923
0.0350512
0.0338898
0.0327193
0.0315492
0.0303879
0.0292426
0.0281193
0.027023
0.0259578
0.0249267
0.0239322
0.0229757
0.0220587
0.0211808
0.0203436
0.0195437
0.0187847
0.0418182
0.0416131
0.0412255
0.0406797
0.0399999
0.0392088
0.0383267
0.0373715
0.0363596
0.0353055
0.0342222
0.0331216
0.032014
0.0309084
0.0298128
0.0287335
0.0276764
0.0266458
0.0256454
0.0246778
0.0237454
0.0228492
0.0219906
0.021169
0.0203858
0.0196378
0.0189283
0.0406745
0.0404779
0.0401066
0.039584
0.0389338
0.038178
0.0373365
0.0364267
0.0354644
0.0344635
0.0334366
0.0323947
0.0313478
0.0303043
0.0292713
0.0282552
0.0272609
0.0262924
0.0253533
0.0244457
0.0235717
0.0227322
0.0219283
0.0211594
0.0204268
0.0197274
0.0190641
0.0395783
0.0393902
0.0390352
0.0385359
0.0379152
0.0371945
0.0363931
0.035528
0.0346141
0.0336651
0.0326928
0.0317077
0.0307191
0.0297349
0.0287619
0.0278056
0.0268709
0.0259614
0.02508
0.0242289
0.0234098
0.0226235
0.0218709
0.0211514
0.020466
0.0198119
0.0191917
0.0385298
0.0383502
0.0380114
0.0375353
0.0369438
0.0362578
0.0354959
0.0346744
0.0338078
0.032909
0.0319894
0.0310589
0.0301262
0.0291986
0.0282826
0.0273833
0.026505
0.0256511
0.0248242
0.0240262
0.0232587
0.0225222
0.0218176
0.0211442
0.020503
0.0198912
0.0193111
0.0375294
0.0373582
0.0370356
0.0365823
0.0360196
0.0353676
0.0346442
0.0338651
0.0330444
0.0321941
0.0313252
0.0304469
0.0295676
0.0286941
0.0278322
0.0269868
0.0261618
0.0253602
0.0245846
0.0238365
0.0231173
0.0224274
0.0217677
0.0211375
0.0205374
0.0199651
0.0194225
0.0365773
0.0364144
0.0361076
0.0356767
0.0351422
0.0345234
0.0338374
0.0330995
0.0323229
0.0315193
0.0306989
0.0298706
0.0290421
0.0282198
0.0274092
0.0266146
0.0258399
0.0250876
0.0243601
0.0236587
0.0229848
0.0223386
0.0217208
0.0211307
0.020569
0.0200335
0.0195257
0.0356736
0.0355189
0.0352274
0.0348184
0.0343114
0.0337246
0.0330748
0.0323765
0.0316424
0.0308834
0.0301094
0.0293286
0.0285483
0.0277745
0.0270123
0.0262658
0.0255382
0.0248322
0.0241498
0.0234922
0.0228605
0.022255
0.0216763
0.0211238
0.0205978
0.0200964
0.019621
0.0348183
0.0346715
0.034395
0.0340072
0.0335266
0.0329709
0.0323559
0.0316956
0.0310019
0.0302856
0.0295556
0.0288199
0.0280852
0.0273572
0.0266406
0.0259391
0.0252559
0.0245932
0.0239529
0.0233362
0.0227439
0.0221764
0.0216341
0.0211163
0.0206236
0.0201539
0.0197086
0.0340114
0.0338722
0.0336102
0.0332427
0.0327876
0.0322616
0.0316799
0.0310558
0.0304008
0.0297249
0.0290366
0.0283435
0.0276518
0.0269668
0.0262929
0.0256337
0.0249919
0.0243697
0.0237687
0.0231901
0.0226345
0.0221023
0.0215937
0.0211084
0.0206464
0.0202062
0.0197887
0.0332529
0.0331209
0.0328727
0.0325248
0.032094
0.0315964
0.0310464
0.0304567
0.0298382
0.0292004
0.0285515
0.0278984
0.0272471
0.0266024
0.0259686
0.0253488
0.0247457
0.0241611
0.0235967
0.0230534
0.0225319
0.0220324
0.0215552
0.0210998
0.0206663
0.0202533
0.0198616
0.0325425
0.0324175
0.0321825
0.0318531
0.0314454
0.0309747
0.0304547
0.0298974
0.0293134
0.0287116
0.0280996
0.027484
0.0268704
0.0262634
0.0256668
0.0250837
0.0245165
0.023967
0.0234365
0.0229259
0.0224359
0.0219667
0.0215184
0.0210906
0.0206834
0.0202956
0.0199276
0.0318802
0.0317618
0.0315392
0.0312274
0.0308415
0.0303961
0.0299043
0.0293776
0.0288259
0.0282576
0.02768
0.0270994
0.0265209
0.0259489
0.025387
0.0248379
0.0243039
0.0237867
0.0232875
0.0228072
0.0223462
0.0219049
0.0214832
0.0210809
0.0206979
0.0203332
0.019987
0.0312659
0.0311537
0.0309428
0.0306475
0.030282
0.0298603
0.0293949
0.0288966
0.028375
0.027838
0.0272924
0.0267442
0.0261982
0.0256585
0.0251285
0.0246108
0.0241074
0.02362
0.0231496
0.022697
0.0222628
0.021847
0.0214498
0.0210708
0.02071
0.0203664
0.0200402
0.0306996
0.0305931
0.0303931
0.0301131
0.0297666
0.029367
0.028926
0.0284542
0.0279604
0.0274522
0.0269362
0.0264178
0.0259017
0.0253918
0.0248911
0.0244021
0.0239268
0.0234666
0.0230225
0.0225953
0.0221855
0.021793
0.0214181
0.0210604
0.0207198
0.0203954
0.0200875
0.0301812
0.0300801
0.0298901
0.0296242
0.0292953
0.028916
0.0284975
0.0280499
0.0275817
0.0271
0.026611
0.0261199
0.0256312
0.0251483
0.0246744
0.0242116
0.0237618
0.0233263
0.0229062
0.022502
0.0221143
0.021743
0.0213883
0.0210498
0.0207276
0.0204207
0.0201293
0.0297108
0.0296146
0.0294339
0.0291809
0.028868
0.0285072
0.0281093
0.0276838
0.0272387
0.026781
0.0263166
0.0258503
0.0253862
0.024928
0.0244781
0.024039
0.0236122
0.0231991
0.0228005
0.0224171
0.0220493
0.0216971
0.0213605
0.0210394
0.0207336
0.0204424
0.0201658
0.0292887
0.0291969
0.0290245
0.0287832
0.0284848
0.0281407
0.0277613
0.0273556
0.0269314
0.0264953
0.0260529
0.0256087
0.0251669
0.0247305
0.0243023
0.0238843
0.0234781
0.0230849
0.0227056
0.0223407
0.0219905
0.0216553
0.021335
0.0210293
0.0207381
0.0204609
0.0201975
0.0289153
0.0288274
0.0286624
0.0284314
0.0281459
0.0278166
0.0274536
0.0270656
0.0266599
0.0262429
0.0258199
0.0253954
0.0249731
0.0245561
0.024147
0.0237476
0.0233595
0.0229838
0.0226214
0.0222727
0.0219382
0.0216179
0.0213118
0.0210196
0.0207414
0.0204764
0.0202246
0.0285911
0.0285066
0.028348
0.0281262
0.0278518
0.0275355
0.0271868
0.0268141
0.0264245
0.0260241
0.025618
0.0252104
0.0248051
0.0244049
0.0240122
0.0236289
0.0232564
0.0228959
0.0225481
0.0222135
0.0218925
0.021585
0.0212912
0.0210108
0.0207436
0.0204892
0.0202474
0.0283169
0.0282353
0.0280823
0.0278681
0.0276032
0.0272979
0.0269613
0.0266015
0.0262255
0.0258392
0.0254473
0.0250541
0.0246631
0.0242771
0.0238983
0.0235285
0.0231693
0.0228216
0.0224861
0.0221633
0.0218536
0.021557
0.0212734
0.0210028
0.020745
0.0204995
0.0202661
0.0280939
0.0280147
0.0278661
0.0276582
0.0274011
0.0271047
0.0267779
0.0264288
0.0260638
0.0256889
0.0253086
0.0249271
0.0245477
0.0241731
0.0238056
0.0234469
0.0230984
0.022761
0.0224355
0.0221223
0.0218217
0.0215339
0.0212587
0.0209961
0.0207458
0.0205075
0.0202809
0.0279234
0.027846
0.0277008
0.0274978
0.0272466
0.0269571
0.0266379
0.0262968
0.0259403
0.025574
0.0252027
0.0248301
0.0244595
0.0240937
0.0237348
0.0233845
0.0230441
0.0227146
0.0223967
0.0220909
0.0217973
0.0215161
0.0212474
0.0209908
0.0207463
0.0205135
0.0202921
0.0278073
0.0277311
0.0275883
0.0273885
0.0271415
0.0268566
0.0265425
0.0262069
0.0258562
0.0254959
0.0251305
0.024764
0.0243995
0.0240397
0.0236866
0.023342
0.0230072
0.022683
0.0223703
0.0220694
0.0217806
0.021504
0.0212395
0.0209871
0.0207465
0.0205174
0.0202995
0.0277478
0.0276723
0.0275306
0.0273326
0.0270876
0.0268051
0.0264937
0.0261609
0.0258131
0.0254559
0.0250936
0.0247302
0.0243688
0.024012
0.0236619
0.0233203
0.0229883
0.0226669
0.0223568
0.0220584
0.021772
0.0214977
0.0212355
0.0209852
0.0207465
0.0205193
0.0203032
0.119197
0.119914
0.121377
0.123447
0.126123
0.129353
0.133129
0.137439
0.14228
0.147657
0.153571
0.160041
0.16707
0.174688
0.182895
0.191734
0.201207
0.211351
0.222165
0.233708
0.245953
0.258973
0.272713
0.287274
0.302528
0.318666
0.335389
0.353089
0.371063
0.119198
0.119915
0.121378
0.123448
0.126124
0.129354
0.133129
0.137439
0.142279
0.147656
0.15357
0.16004
0.167068
0.174685
0.182891
0.191728
0.2012
0.211341
0.222152
0.233691
0.245934
0.258946
0.27268
0.28723
0.302467
0.318593
0.335302
0.352983
0.370915
0.119194
0.119911
0.121374
0.123444
0.126119
0.129349
0.133124
0.137433
0.142272
0.147648
0.15356
0.160029
0.167055
0.174669
0.18287
0.191702
0.20117
0.211303
0.222105
0.233633
0.245863
0.258855
0.27256
0.287092
0.30229
0.318383
0.335059
0.352704
0.370621
0.119185
0.119903
0.121365
0.123434
0.126109
0.129338
0.133112
0.137421
0.142258
0.147632
0.153542
0.160007
0.16703
0.174639
0.182833
0.191657
0.201118
0.211237
0.222024
0.233531
0.245731
0.2587
0.272354
0.286873
0.302059
0.318089
0.334671
0.352229
0.370019
0.119173
0.11989
0.121351
0.123421
0.126095
0.129323
0.133095
0.137402
0.142237
0.147608
0.153515
0.159976
0.166993
0.174595
0.18278
0.191592
0.201043
0.211143
0.221904
0.233386
0.245536
0.258505
0.272158
0.286573
0.301674
0.317621
0.33411
0.351557
0.369196
0.119155
0.119873
0.121333
0.123402
0.126075
0.129301
0.133072
0.137376
0.142209
0.147577
0.153479
0.159935
0.166944
0.174538
0.182711
0.191509
0.200945
0.211004
0.221743
0.233214
0.245375
0.258241
0.271807
0.286167
0.30118
0.317027
0.333393
0.350698
0.368153
0.119134
0.11985
0.121311
0.123378
0.12605
0.129275
0.133044
0.137345
0.142174
0.147538
0.153434
0.159883
0.166884
0.174467
0.182625
0.191405
0.200812
0.210816
0.2216
0.233007
0.24508
0.257903
0.271395
0.285677
0.300585
0.31631
0.332521
0.349653
0.366883
0.119107
0.119824
0.121283
0.123349
0.12602
0.129243
0.133009
0.137307
0.142133
0.147491
0.15338
0.159822
0.166812
0.174382
0.182522
0.191268
0.20064
0.210763
0.221376
0.232736
0.244749
0.257511
0.270921
0.285101
0.299884
0.315465
0.331494
0.34842
0.365386
0.119077
0.119793
0.121251
0.123316
0.125985
0.129205
0.132969
0.137263
0.142084
0.147436
0.153318
0.159751
0.166728
0.174285
0.1824
0.191094
0.200531
0.210513
0.221115
0.232428
0.24438
0.257062
0.270375
0.284438
0.299076
0.314489
0.33031
0.347
0.363664
0.119041
0.119757
0.121214
0.123278
0.125944
0.129163
0.132923
0.137213
0.142029
0.147374
0.153247
0.15967
0.166633
0.174175
0.182261
0.191054
0.200303
0.210257
0.220829
0.232084
0.243963
0.256554
0.269756
0.283686
0.298161
0.313385
0.32897
0.345395
0.361718
0.119002
0.119717
0.121173
0.123235
0.125899
0.129115
0.132871
0.137156
0.141966
0.147304
0.153167
0.159579
0.166527
0.174044
0.182147
0.190837
0.200072
0.209995
0.220512
0.231699
0.243495
0.255986
0.269063
0.282847
0.29714
0.312154
0.327476
0.343605
0.35955
0.118958
0.119672
0.121127
0.123187
0.125849
0.129061
0.132814
0.137093
0.141897
0.147226
0.153079
0.159478
0.166408
0.173891
0.18198
0.19062
0.199835
0.209707
0.220162
0.231275
0.242978
0.255358
0.268299
0.28192
0.296013
0.310795
0.325829
0.341632
0.357161
0.118909
0.119623
0.121076
0.123134
0.125794
0.129003
0.132751
0.137024
0.141821
0.147141
0.152982
0.159369
0.166275
0.173778
0.181786
0.1904
0.199577
0.209391
0.219779
0.230809
0.242412
0.25467
0.267462
0.280907
0.294781
0.309309
0.324028
0.339476
0.354553
0.118856
0.119569
0.121021
0.123077
0.125733
0.128939
0.132682
0.136949
0.141739
0.147048
0.152877
0.159251
0.166137
0.17359
0.181582
0.190163
0.199294
0.209048
0.219363
0.230304
0.241798
0.253924
0.266553
0.279806
0.293444
0.307697
0.322076
0.33714
0.351728
0.118799
0.119511
0.120961
0.123015
0.125668
0.12887
0.132608
0.136868
0.14165
0.146948
0.152763
0.159116
0.166006
0.1734
0.181367
0.189907
0.198988
0.208677
0.218913
0.229759
0.241134
0.253119
0.265573
0.27862
0.292002
0.30596
0.319973
0.334624
0.348689
0.118737
0.119448
0.120896
0.122948
0.125598
0.128795
0.132528
0.13678
0.141554
0.146841
0.152641
0.158961
0.165827
0.173206
0.181138
0.189633
0.198659
0.208279
0.218431
0.229174
0.240422
0.252255
0.264522
0.277347
0.290457
0.304098
0.317721
0.331931
0.345437
0.118671
0.119381