/*--------------------------------*- C++ -*----------------------------------*\
  =========                 |
  \\      /  F ield         | OpenFOAM: The Open Source CFD Toolbox
   \\    /   O peration     | Website:  https://openfoam.org
    \\  /    A nd           | Version:  7
     \\/     M anipulation  |
\*---------------------------------------------------------------------------*/
FoamFile
{
    version     2.0;
    format      ascii;
    class       volVectorField;
    location    "200";
    object      U;
}
// * * * * * * * * * * * * * * * * * * * * * * * * * * * * * * * * * * * * * //

dimensions      [0 1 -1 0 0 0 0];

internalField   nonuniform List<vector> 
7156
(
(0.808043 0.268328 1.33277e-19)
(0.80094 0.262541 -1.45473e-19)
(0.793985 0.256548 7.44548e-20)
(0.775533 0.262922 -2.20837e-19)
(0.787183 0.250353 -6.18576e-21)
(0.76856 0.256221 -2.07055e-19)
(0.780539 0.243961 2.24578e-19)
(0.761754 0.249319 3.40166e-19)
(0.774058 0.237374 1.6782e-19)
(0.755121 0.242218 1.86892e-19)
(0.767746 0.230597 -4.26709e-19)
(0.734972 0.246808 -2.90863e-19)
(0.748667 0.234924 -1.8357e-19)
(0.761606 0.223635 3.01775e-19)
(0.728373 0.238971 6.25356e-19)
(0.742397 0.227442 -5.29933e-20)
(0.755645 0.216491 -8.70537e-20)
(0.721974 0.230941 -1.55682e-19)
(0.736318 0.219775 -1.38131e-19)
(0.749867 0.209172 1.84799e-19)
(0.715779 0.222723 -2.17387e-19)
(0.730434 0.21193 -3.11026e-20)
(0.744278 0.201682 -4.25252e-19)
(0.694381 0.22521 3.87009e-19)
(0.709796 0.214322 7.61087e-20)
(0.72475 0.203911 1.74988e-19)
(0.738881 0.194026 5.01069e-20)
(0.688291 0.216232 -1.59803e-20)
(0.704028 0.205745 8.6253e-20)
(0.719273 0.195724 -2.11221e-19)
(0.733683 0.18621 7.96954e-20)
(0.682433 0.207074 -1.68652e-19)
(0.698483 0.196996 -1.00902e-19)
(0.714007 0.187375 -5.50591e-20)
(0.728686 0.178239 2.16206e-19)
(0.676815 0.197741 -4.59565e-20)
(0.693164 0.188084 -6.57334e-21)
(0.708957 0.17887 2.62184e-20)
(0.723897 0.17012 -6.9412e-20)
(0.67144 0.188242 1.70244e-19)
(0.688077 0.179013 2.10536e-19)
(0.704127 0.170215 1.33083e-19)
(0.719318 0.161858 1.76838e-19)
(0.64861 0.187858 -1.54815e-19)
(0.666316 0.178583 -1.51332e-19)
(0.683227 0.169792 6.26504e-20)
(0.699522 0.161416 -1.92024e-19)
(0.714955 0.153459 -1.45741e-19)
(0.643463 0.177577 2.49042e-19)
(0.661445 0.168771 9.04887e-20)
(0.678619 0.160426 -4.02264e-20)
(0.695148 0.15248 3.99076e-20)
(0.710811 0.14493 1.37328e-19)
(0.63859 0.167141 -2.96948e-19)
(0.656834 0.158813 -6.34688e-20)
(0.674256 0.150922 -5.91875e-20)
(0.691007 0.143414 -8.1525e-20)
(0.70689 0.136278 -2.33429e-19)
(0.633993 0.15656 -6.7121e-20)
(0.652486 0.148718 -5.51276e-21)
(0.670144 0.141289 2.02141e-19)
(0.687104 0.134224 -2.14211e-20)
(0.703195 0.127508 -5.72244e-22)
(0.62968 0.145841 4.29712e-19)
(0.648406 0.138494 1.58895e-19)
(0.666285 0.131533 -2.51503e-19)
(0.683442 0.124918 2.62375e-19)
(0.699731 0.118627 3.72634e-20)
(0.625653 0.134993 -2.38348e-19)
(0.644598 0.128147 -1.15294e-19)
(0.662685 0.121662 1.6757e-19)
(0.680026 0.115502 -5.92701e-20)
(0.6965 0.109643 6.30816e-20)
(0.621916 0.124025 6.81697e-20)
(0.641066 0.117686 1.55821e-19)
(0.659346 0.111683 -1.68542e-19)
(0.676859 0.105984 -7.44795e-20)
(0.693505 0.100563 3.10249e-20)
(0.598205 0.119094 -4.41385e-20)
(0.618475 0.112944 -9.87557e-20)
(0.637813 0.107119 -9.31357e-20)
(0.656272 0.101604 7.0609e-20)
(0.673943 0.0963713 -1.29806e-19)
(0.69075 0.0913922 -4.27287e-20)
(0.594879 0.107363 -1.26384e-19)
(0.615331 0.101761 7.8629e-20)
(0.634843 0.0964556 8.92216e-21)
(0.653466 0.0914337 5.55055e-20)
(0.671282 0.0866713 4.54162e-20)
(0.688237 0.0821392 1.7383e-20)
(0.59187 0.0955314 1.39939e-20)
(0.612489 0.090483 1.48633e-19)
(0.632158 0.085703 6.24885e-20)
(0.65093 0.0811793 -1.58469e-19)
(0.668879 0.0768916 4.71338e-21)
(0.685968 0.072811 8.69371e-21)
(0.589183 0.0836098 8.70527e-20)
(0.609951 0.07912 -1.40048e-20)
(0.629762 0.07487 1.76555e-20)
(0.648668 0.0708491 -1.53206e-20)
(0.666735 0.06704 -4.32694e-20)
(0.683946 0.0634149 -1.67302e-20)
(0.586819 0.0716077 -6.20788e-21)
(0.60772 0.0676812 -7.35281e-20)
(0.627657 0.0639655 -5.39229e-20)
(0.646681 0.0604514 4.44258e-20)
(0.664854 0.0571243 5.56437e-20)
(0.682172 0.0539582 4.03116e-20)
(0.584782 0.0595348 -1.13983e-19)
(0.605798 0.0561756 1.48581e-20)
(0.625844 0.0529981 -2.38038e-20)
(0.644973 0.0499943 1.1856e-19)
(0.663236 0.0471523 -3.44019e-20)
(0.680649 0.0444484 -2.12372e-20)
(0.583073 0.0474011 9.70057e-21)
(0.604187 0.0446127 -1.24879e-19)
(0.624327 0.0419767 1.23701e-20)
(0.643543 0.0394864 -8.65704e-20)
(0.661885 0.0371321 4.96921e-20)
(0.679378 0.0348931 4.53431e-20)
(0.581695 0.0352164 6.87035e-20)
(0.60289 0.033002 7.53769e-20)
(0.623107 0.0309103 -3.17637e-20)
(0.642395 0.0289359 -4.88101e-20)
(0.660801 0.0270715 -3.45151e-20)
(0.67836 0.0253 8.12029e-20)
(0.580648 0.022991 -3.04971e-21)
(0.601907 0.0213528 -2.6986e-20)
(0.622184 0.0198076 4.05405e-20)
(0.64153 0.0183514 2.40206e-21)
(0.659986 0.0169786 -2.09555e-20)
(0.677597 0.0156753 1.52406e-20)
(0.579935 0.0107347 -6.73878e-20)
(0.60124 0.00967466 -5.64788e-21)
(0.621561 0.00867784 1.39628e-21)
(0.640947 0.00774139 2.79633e-20)
(0.659439 0.00686133 1.95919e-20)
(0.677088 0.0060254 -1.12443e-20)
(0.579556 -0.00154223 2.64829e-20)
(0.60089 -0.00202277 -6.9746e-21)
(0.621238 -0.00246994 3.70725e-20)
(0.640649 -0.00288527 -2.83928e-20)
(0.659162 -0.00327089 -9.4244e-21)
(0.676828 -0.00363396 -2.68842e-21)
(0.579512 -0.0138297 -1.53904e-21)
(0.600857 -0.0137299 -6.69407e-21)
(0.621215 -0.0136267 -1.27916e-20)
(0.640636 -0.0135201 -3.15216e-21)
(0.659157 -0.0134103 2.14717e-21)
(0.676833 -0.0132967 -7.52017e-21)
(0.579802 -0.0261175 -2.37302e-21)
(0.601141 -0.0254372 -5.47825e-21)
(0.621493 -0.0247834 -1.14845e-20)
(0.640908 -0.0241548 -3.41661e-21)
(0.659424 -0.0235498 8.30601e-22)
(0.677095 -0.0229631 -3.64427e-21)
(0.580428 -0.0383955 2.54324e-20)
(0.601743 -0.0371351 3.37388e-21)
(0.622072 -0.0359311 2.81087e-20)
(0.641465 -0.0347808 -2.49589e-20)
(0.659961 -0.0336811 -8.06178e-21)
(0.677614 -0.0326224 -1.09647e-20)
(0.581388 -0.0506535 -3.98739e-20)
(0.602662 -0.048814 1.3163e-20)
(0.622951 -0.0470606 -5.27224e-20)
(0.642306 -0.0453896 6.20094e-20)
(0.66077 -0.0437958 1.28209e-20)
(0.678388 -0.0422657 -7.54262e-21)
(0.582683 -0.0628815 2.94585e-20)
(0.603897 -0.0604643 -2.67528e-20)
(0.62413 -0.058163 1.88484e-20)
(0.643432 -0.0559725 1.74923e-20)
(0.661848 -0.0538858 -1.02272e-20)
(0.679417 -0.0518852 -2.05858e-20)
(0.58431 -0.0750693 4.15591e-20)
(0.605447 -0.0720765 8.19136e-20)
(0.625608 -0.0692292 -5.8498e-20)
(0.644841 -0.066521 6.89715e-21)
(0.663195 -0.0639429 -1.45078e-20)
(0.680702 -0.0614735 -1.51055e-20)
(0.586268 -0.0872068 -3.11243e-20)
(0.607312 -0.083641 -6.90855e-20)
(0.627383 -0.0802501 -1.6508e-21)
(0.646531 -0.0770265 -8.77456e-20)
(0.664811 -0.073959 5.62063e-20)
(0.68224 -0.0710229 8.07106e-20)
(0.588556 -0.0992842 -1.37513e-19)
(0.609489 -0.0951484 4.86742e-20)
(0.629454 -0.091217 1.7277e-20)
(0.648502 -0.0874808 1.03314e-19)
(0.666693 -0.0839262 -6.88247e-20)
(0.684032 -0.0805257 -3.41198e-20)
(0.591172 -0.111291 1.76697e-20)
(0.611977 -0.106589 -8.69805e-20)
(0.63182 -0.102121 -1.87007e-20)
(0.650753 -0.0978753 7.19217e-21)
(0.66884 -0.0938363 9.16668e-20)
(0.686074 -0.0899744 3.37422e-20)
(0.594113 -0.123218 1.49175e-19)
(0.614773 -0.117955 -6.6199e-20)
(0.634478 -0.112953 7.71605e-20)
(0.65328 -0.108202 -7.74372e-20)
(0.671251 -0.103682 4.75843e-21)
(0.688367 -0.0993614 -4.54161e-20)
(0.597377 -0.135056 5.9067e-20)
(0.617875 -0.129235 6.91736e-20)
(0.637426 -0.123704 1.08261e-20)
(0.656081 -0.118452 2.57595e-21)
(0.673923 -0.113454 -6.81115e-20)
(0.690907 -0.108679 -1.72166e-20)
(0.60096 -0.146794 -1.32145e-19)
(0.62128 -0.140421 -4.67047e-20)
(0.640661 -0.134367 3.97515e-20)
(0.659156 -0.128617 5.98342e-20)
(0.676855 -0.123146 1.03355e-19)
(0.693693 -0.117921 2.97555e-20)
(0.60486 -0.158423 1.78947e-19)
(0.624985 -0.151503 -1.07374e-19)
(0.644181 -0.144931 -1.31844e-19)
(0.662499 -0.13869 -1.00861e-20)
(0.680042 -0.132749 -1.02127e-19)
(0.696722 -0.127079 -4.50136e-20)
(0.628987 -0.162474 9.4712e-20)
(0.647982 -0.15539 1.00628e-19)
(0.66611 -0.148663 -2.31978e-19)
(0.683483 -0.142257 -9.39441e-21)
(0.699992 -0.136145 4.23385e-21)
(0.633282 -0.173324 -2.38047e-19)
(0.652061 -0.165734 -8.2611e-20)
(0.669984 -0.158527 1.54011e-19)
(0.687175 -0.151662 -1.79927e-20)
(0.703501 -0.145114 -7.46985e-20)
(0.637866 -0.184044 3.10765e-19)
(0.656414 -0.175956 1.32365e-19)
(0.674118 -0.168275 -1.68521e-19)
(0.691114 -0.160956 1.70276e-19)
(0.707245 -0.153977 8.2428e-20)
(0.642735 -0.194627 -5.3137e-20)
(0.661037 -0.186047 -5.71294e-21)
(0.678508 -0.177899 1.77594e-19)
(0.695297 -0.170132 -5.58622e-20)
(0.71122 -0.162729 -1.31391e-19)
(0.647884 -0.205063 -2.45455e-19)
(0.665927 -0.195999 -8.99845e-20)
(0.683151 -0.187392 -3.01834e-20)
(0.69972 -0.179184 -1.21149e-19)
(0.715425 -0.171362 6.28742e-21)
(0.65331 -0.215345 2.96141e-19)
(0.671078 -0.205805 1.33053e-19)
(0.688043 -0.196747 -4.41421e-20)
(0.704379 -0.188103 1.02518e-19)
(0.719854 -0.179869 1.17277e-19)
(0.659006 -0.225464 -8.46073e-20)
(0.676487 -0.215458 -1.42077e-19)
(0.693178 -0.205956 4.81665e-20)
(0.70927 -0.196884 -2.23602e-19)
(0.724506 -0.188245 -1.80272e-19)
(0.682148 -0.22495 2.07716e-19)
(0.698553 -0.215013 1.21596e-19)
(0.714389 -0.20552 2.06032e-19)
(0.729374 -0.196482 2.00539e-19)
(0.688056 -0.234273 -1.3469e-19)
(0.704162 -0.22391 1.41534e-19)
(0.719732 -0.214004 -5.87144e-20)
(0.734456 -0.204575 -1.24547e-19)
(0.694206 -0.243421 -3.4006e-19)
(0.710002 -0.232641 -1.3826e-19)
(0.725293 -0.22233 4.07082e-20)
(0.739748 -0.212517 1.2983e-19)
(0.700592 -0.252388 2.64905e-20)
(0.716066 -0.241201 -1.99003e-19)
(0.731068 -0.230493 -4.56604e-20)
(0.745244 -0.220303 3.00856e-20)
(0.707209 -0.261165 1.19229e-20)
(0.722349 -0.249581 3.07199e-20)
(0.737051 -0.238485 3.96549e-19)
(0.75094 -0.227926 -6.44953e-20)
(0.728846 -0.257778 -1.9289e-20)
(0.743238 -0.246302 -1.92475e-20)
(0.756833 -0.235382 -2.83951e-19)
(0.735552 -0.265784 -2.94267e-19)
(0.749624 -0.253938 -7.77698e-20)
(0.762916 -0.242664 1.94796e-19)
(0.742459 -0.273594 5.4531e-19)
(0.756202 -0.261388 -7.97515e-20)
(0.769184 -0.249768 -5.25955e-20)
(0.749564 -0.281204 -2.17738e-19)
(0.762968 -0.268647 -1.89532e-19)
(0.775634 -0.256689 2.10661e-19)
(0.769915 -0.275709 1.00014e-19)
(0.78226 -0.263422 -3.32743e-19)
(0.777039 -0.282571 2.11939e-19)
(0.789056 -0.269962 1.15378e-19)
(0.784332 -0.289229 -3.71479e-20)
(0.796018 -0.276305 1.01951e-19)
(0.79179 -0.295678 1.63519e-20)
(0.803139 -0.282447 -7.96788e-20)
(0.810416 -0.288385 -5.85588e-20)
(0.817842 -0.294114 -1.34692e-19)
(0.825413 -0.299632 4.08578e-21)
(0.999987 0.00151134 0)
(0.999283 0.00422534 0)
(0.997917 0.00676702 0)
(0.995974 0.0092434 0)
(0.993485 0.0117979 0)
(0.990497 0.0145395 0)
(0.987035 0.0175752 0)
(0.983137 0.0210032 0)
(0.978827 0.024914 0)
(0.974145 0.0293998 0)
(0.969119 0.0345449 0)
(0.963804 0.0404402 0)
(0.958234 0.0471687 0)
(0.952493 0.0548238 0)
(0.946627 0.0634889 0)
(0.940762 0.0732585 0)
(0.934955 0.0842119 0)
(0.929401 0.0964368 0)
(0.924153 0.109998 0)
(0.919513 0.124957 0)
(0.915485 0.141351 0)
(0.912571 0.15918 0)
(0.910572 0.178454 0)
(0.910443 0.199018 0)
(0.911341 0.220989 0)
(0.915423 0.243617 0)
(0.919934 0.268263 0)
(0.999988 0.00158598 0)
(0.999309 0.00445447 0)
(0.997988 0.00714652 0)
(0.996106 0.00977894 0)
(0.993699 0.0124916 0)
(0.990814 0.0153958 0)
(0.987479 0.0185974 0)
(0.983736 0.0221939 0)
(0.979613 0.0262745 0)
(0.975157 0.0309281 0)
(0.9704 0.0362363 0)
(0.965407 0.0422833 0)
(0.960219 0.0491476 0)
(0.954928 0.0569108 0)
(0.94959 0.0656489 0)
(0.944342 0.0754376 0)
(0.939247 0.0863463 0)
(0.934514 0.0984327 0)
(0.930194 0.111753 0)
(0.92661 0.12632 0)
(0.923739 0.142176 0)
(0.922121 0.15923 0)
(0.921471 0.177559 0)
(0.922837 0.196777 0)
(0.925153 0.217333 0)
(0.930844 0.237672 0)
(0.936457 0.260562 -1.3974e-28)
(0.999989 0.00166068 0)
(0.999337 0.00468374 0)
(0.998068 0.00752758 0)
(0.996257 0.0103174 0)
(0.993945 0.01319 0)
(0.991178 0.0162584 0)
(0.987987 0.0196279 0)
(0.984419 0.0233945 0)
(0.980504 0.0276466 0)
(0.976297 0.032469 0)
(0.971833 0.0379408 0)
(0.967186 0.044139 0)
(0.962399 0.051137 0)
(0.957578 0.059004 0)
(0.952777 0.0678081 0)
(0.948147 0.0776048 0)
(0.94375 0.0884533 0)
(0.939805 0.10038 0)
(0.936354 0.113431 0)
(0.933734 0.127571 0)
(0.931889 0.142847 0)
(0.931382 0.159075 0)
(0.931855 0.176408 0)
(0.934397 0.194233 0)
(0.937796 0.213308 0)
(0.944524 0.231457 0)
(0.950876 0.252316 0)
(0.99999 0.00173456 0)
(0.999366 0.00491 0)
(0.998152 0.00790357 0)
(0.99642 0.0108469 0)
(0.994211 0.0138748 0)
(0.991573 0.0171015 0)
(0.988539 0.0206315 0)
(0.985161 0.0245597 0)
(0.981471 0.0289729 0)
(0.97753 0.0339523 0)
(0.973378 0.0395737 0)
(0.969094 0.0459074 0)
(0.964727 0.0530211 0)
(0.960388 0.0609726 0)
(0.956135 0.0698214 0)
(0.952124 0.0796052 0)
(0.948416 0.0903722 0)
(0.945234 0.102121 0)
(0.94261 0.114891 0)
(0.940882 0.1286 0)
(0.939969 0.143306 0)
(0.940428 0.158745 0)
(0.941864 0.175133 0)
(0.945327 0.191698 0)
(0.949588 0.209398 0)
(0.956946 0.225751 0)
(0.963916 0.244766 0)
(0.99999 0.00180647 0)
(0.999396 0.00513006 0)
(0.998241 0.00826926 0)
(0.996592 0.0113608 0)
(0.994491 0.0145379 0)
(0.99199 0.0179152 0)
(0.989124 0.0215963 0)
(0.985945 0.0256741 0)
(0.982493 0.0302338 0)
(0.978831 0.0353523 0)
(0.975003 0.0411018 0)
(0.971094 0.0475451 0)
(0.967157 0.0547439 0)
(0.963306 0.0627445 0)
(0.959603 0.0715975 0)
(0.956206 0.0813232 0)
(0.953173 0.0919592 0)
(0.950726 0.103479 0)
(0.948887 0.115914 0)
(0.947984 0.129145 0)
(0.947921 0.143235 0)
(0.949222 0.157861 0)
(0.951489 0.173288 0)
(0.955676 0.188636 0)
(0.96063 0.204997 0)
(0.968373 0.219755 0)
(0.975823 0.237059 0)
(0.999991 0.00187603 0)
(0.999428 0.00534287 0)
(0.998333 0.00862301 0)
(0.99677 0.011857 0)
(0.994784 0.015177 0)
(0.992425 0.0186968 0)
(0.989732 0.0225191 0)
(0.986762 0.0267345 0)
(0.983555 0.0314256 0)
(0.980179 0.0366647 0)
(0.976684 0.0425198 0)
(0.973155 0.0490461 0)
(0.969652 0.0562984 0)
(0.966289 0.0643116 0)
(0.963131 0.073127 0)
(0.960333 0.0827483 0)
(0.957953 0.0932029 0)
(0.956204 0.104441 0)
(0.955103 0.116487 0)
(0.954954 0.129189 0)
(0.955659 0.142618 0)
(0.957687 0.156403 0)
(0.960663 0.170847 0)
(0.965416 0.185006 0)
(0.970911 0.20005 0)
(0.978875 0.213332 0)
(0.986632 0.229 0)
(0.999991 0.00194304 0)
(0.999461 0.00554785 0)
(0.998428 0.00896385 0)
(0.996954 0.0123344 0)
(0.995086 0.0157901 0)
(0.992874 0.0194441 0)
(0.990361 0.0233973 0)
(0.987603 0.0277376 0)
(0.984647 0.0325447 0)
(0.981563 0.0378859 0)
(0.978403 0.0438245 0)
(0.975257 0.0504076 0)
(0.972185 0.0576833 0)
(0.969304 0.0656748 0)
(0.966678 0.0744145 0)
(0.964459 0.0838901 0)
(0.962702 0.0941198 0)
(0.961609 0.105033 0)
(0.961191 0.116648 0)
(0.961724 0.128786 0)
(0.963111 0.141526 0)
(0.965761 0.154461 0)
(0.969331 0.167926 0)
(0.974521 0.180941 0)
(0.98042 0.194717 0)
(0.988477 0.206639 0)
(0.996392 0.220766 0)
(0.999992 0.00200726 0)
(0.999494 0.00574437 0)
(0.998525 0.00929063 0)
(0.997144 0.0127911 0)
(0.995396 0.0163752 0)
(0.993336 0.0201542 0)
(0.991005 0.0242275 0)
(0.988464 0.0286794 0)
(0.985762 0.0335867 0)
(0.982972 0.0390112 0)
(0.980147 0.045011 0)
(0.977381 0.0516254 0)
(0.974734 0.0588954 0)
(0.972323 0.0668328 0)
(0.970212 0.0754616 0)
(0.968546 0.0847545 0)
(0.967378 0.0947216 0)
(0.966892 0.105274 0)
(0.9671 0.116426 0)
(0.96824 0.127978 0)
(0.970227 0.140015 0)
(0.973401 0.152109 0)
(0.977456 0.164612 0)
(0.982973 0.176544 0)
(0.989157 0.189117 0)
(0.99721 0.1998 0)
(1.00517 0.212507 0)
(0.999993 0.00206846 0)
(0.999528 0.0059317 0)
(0.998625 0.00960211 0)
(0.997338 0.0132256 0)
(0.995714 0.0169299 0)
(0.993807 0.0208244 0)
(0.991662 0.0250063 0)
(0.989341 0.0295563 0)
(0.986894 0.0345475 0)
(0.984396 0.0400362 0)
(0.981906 0.0460753 0)
(0.979513 0.052696 0)
(0.977282 0.0599321 0)
(0.975326 0.0677849 0)
(0.973707 0.0762701 0)
(0.972563 0.0853473 0)
(0.971945 0.0950192 0)
(0.972016 0.105182 0)
(0.972789 0.115846 0)
(0.974466 0.126799 0)
(0.976967 0.138128 0)
(0.980575 0.149398 0)
(0.985017 0.160971 0)
(0.990765 0.171882 0)
(0.997134 0.183326 1.78903e-28)
(1.00511 0.192886 -1.87586e-28)
(1.01303 0.204296 0)
(0.999994 0.00212639 0)
(0.999564 0.00610914 0)
(0.998727 0.00989709 0)
(0.997536 0.013636 0)
(0.996038 0.0174521 0)
(0.994287 0.0214521 0)
(0.992329 0.0257308 0)
(0.990228 0.0303649 0)
(0.988037 0.0354238 0)
(0.98583 0.0409578 0)
(0.983668 0.0470145 0)
(0.981641 0.0536171 0)
(0.979813 0.0607927 0)
(0.978292 0.0685323 0)
(0.977142 0.0768444 0)
(0.976487 0.0856768 0)
(0.976376 0.095026 0)
(0.976953 0.104776 0)
(0.978228 0.114936 0)
(0.980371 0.125284 0)
(0.983309 0.135909 0)
(0.987267 0.14638 0)
(0.992006 0.157058 0)
(0.997903 0.167013 0)
(1.00437 0.177405 0)
(1.0122 0.185949 0)
(1.02002 0.196179 0)
(0.999994 0.00218082 0)
(0.999599 0.00627602 0)
(0.998831 0.0101744 0)
(0.997737 0.0140209 0)
(0.996366 0.0179398 0)
(0.994772 0.0220349 0)
(0.993003 0.0263983 0)
(0.991122 0.0311025 0)
(0.989185 0.0362127 0)
(0.987265 0.0417733 0)
(0.985426 0.0478266 0)
(0.983753 0.054388 0)
(0.982314 0.061478 0)
(0.981207 0.0690785 0)
(0.980497 0.0771911 0)
(0.980295 0.0857538 0)
(0.980648 0.0947579 0)
(0.981679 0.104079 0)
(0.983396 0.113724 0)
(0.985938 0.123467 0)
(0.989237 0.133401 0)
(0.99347 0.143101 0)
(0.998426 0.152927 0)
(1.0044 0.161992 0)
(1.0109 0.171409 0)
(1.01854 0.179034 0)
(1.0262 0.188196 0)
(0.999995 0.00223151 0)
(0.999636 0.00643166 0)
(0.998936 0.010433 0)
(0.997941 0.0143787 0)
(0.996698 0.0183911 0)
(0.995262 0.0225708 0)
(0.993681 0.0270065 0)
(0.992019 0.0317666 0)
(0.990332 0.0369119 0)
(0.988695 0.042481 0)
(0.987169 0.0485106 0)
(0.985839 0.0550089 0)
(0.98477 0.0619903 0)
(0.984055 0.0694282 0)
(0.983756 0.0773184 0)
(0.98397 0.0855907 0)
(0.984743 0.0942323 0)
(0.986177 0.103113 0)
(0.988277 0.112239 0)
(0.991154 0.121385 0)
(0.994745 0.130644 0)
(0.999184 0.139609 0)
(1.00429 0.148628 0)
(1.01028 0.156866 0)
(1.01674 0.165385 0)
(1.02416 0.172182 0)
(1.03162 0.180378 0)
(0.999996 0.00227826 0)
(0.999672 0.00657546 0)
(0.999041 0.0106717 0)
(0.998146 0.0147082 0)
(0.997032 0.0188044 0)
(0.995753 0.0230577 0)
(0.99436 0.0275534 0)
(0.992915 0.0323552 0)
(0.991475 0.0375196 0)
(0.990112 0.0430796 0)
(0.98889 0.0490663 0)
(0.987888 0.0554812 0)
(0.987171 0.0623329 0)
(0.986823 0.0695875 0)
(0.986904 0.0772358 0)
(0.987498 0.0852013 0)
(0.988647 0.0934677 0)
(0.990433 0.101903 0)
(0.992862 0.110511 0)
(0.996014 0.119072 0)
(0.999834 0.127679 0)
(1.00442 0.135944 0)
(1.00961 0.144205 0)
(1.01556 0.151679 7.62513e-29)
(1.02194 0.159374 -7.99676e-29)
(1.02911 0.165426 6.13419e-29)
(1.03634 0.172753 -6.43046e-29)
(0.999997 0.00232086 0)
(0.999709 0.00670683 0)
(0.999148 0.0108897 0)
(0.998351 0.0150078 0)
(0.997366 0.019178 0)
(0.996244 0.0234939 0)
(0.995037 0.0280371 0)
(0.993804 0.0328666 0)
(0.992606 0.0380347 0)
(0.99151 0.0435686 0)
(0.99058 0.0494943 0)
(0.989891 0.055807 0)
(0.989505 0.06251 0)
(0.9895 0.0695636 0)
(0.989929 0.0769537 0)
(0.990866 0.0845998 0)
(0.992348 0.092483 0)
(0.99444 0.100471 0)
(0.997143 0.108567 0)
(1.00052 0.116561 0)
(1.00451 0.124542 0)
(1.00918 0.132145 0)
(1.01441 0.139697 0)
(1.02028 0.146468 0)
(1.02655 0.153409 0)
(1.03344 0.158792 0)
(1.04041 0.165339 0)
(0.999998 0.00235912 0)
(0.999746 0.00682523 0)
(0.999254 0.011086 0)
(0.998557 0.0152766 0)
(0.997699 0.0195107 0)
(0.996733 0.0238779 0)
(0.995708 0.0284561 0)
(0.994684 0.0332998 0)
(0.99372 0.0384565 0)
(0.992882 0.0439481 0)
(0.992231 0.049796 0)
(0.991839 0.0559895 0)
(0.991763 0.0625272 0)
(0.992073 0.0693645 0)
(0.99282 0.0764836 0)
(0.994064 0.0838016 0)
(0.995837 0.0912976 0)
(0.99819 0.0988412 0)
(1.00112 0.106436 0)
(1.00466 0.113882 0)
(1.00878 0.121265 0)
(1.0135 0.128247 0)
(1.01871 0.135139 0)
(1.02448 0.141264 0)
(1.03059 0.147518 0)
(1.03719 0.152303 0)
(1.0439 0.15815 -5.63412e-29)
(0.999998 0.00239287 0)
(0.999783 0.00693018 0)
(0.999359 0.0112599 0)
(0.998761 0.0155134 0)
(0.99803 0.0198012 0)
(0.997217 0.0242086 0)
(0.996371 0.0288095 0)
(0.995551 0.0336538 0)
(0.994813 0.0387847 0)
(0.994222 0.0442191 0)
(0.993837 0.0499735 0)
(0.993723 0.0560325 0)
(0.993935 0.0623905 0)
(0.994535 0.0689991 0)
(0.995568 0.0758375 0)
(0.997084 0.082822 0)
(0.999109 0.0899304 0)
(1.00168 0.0970364 0)
(1.00479 0.104144 0)
(1.00846 0.111063 0)
(1.01266 0.117881 0)
(1.01738 0.12428 0)
(1.02254 0.13056 0)
(1.02817 0.136095 0)
(1.0341 0.141725 0)
(1.04042 0.145974 0)
(1.04685 0.151194 0)
(0.999999 0.00242196 0)
(0.999819 0.00702123 0)
(0.999464 0.0114106 0)
(0.998962 0.0157175 0)
(0.998356 0.0200485 0)
(0.997693 0.0244849 0)
(0.997022 0.0290964 0)
(0.996399 0.0339285 0)
(0.99588 0.0390199 -1.0205e-27)
(0.995525 0.0443829 1.07184e-27)
(0.99539 0.0500297 0)
(0.995536 0.0559408 0)
(0.996014 0.0621068 0)
(0.996877 0.0684769 0)
(0.998165 0.0750279 0)
(0.999919 0.0816766 0)
(1.00216 0.0884004 0)
(1.00491 0.0950782 0)
(1.00816 0.101715 0)
(1.01192 0.108132 0)
(1.01615 0.114415 0)
(1.02085 0.120272 0)
(1.02593 0.125986 0)
(1.0314 0.130982 0)
(1.03714 0.136046 0)
(1.04316 0.139819 0)
(1.0493 0.144478 0)
(1 0.00244625 0)
(0.999855 0.00709803 0)
(0.999567 0.0115376 0)
(0.999161 0.015888 0)
(0.998677 0.0202519 0)
(0.99816 0.0247062 0)
(0.997659 0.0293166 0)
(0.997226 0.034124 0)
(0.996915 0.0391629 0)
(0.996783 0.0444416 0)
(0.996884 0.049968 0)
(0.997271 0.0557196 0)
(0.997992 0.0616836 0)
(0.999093 0.0678078 0)
(1.00061 0.0740675 0)
(1.00257 0.080381 0)
(1.00498 0.086726 0)
(1.00788 0.0929875 0)
(1.01123 0.0991712 0)
(1.01505 0.105112 0)
(1.01928 0.110893 0)
(1.02392 0.116246 0)
(1.0289 0.12144 0)
(1.03419 0.125946 0)
(1.03973 0.130497 0)
(1.04546 0.133844 0)
(1.05132 0.138003 0)
(1 0.00246566 0)
(0.99989 0.00716026 0)
(0.999668 0.0116404 0)
(0.999356 0.0160245 0)
(0.998991 0.0204108 0)
(0.998616 0.0248722 0)
(0.998278 0.0294699 0)
(0.998027 0.0342408 0)
(0.997915 0.0392152 0)
(0.997993 0.0443977 0)
(0.998313 0.0497926 0)
(0.998923 0.0553747 0)
(0.999864 0.0611289 0)
(1.00118 0.0670022 0)
(1.00289 0.0729691 0)
(1.00502 0.0789505 0)
(1.00759 0.0849248 0)
(1.01059 0.0907841 0)
(1.01402 0.0965351 0)
(1.01785 0.102026 0)
(1.02206 0.107337 0)
(1.02662 0.112223 0)
(1.03148 0.116939 0)
(1.03659 0.120999 0)
(1.0419 0.125089 0)
(1.04735 0.128057 0)
(1.05293 0.131769 0)
(1 0.00248008 0)
(0.999925 0.00720771 0)
(0.999766 0.0117187 0)
(0.999546 0.0161265 0)
(0.999296 0.0205251 0)
(0.999059 0.0249828 0)
(0.998878 0.0295569 0)
(0.9988 0.03428 0)
(0.998875 0.0391788 0)
(0.99915 0.0442543 0)
(0.999673 0.049508 0)
(1.00049 0.0549126 0)
(1.00162 0.060451 0)
(1.00312 0.0660706 0)
(1.005 0.0717455 0)
(1.00728 0.0774001 0)
(1.00997 0.0830139 0)
(1.01305 0.0884864 0)
(1.01652 0.0938258 0)
(1.02035 0.0988927 0)
(1.02452 0.103766 0)
(1.02897 0.108221 0)
(1.03369 0.112499 0)
(1.03861 0.116156 0)
(1.0437 0.119828 0)
(1.04887 0.122459 0)
(1.05417 0.125773 0)
(1 0.00248947 0)
(0.999958 0.00724021 0)
(0.999862 0.0117722 0)
(0.99973 0.0161939 0)
(0.999592 0.0205945 0)
(0.999486 0.0250383 0)
(0.999455 0.0295781 0)
(0.999541 0.034243 0)
(0.999792 0.0390559 0)
(1.00025 0.0440151 5.36866e-28)
(1.00096 0.0491194 -5.63849e-28)
(1.00195 0.05434 0)
(1.00327 0.0596586 0)
(1.00493 0.0650236 0)
(1.00696 0.0704094 0)
(1.00935 0.0757442 0)
(1.01213 0.0810093 0)
(1.01526 0.0861118 0)
(1.01875 0.0910612 0)
(1.02255 0.0957306 0)
(1.02665 0.100197 0)
(1.031 0.104255 0)
(1.03557 0.108133 0)
(1.04028 0.111424 0)
(1.04516 0.114721 -4.72641e-29)
(1.05005 0.117052 4.95571e-29)
(1.05508 0.120011 0)
(1 0.00249379 0)
(0.999991 0.00725769 0)
(0.999955 0.0118009 0)
(0.999907 0.0162266 0)
(0.999876 0.0206195 0)
(0.999896 0.0250393 0)
(1.00001 0.0295348 0)
(1.00025 0.0341317 0)
(1.00066 0.0388495 0)
(1.00129 0.0436842 0)
(1.00217 0.048632 0)
(1.00333 0.0536639 0)
(1.0048 0.0587605 0)
(1.0066 0.0638718 0)
(1.00875 0.068973 0)
(1.01124 0.0739968 0)
(1.01407 0.0789262 0)
(1.01724 0.0836761 0)
(1.02072 0.0882575 0)
(1.02447 0.0925552 0)
(1.02849 0.0966437 0)
(1.03271 0.100338 0)
(1.03712 0.10385 0)
(1.04164 0.106811 0)
(1.04629 0.10977 0)
(1.05092 0.111835 0)
(1.0557 0.114477 0)
(1 0.00249305 0)
(1.00002 0.00726014 0)
(1.00004 0.0118049 0)
(1.00008 0.016225 0)
(1.00015 0.0206003 0)
(1.00029 0.0249865 0)
(1.00053 0.0294283 0)
(1.00092 0.0339482 0)
(1.00148 0.0385627 0)
(1.00226 0.0432657 0)
(1.0033 0.0480519 0)
(1.0046 0.0528917 0)
(1.00621 0.0577656 0)
(1.00813 0.0626258 0)
(1.01037 0.0674485 0)
(1.01293 0.0721711 0)
(1.01581 0.0767789 0)
(1.01898 0.0811941 0)
(1.02244 0.0854293 0)
(1.02613 0.0893806 0)
(1.03005 0.09312 0)
(1.03413 0.0964795 0)
(1.03839 0.09966 0)
(1.0427 0.102322 0)
(1.04714 0.104977 0)
(1.05151 0.106806 3.41417e-29)
(1.05604 0.109166 -3.579e-29)
(1 0.00248727 0)
(1.00005 0.00724767 0)
(1.00013 0.0117843 0)
(1.00024 0.0161892 0)
(1.00041 0.0205376 0)
(1.00066 0.0248811 0)
(1.00103 0.0292605 0)
(1.00155 0.0336952 0)
(1.00225 0.0381991 0)
(1.00317 0.0427646 0)
(1.00434 0.0473849 0)
(1.00578 0.0520308 0)
(1.0075 0.0566829 -6.77869e-28)
(1.00951 0.0612958 7.11818e-28)
(1.01183 0.0658473 0)
(1.01444 0.0702798 0)
(1.01734 0.0745805 0)
(1.02051 0.0786791 0)
(1.02392 0.0825898 0)
(1.02754 0.086219 0)
(1.03135 0.0896363 0)
(1.03529 0.0926897 0)
(1.03938 0.0955678 0)
(1.0435 0.0979612 -2.17184e-29)
(1.04772 0.100343 2.27766e-29)
(1.05186 0.101962 0)
(1.05614 0.10407 0)
(1 0.00247651 0)
(1.00008 0.00722043 0)
(1.00021 0.0117394 0)
(1.00039 0.01612 0)
(1.00065 0.0204325 0)
(1.00101 0.0247245 0)
(1.00149 0.0290333 0)
(1.00214 0.0333755 0)
(1.00297 0.0377626 0)
(1.00402 0.0421858 0)
(1.0053 0.0466373 0)
(1.00685 0.0510888 0)
(1.00867 0.0555212 0)
(1.01076 0.0598919 0)
(1.01314 0.0641806 0)
(1.01578 0.0683345 0)
(1.01868 0.0723432 0)
(1.02182 0.0761435 0)
(1.02517 0.0797507 0)
(1.02871 0.083081 0)
(1.0324 0.0862017 0)
(1.0362 0.0889754 0)
(1.04012 0.0915788 0)
(1.04405 0.0937297 0)
(1.04807 0.0958664 0)
(1.05197 0.0972988 0)
(1.05602 0.0991824 -3.53399e-29)
(1.00001 0.00246085 0)
(1.00011 0.00717867 0)
(1.00028 0.0116707 0)
(1.00054 0.016018 0)
(1.00088 0.020286 0)
(1.00134 0.0245185 0)
(1.00193 0.0287491 0)
(1.00268 0.0329923 0)
(1.00363 0.0372573 0)
(1.00479 0.0415345 0)
(1.00618 0.0458156 0)
(1.00782 0.0500731 0)
(1.00972 0.0542891 0)
(1.01187 0.0584238 0)
(1.01429 0.0624588 0)
(1.01694 0.0663463 0)
(1.01984 0.0700782 0)
(1.02293 0.0735981 0)
(1.02622 0.0769222 0)
(1.02966 0.079976 0)
(1.03323 0.0828239 0)
(1.03689 0.0853423 0)
(1.04063 0.0876964 0)
(1.04437 0.0896288 0)
(1.04819 0.0915452 0)
(1.05187 0.0928124 0)
(1.05571 0.0944955 0)
(1.00001 0.00244039 0)
(1.00013 0.00712272 0)
(1.00035 0.0115788 0)
(1.00067 0.0158842 0)
(1.00109 0.0200995 0)
(1.00164 0.0242648 0)
(1.00233 0.0284106 0)
(1.00319 0.032549 0)
(1.00423 0.0366875 0)
(1.00549 0.0408161 0)
(1.00697 0.044926 0)
(1.00869 0.0489914 0)
(1.01065 0.0529951 0)
(1.01285 0.0569007 0)
(1.01529 0.0606919 0)
(1.01794 0.0643256 0)
(1.02081 0.067796 0)
(1.02385 0.0710528 0)
(1.02707 0.0741136 0)
(1.0304 0.0769117 0)
(1.03385 0.0795093 0)
(1.03736 0.0817949 0)
(1.04094 0.0839228 0)
(1.04449 0.0856586 0)
(1.04812 0.0873772 0)
(1.05159 0.0884977 0)
(1.05521 0.0900018 0)
(1.00001 0.00241528 0)
(1.00015 0.00705298 0)
(1.00042 0.0114644 0)
(1.0008 0.0157196 0)
(1.00129 0.0198745 0)
(1.00192 0.0239657 0)
(1.0027 0.0280205 0)
(1.00365 0.0320492 0)
(1.00478 0.0360577 0)
(1.00612 0.040036 0)
(1.00768 0.0439752 0)
(1.00946 0.0478509 0)
(1.01147 0.0516475 0)
(1.0137 0.0553317 0)
(1.01615 0.0588893 -6.56935e-28)
(1.01879 0.0622819 6.89736e-28)
(1.02162 0.0655057 0)
(1.0246 0.0685166 0)
(1.02772 0.0713326 0)
(1.03095 0.0738951 0)
(1.03428 0.0762631 0)
(1.03763 0.0783366 0)
(1.04105 0.0802596 0)
(1.04443 0.0818183 0)
(1.04787 0.0833593 0)
(1.05114 0.0843495 0)
(1.05457 0.0856937 0)
(1.00001 0.00238568 0)
(1.00018 0.00696995 0)
(1.00048 0.0113283 0)
(1.00091 0.0155255 0)
(1.00147 0.0196128 0)
(1.00217 0.0236234 0)
(1.00303 0.0275818 0)
(1.00406 0.0314967 0)
(1.00528 0.0353727 0)
(1.00669 0.0391998 0)
(1.00831 0.0429694 0)
(1.01014 0.0466589 0)
(1.01218 0.0502541 0)
(1.01443 0.053725 0)
(1.01687 0.0570595 0)
(1.01948 0.0602237 0)
(1.02226 0.0632158 0)
(1.02518 0.0659971 0)
(1.02821 0.0685864 0)
(1.03133 0.0709316 0)
(1.03452 0.0730895 0)
(1.03773 0.07497 0)
(1.04099 0.0767073 0)
(1.0442 0.0781067 0)
(1.04746 0.0794882 0)
(1.05054 0.0803627 0)
(1.05378 0.0815637 0)
(1.00001 0.00235177 0)
(1.00019 0.00687415 0)
(1.00054 0.0111716 0)
(1.00102 0.0153033 0)
(1.00164 0.0193162 0)
(1.0024 0.0232405 0)
(1.00333 0.0270978 0)
(1.00443 0.0308955 0)
(1.00571 0.0346371 0)
(1.00719 0.038313 0)
(1.00886 0.041915 0)
(1.01072 0.0454224 0)
(1.01279 0.0488225 0)
(1.01503 0.0520887 0)
(1.01746 0.0552108 0)
(1.02004 0.0581593 0)
(1.02276 0.060934 0)
(1.0256 0.0635014 0)
(1.02854 0.0658807 0)
(1.03154 0.0680262 0)
(1.0346 0.0699918 0)
(1.03767 0.0716967 0)
(1.04078 0.0732659 0)
(1.04382 0.0745218 0)
(1.0469 0.07576 2.73657e-29)
(1.04981 0.0765318 -2.8693e-29)
(1.05287 0.0776047 0)
(1.00001 0.00231375 0)
(1.00021 0.00676621 0)
(1.00058 0.0109951 0)
(1.00111 0.0150544 0)
(1.00178 0.0189869 0)
(1.00261 0.0228195 0)
(1.0036 0.0265717 0)
(1.00476 0.0302496 0)
(1.00609 0.0338557 0)
(1.00762 0.0373811 0)
(1.00932 0.0408182 0)
(1.01121 0.0441482 0)
(1.01329 0.0473601 0)
(1.01552 0.0504302 0)
(1.01792 0.0533507 0)
(1.02046 0.0560957 0)
(1.02312 0.058667 0)
(1.02587 0.0610355 0)
(1.02871 0.0632207 0)
(1.0316 0.0651826 0)
(1.03454 0.0669725 0)
(1.03746 0.0685177 0)
(1.04042 0.0699347 0)
(1.0433 0.0710616 0)
(1.04622 0.072171 0)
(1.04896 0.0728515 0)
(1.05185 0.0738096 0)
(1.00001 0.00227187 0)
(1.00023 0.00664681 0)
(1.00063 0.0108 0)
(1.00119 0.0147805 0)
(1.00191 0.0186269 0)
(1.00279 0.0223634 0)
(1.00383 0.0260071 0)
(1.00504 0.029563 0)
(1.00642 0.0330334 0)
(1.00798 0.0364097 0)
(1.00971 0.039685 0)
(1.01162 0.0428428 0)
(1.01369 0.0458735 0)
(1.01591 0.0487565 0)
(1.01827 0.051486 0)
(1.02076 0.0540397 0)
(1.02335 0.0564209 0)
(1.02601 0.0586047 0)
(1.02875 0.0606107 0)
(1.03153 0.0624041 0)
(1.03434 0.0640334 0)
(1.03713 0.0654336 0)
(1.03994 0.0667127 0)
(1.04267 0.0677234 0)
(1.04543 0.0687171 0)
(1.04801 0.0693164 3.55584e-29)