/*--------------------------------*- C++ -*----------------------------------*\
  =========                 |
  \\      /  F ield         | OpenFOAM: The Open Source CFD Toolbox
   \\    /   O peration     | Website:  https://openfoam.org
    \\  /    A nd           | Version:  7
     \\/     M anipulation  |
\*---------------------------------------------------------------------------*/
FoamFile
{
    version     2.0;
    format      ascii;
    class       surfaceScalarField;
    location    "280";
    object      phi;
}
// * * * * * * * * * * * * * * * * * * * * * * * * * * * * * * * * * * * * * //

dimensions      [0 3 -1 0 0 0 0];

internalField   nonuniform List<scalar> 
8923
(
0.000698094
-0.00166356
0.00147198
0.000877293
-0.00457738
0.00439818
0.00103016
-0.00695638
0.00680351
0.00114186
-0.00850636
0.00839466
0.00120772
-0.00928753
0.00922167
0.00123351
-0.00953724
0.00951144
0.00122398
-0.00948652
0.00949606
0.00117147
-0.00941172
0.00946422
0.00108082
-0.0095259
0.00961655
0.00100164
-0.00946558
0.00954477
0.00099874
-0.00826371
0.00826661
0.00108764
-0.0053566
0.0052677
0.00123219
-0.0013167
0.00117214
0.00138731
0.00271822
-0.00287334
0.00151938
0.00589257
-0.00602463
0.00160955
0.00794467
-0.00803483
0.00165626
0.00906683
-0.00911354
0.00167169
0.00953329
-0.00954872
0.00166301
0.00960382
-0.00959515
0.00162237
0.00970515
-0.00966451
0.0015461
0.0101517
-0.0100755
0.00145698
0.0105135
-0.0104244
0.00971741
-0.00965316
0.000741731
-0.0018442
0.000909403
-0.00474505
0.00105094
-0.00709791
0.00115253
-0.00860795
0.00121009
-0.00934509
0.00122946
-0.00955661
0.00121589
-0.00947295
0.00116149
-0.00935731
0.00106839
-0.0094328
0.000984175
-0.00938137
0.000976257
-0.00825579
0.00106436
-0.0054447
0.00121275
-0.00146508
0.00137427
0.00255671
0.00151325
0.00575359
0.00160959
0.00784833
0.00166149
0.00901493
0.00168107
0.00951371
0.00167532
0.00960956
0.00163671
0.00974376
0.00156227
0.0102262
0.00147456
0.0106012
0.00978213
0.000785005
-0.00201367
0.000941039
-0.00490109
0.0010712
-0.00722807
0.00116271
-0.00869946
0.00121211
-0.00939448
0.00122523
-0.00956973
0.00120778
-0.00945551
0.00115176
-0.00930128
0.00105668
-0.00933773
0.00096769
-0.00929237
0.000954476
-0.00824257
0.00104124
-0.00553146
0.00119302
-0.00161686
0.00136066
0.00238906
0.00150644
0.00560781
0.00160898
0.00774579
0.00166618
0.00895773
0.00169003
0.00948986
0.00168736
0.00961223
0.00165097
0.00978015
0.00157855
0.0102986
0.00149233
0.0106874
0.0098474
0.000827756
-0.00217179
0.000972114
-0.00504544
0.00109091
-0.00734687
0.00117239
-0.00878095
0.00121377
-0.00943586
0.00122083
-0.00957678
0.00119965
-0.00943433
0.00114228
-0.00924391
0.00104568
-0.00924113
0.000952221
-0.00919891
0.000933468
-0.00822382
0.00101831
-0.00561631
0.00117302
-0.00177157
0.0013465
0.00221557
0.00149895
0.00545536
0.00160771
0.00763703
0.00167031
0.00889513
0.00169856
0.00946161
0.0016991
0.00961169
0.00166513
0.00981412
0.00159492
0.0103688
0.00151025
0.0107721
0.00991333
0.000869829
-0.00231852
0.00100254
-0.00517816
0.00111002
-0.00745434
0.00118155
-0.00885249
0.00121508
-0.0094694
0.00121627
-0.00957797
0.00119151
-0.00940958
0.00113304
-0.00918543
0.00103538
-0.00914348
0.000937797
-0.00910133
0.000913302
-0.00819933
0.000995652
-0.00569866
0.00115278
-0.0019287
0.0013318
0.00203655
0.00149077
0.00529638
0.00160576
0.00752205
0.00167386
0.00882703
0.00170662
0.00942885
0.00171052
0.00960779
0.00167916
0.00984549
0.00161136
0.0104366
0.00152831
0.0108551
0.00998
0.00091108
-0.00245393
0.00103225
-0.00529933
0.00112849
-0.00755058
0.00119018
-0.00891417
0.00121603
-0.00949524
0.00121155
-0.00957349
0.00118336
-0.00938139
0.00112401
-0.00912608
0.00102576
-0.00904522
0.000924434
-0.00900001
0.00089404
-0.00816893
0.000973312
-0.00577793
0.00113234
-0.00208772
0.00131655
0.00185234
0.00148189
0.00513104
0.0016031
0.00740084
0.00167679
0.00875334
0.00171418
0.00939145
0.00172158
0.00960039
0.00169303
0.00987405
0.00162783
0.0105018
0.00154647
0.0109365
0.0100475
0.000951372
-0.00257814
0.00106116
-0.00540911
0.0011463
-0.00763572
0.00119826
-0.00896613
0.00121661
-0.00951359
0.00120668
-0.00956357
0.00117521
-0.00934992
0.00111518
-0.00906606
0.00101677
-0.00894681
0.000912139
-0.00889537
0.000875739
-0.00813253
0.000951351
-0.00585354
0.00111171
-0.00224808
0.00130076
0.00166329
0.00147229
0.00495951
0.00159971
0.00727342
0.00167908
0.00867397
0.00172122
0.0093493
0.00173227
0.00958935
0.00170671
0.00989961
0.00164431
0.0105642
0.00156471
0.0110161
0.0101158
0.00099058
-0.00269142
0.00108919
-0.00550772
0.0011634
-0.00770993
0.00120578
-0.00900851
0.00121681
-0.00952462
0.00120165
-0.00954841
0.00116704
-0.0093153
0.00110653
-0.00900555
0.00100839
-0.00884867
0.000900908
-0.00878789
0.000858449
-0.00809007
0.000929826
-0.00592492
0.00109093
-0.00240919
0.00128442
0.0014698
0.00146195
0.00478198
0.00159557
0.00713981
0.00168069
0.00858884
0.0017277
0.0093023
0.00174254
0.00957451
0.00172018
0.00992196
0.00166076
0.0106236
0.00158299
0.0110939
0.0101851
0.00102859
-0.00279407
0.00111629
-0.00559543
0.00117975
-0.00777338
0.00121272
-0.00904148
0.00121663
-0.00952853
0.00119647
-0.00952826
0.00115886
-0.00927769
0.00109802
-0.00894471
0.00100056
-0.00875121
0.000890723
-0.00867806
0.000842216
-0.00804157
0.000908792
-0.00599149
0.00107003
-0.00257043
0.00126756
0.00127228
0.00145088
0.00459866
0.00159066
0.00700002
0.00168162
0.00849789
0.00173359
0.00925032
0.00175236
0.00955574
0.0017334
0.00994093
0.00167714
0.0106799
0.00160129
0.0111697
0.0102552
0.0010653
-0.00288651
0.0011424
-0.00567253
0.00119532
-0.0078263
0.00121906
-0.00906523
0.00121605
-0.00952551
0.00119111
-0.00950332
0.00115065
-0.00923723
0.00108962
-0.00888367
0.00099323
-0.00865482
0.000881556
-0.00856639
0.000827073
-0.00798708
0.000888306
-0.00605273
0.00104903
-0.00273116
0.00125016
0.00107116
0.00143905
0.00440976
0.00158497
0.00685411
0.00168181
0.00840105
0.00173885
0.00919328
0.0017617
0.00953289
0.00174632
0.0099563
0.00169342
0.0107328
0.00161958
0.0112436
0.0103264
0.00110062
-0.00296921
0.00116746
-0.00573937
0.00121008
-0.00786893
0.0012248
-0.00907994
0.00121507
-0.00951578
0.00118558
-0.00947384
0.00114242
-0.00919407
0.00108131
-0.00882256
0.000986342
-0.00855985
0.00087337
-0.00845341
0.000813049
-0.00792676
0.000868423
-0.0061081
0.00102797
-0.00289071
0.00123223
0.000866899
0.00142646
0.00421553
0.00157845
0.00670212
0.00168125
0.00829825
0.00174346
0.00913106
0.00177053
0.00950583
0.00175893
0.0099679
0.00170955
0.0107822
0.00163781
0.0113153
0.00156574
0.0103984
0.0074205
0.00113448
-0.0030427
0.00119141
-0.0057963
0.00122399
-0.00790151
0.0012299
-0.00908585
0.00121366
-0.00949954
0.00117986
-0.00944004
0.00113414
-0.00914835
0.00107304
-0.00876146
0.000979833
-0.00846664
0.000866114
-0.00833969
0.000800161
-0.00786081
0.000849198
-0.00615714
0.00100688
-0.00304838
0.00121378
0.000659989
0.0014131
0.00401621
0.00157111
0.00654412
0.0016799
0.00818947
0.00174737
0.00906359
0.0017788
0.00947441
0.00177117
0.00997553
0.0017255
0.0108278
0.00165595
0.0113849
0.00158295
0.0104714
0.00747892
0.00116681
-0.00310756
0.00121423
-0.00584373
0.00123703
-0.00792431
0.00123436
-0.00908318
0.00121182
-0.009477
0.00117394
-0.00940215
0.00112582
-0.00910023
0.0010648
-0.00870045
0.000973635
-0.00837548
0.000859727
-0.00822579
0.000788418
-0.0077895
0.000830686
-0.00619941
0.000985781
-0.00320348
0.00119483
0.000450943
0.00139896
0.00381207
0.00156291
0.00638018
0.00167773
0.00807464
0.00175056
0.00899075
0.00178647
0.0094385
0.00178299
0.00997901
0.00174121
0.0108696
0.00167398
0.0114521
0.00160008
0.0105453
0.00754162
0.00119757
-0.0031644
0.00123587
-0.00588204
0.00124917
-0.0079376
0.00123816
-0.00907218
0.00120954
-0.00944838
0.00116779
-0.0093604
0.00111742
-0.00904986
0.00105655
-0.00863957
0.000967678
-0.00828661
0.000854139
-0.00811225
0.000777815
-0.00771318
0.00081294
-0.00623453
0.000964728
-0.00335527
0.00117537
0.000240301
0.00138404
0.0036034
0.00155383
0.00621038
0.00167472
0.00795376
0.00175298
0.00891249
0.00179352
0.00939796
0.00179437
0.00997815
0.00175665
0.0109073
0.00169184
0.0115169
0.0016171
0.0106201
0.00760863
0.00122672
-0.00321387
0.0012563
-0.00591162
0.00126037
-0.00794167
0.00124128
-0.0090531
0.0012068
-0.00941389
0.00116141
-0.00931501
0.00110894
-0.00899739
0.00104824
-0.00857887
0.000961892
-0.00820026
0.000849272
-0.00799963
0.00076834
-0.00763225
0.00079601
-0.0062622
0.00094376
-0.00350302
0.00115543
2.86327e-05
0.00136832
0.00339051
0.00154387
0.00603484
0.00167083
0.0078268
0.00175461
0.00882871
0.00179989
0.00935268
0.00180525
0.00997279
0.00177177
0.0109408
0.0017095
0.0115792
0.00163397
0.0106956
0.00767994
0.00125424
-0.00325661
0.0012755
-0.00593287
0.00127061
-0.00793678
0.00124371
-0.00902619
0.00120358
-0.00937376
0.00115477
-0.0092662
0.00110036
-0.00894298
0.00103987
-0.00851838
0.000956205
-0.0081166
0.00084504
-0.00788846
0.000759967
-0.00754717
0.000779948
-0.00628218
0.00092293
-0.003646
0.00113502
-0.000183454
0.00135181
0.00317371
0.00153299
0.00585366
0.00166604
0.00769375
0.0017554
0.00873935
0.00180555
0.00930253
0.00181559
0.00996274
0.00178652
0.0109699
0.00172692
0.0116388
0.00165069
0.0107718
0.00775554
0.00128013
-0.00329327
0.00129343
-0.00594617
0.00127987
-0.00792323
0.00124542
-0.00899174
0.00119987
-0.00932821
0.00114785
-0.00921418
0.00109167
-0.0088868
0.00103138
-0.00845809
0.000950547
-0.00803576
0.000841349
-0.00777926
0.000752657
-0.00745848
0.000764797
-0.00629432
0.000902292
-0.00378349
0.00111415
-0.00039531
0.00133451
0.00295335
0.0015212
0.00566697
0.00166032
0.00755462
0.00175531
0.00864436
0.00181045
0.00924739
0.00182533
0.00994786
0.00180084
0.0109944
0.00174406
0.0116956
0.00166721
0.0108487
0.00783539
0.00130437
-0.00332447
0.00131007
-0.00595188
0.00128813
-0.00790129
0.00124641
-0.00895002
0.00119566
-0.00927747
0.00114063
-0.00915914
0.00108283
-0.008829
0.00102276
-0.00839802
0.000944847
-0.00795785
0.000838104
-0.00767252
0.00074636
-0.00736674
0.000750594
-0.00629856
0.000881892
-0.00391479
0.00109286
-0.000606276
0.00131641
0.0027298
0.00150846
0.00547492
0.00165365
0.00740944
0.00175433
0.00854369
0.00181456
0.00918716
0.00183444
0.00992798
0.00181469
0.0110141
0.00176087
0.0117494
0.00168352
0.010926
0.00791946
0.00132697
-0.00335078
0.00132542
-0.00595032
0.00129536
-0.00787124
0.00124665
-0.0089013
0.00119094
-0.00922176
0.00113309
-0.00910129
0.00107383
-0.00876974
0.00101398
-0.00833817
0.00093904
-0.00788291
0.000835203
-0.00756868
0.000741015
-0.00727255
0.000737371
-0.00629491
0.000861781
-0.0040392
0.00107119
-0.000815682
0.00129753
0.00250345
0.00149478
0.00527767
0.00164599
0.00725822
0.0017524
0.00843728
0.00181783
0.00912173
0.00184286
0.00990294
0.00182802
0.011029
0.00177732
0.0118001
0.00169959
0.0110038
0.00800769
0.00134795
-0.00337275
0.00133945
-0.00594182
0.00130155
-0.00783334
0.00124613
-0.00884588
0.00118569
-0.00916132
0.00112521
-0.00904082
0.00106466
-0.00870919
0.00100501
-0.00827852
0.000933059
-0.00781096
0.000832544
-0.00746817
0.000736549
-0.00717655
0.000725149
-0.00628351
0.000842042
-0.00415609
0.00104917
-0.00102281
0.00127789
0.00227474
0.00148015
0.00507541
0.00163734
0.00710103
0.0017495
0.00832512
0.00182022
0.00905101
0.00185055
0.00987262
0.00184078
0.0110387
0.00179336
0.0118475
0.00171538
0.0110817
0.00809999
0.00136734
-0.00339084
0.00135215
-0.00592662
0.00130667
-0.00778786
0.00124484
-0.00878405
0.0011799
-0.00909638
0.00111697
-0.00897789
0.00105528
-0.00864749
0.000995825
-0.00821906
0.000926846
-0.00774198
0.000830024
-0.00737135
0.000732877
-0.00707941
0.000713941
-0.00626458
0.000822759
-0.00426491
0.00102686
-0.00122691
0.00125749
0.00204411
0.00146455
0.00486834
0.00162766
0.00693793
0.0017456
0.00820718
0.00182169
0.00897492
0.00185744
0.00983686
0.00185292
0.0110432
0.00180895
0.0118915
0.00173087
0.0111598
0.00819629
0.00138515
-0.00340544
0.0013635
-0.00590497
0.00131071
-0.00773507
0.00124276
-0.00871611
0.00117355
-0.00902718
0.00110835
-0.00891268
0.00104567
-0.00858482
0.00098641
-0.0081598
0.000920343
-0.00767592
0.000827539
-0.00727854
0.000729905
-0.00698177
0.000703748
-0.00623842
0.000804006
-0.00436517
0.00100431
-0.00142721
0.00123636
0.00181206
0.001448
0.00465671
0.00161694
0.00676899
0.00174066
0.00808346
0.0018222
0.00889338
0.00186351
0.00979556
0.00186437
0.0110424
0.00182403
0.0119318
0.00174603
0.0112378
0.00829646
0.00140142
-0.00341684
0.0013735
-0.00587704
0.00131365
-0.00767522
0.00123988
-0.00864234
0.00116665
-0.00895394
0.00109932
-0.00884535
0.00103581
-0.00852131
0.00097674
-0.00810073
0.000913498
-0.00761268
0.000824989
-0.00719003
0.000727533
-0.00688432
0.000694558
-0.00620545
0.000785858
-0.00445647
0.000981602
-0.00162296
0.00121454
0.00157912
0.00143049
0.00444075
0.00160517
0.00659431
0.00173466
0.00795397
0.00182172
0.00880632
0.00186869
0.00974859
0.0018751
0.011036
0.00183858
0.0119683
0.00176082
0.0113156
0.00840041
0.00141617
-0.00342526
0.00138213
-0.005843
0.00131548
-0.00760858
0.0012362
-0.00856306
0.00115917
-0.00887692
0.00108987
-0.00877604
0.00102567
-0.00845712
0.000966798
-0.00804185
0.000906264
-0.00755214
0.000822275
-0.00710604
0.000725653
-0.0067877
0.000686343
-0.00616614
0.000768386
-0.00453851
0.000958803
-0.00181338
0.00119206
0.00134587
0.00141203
0.00422077
0.00159232
0.00641402
0.00172758
0.00781872
0.0018202
0.0087137
0.00187294
0.00969586
0.00188505
0.0110238
0.00185254
0.0120009
0.00177522
0.0113929
0.00850798
0.00142944
0.00138938
-0.00580294
0.00131619
-0.00753539
0.00123169
-0.00847856
0.00115111
-0.00879633
0.00107997
-0.0087049
0.00101523
-0.00839238
0.000956564
-0.00798318
0.000898599
-0.00749418
0.000819302
-0.00702674
0.000724153
-0.00669255
0.000679062
-0.00612104
0.000751654
-0.0046111
0.000936003
-0.00199773
0.00116896
0.00111291
0.00139264
0.00399709
0.00157841
0.00622826
0.00171938
0.00767774
0.00181761
0.00861547
0.00187621
0.00963725
0.00189416
0.0110059
0.00186586
0.0120292
0.00178919
0.0114695
0.00861904
0.00139525
-0.00575695
0.00131577
-0.00745592
0.00122636
-0.00838915
0.00114246
-0.00871243
0.00106962
-0.00863206
0.00100447
-0.00832723
0.000946021
-0.00792474
0.000890467
-0.00743862
0.00081598
-0.00695226
0.000722919
-0.00659949
0.00067266
-0.00607079
0.000735716
-0.00467416
0.000913296
-0.0021753
0.0011453
0.000880901
0.00137233
0.00377006
0.00156341
0.00603718
0.00171005
0.0075311
0.00181391
0.00851161
0.00187846
0.0095727
0.0019024
0.010982
0.00187851
0.012053
0.00180271
0.0115453
0.00873341
0.00139971
-0.00570508
0.00131422
-0.00737042
0.0012202
-0.00829513
0.00113321
-0.00862545
0.0010588
-0.00855765
0.000993344
-0.00826177
0.000935155
-0.00786655
0.000881837
-0.00738531
0.000812223
-0.00688264
0.000721834
-0.0065091
0.000667067
-0.00601602
0.000720615
-0.00472771
0.000890778
-0.00234547
0.00112116
0.000650519
0.00135113
0.00354009
0.00154732
0.00584099
0.00169957
0.00737886
0.00180907
0.00840211
0.00187964
0.00950213
0.0019097
0.0109519
0.00189043
0.0120723
0.00181573
0.01162
0.00885091
0.00140277
-0.00564736
0.00131152
-0.00727917
0.0012132
-0.00819681
0.00112336
-0.00853562
0.00104749
-0.00848177
0.000981843
-0.00819613
0.000923948
-0.00780865
0.000872684
-0.00733404
0.000807952
-0.00681791
0.000720784
-0.00642193
0.000662201
-0.00595743
0.000706376
-0.00477188
0.00086855
-0.00250764
0.0010966
0.00042247
0.00132907
0.00330762
0.00153016
0.0056399
0.00168792
0.0072211
0.00180307
0.00828696
0.00187971
0.00942549
0.00191601
0.0109156
0.00190159
0.0120867
0.00182823
0.0116934
0.00897135
0.0014044
-0.00558382
0.00130767
-0.00718244
0.00120535
-0.00809449
0.0011129
-0.00844316
0.00103568
-0.00840455
0.000969939
-0.00813039
0.000912385
-0.0077511
0.000862987
-0.00728464
0.000803092
-0.00675802
0.000719655
-0.00633849
0.000657973
-0.00589575
0.000693011
-0.00480692
0.000846714
-0.00266135
0.00107172
0.000197463
0.0013062
0.00307314
0.00151194
0.00543416
0.0016751
0.00705794
0.00179587
0.0081662
0.00187863
0.00934274
0.0019213
0.0108729
0.00191193
0.0120961
0.00184018
0.0117652
0.00909451
0.0014046
-0.00551447
0.00130268
-0.00708052
0.00119667
-0.00798847
0.00110182
-0.0083483
0.00102336
-0.0083261
0.000957608
-0.00806464
0.000900452
-0.00769394
0.000852732
-0.00723692
0.000797577
-0.00670286
0.000718335
-0.00625925
0.000654284
-0.0058317
0.000680511
-0.00483315
0.000825365
-0.0028062
0.00104663
-2.37987e-05
0.00128256
0.00283721
0.00149266
0.00522406
0.0016611
0.0068895
0.00178745
0.00803984
0.00187635
0.00925383
0.00192551
0.0108238
0.00192142
0.0121002
0.00185154
0.011835
0.00922017
0.00140336
-0.00543935
0.00129655
-0.00697371
0.00118714
-0.00787907
0.00109011
-0.00825128
0.00101052
-0.0082465
0.00094483
-0.00799895
0.000888133
-0.00763725
0.000841909
-0.0071907
0.000791347
-0.0066523
0.000716717
-0.00618462
0.000651031
-0.00576602
0.00066885
-0.00485097
0.000804641
-0.00294199
0.00102132
-0.000240481
0.00125821
0.00260032
0.00147235
0.00500993
0.00164591
0.00671594
0.00177779
0.00790795
0.00187285
0.00915877
0.0019286
0.010768
0.00193001
0.0120988
0.00186228
0.0119028
0.00934806
0.00140066
-0.0053585
0.00128927
-0.00686232
0.00117678
-0.00776658
0.00107779
-0.00815228
0.000997148
-0.00816586
0.000931578
-0.00793338
0.00087541
-0.00758108
0.00083051
-0.0071458
0.000784349
-0.00660614
0.000714695
-0.00611497
0.000648108
-0.00569943
0.000657979
-0.00486084
0.00078446
-0.00306847
0.000996043
-0.000452064
0.00123324
0.00236312
0.00145104
0.00479213
0.00162954
0.00653744
0.00176688
0.00777061
0.00186809
0.00905756
0.00193051
0.0107056
0.00193765
0.0120917
0.00187237
0.011968
0.00947794
0.00139649
-0.005272
0.00128086
-0.00674669
0.00116557
-0.00765128
0.00106482
-0.00805153
0.000983229
-0.00808427
0.000917826
-0.00786798
0.000862261
-0.00752551
0.000818529
-0.00710207
0.000776535
-0.00656415
0.000712165
-0.0060506
0.00064541
-0.00563267
0.000647838
-0.00486326
0.000764878
-0.00318551
0.000970862
-0.000658047
0.00120773
0.00212625
0.00142879
0.00457107
0.00161201
0.00635423
0.0017547
0.00762791
0.00186204
0.00895022
0.00193122
0.0106364
0.00194431
0.0120786
0.00188178
0.0120306
0.00960949
0.00139085
-0.00517996
0.00127131
-0.00662716
0.00115352
-0.00753349
0.00105121
-0.00794923
0.000968765
-0.00800183
0.000903565
-0.00780278
0.000848675
-0.00747062
0.000805972
-0.00705936
0.000767875
-0.00652605
0.000709035
-0.00599176
0.000642837
-0.00556648
0.000638355
-0.00485878
0.000745945
-0.0032931
0.000945868
-0.00085797
0.00118181
0.00189031
0.00140566
0.00434722
0.00159333
0.00616655
0.00174125
0.00747999
0.00185468
0.0088368
0.00193068
0.0105604
0.00194995
0.0120593
0.00189047
0.0120901
0.0097424
0.00138376
-0.00508258
0.00126071
-0.00650411
0.00114071
-0.00741349
0.00103705
-0.00784556
0.000953827
-0.00791861
0.00088884
-0.00773779
0.000834684
-0.00741647
0.00079288
-0.00701756
0.000758368
-0.00649154
0.000705234
-0.00593862
0.000640303
-0.00550155
0.000629469
-0.00484795
0.000727696
-0.00339133
0.000921192
-0.00105147
0.00115561
0.00165589
0.00138173
0.00412109
0.00157356
0.00597473
0.00172654
0.00732701
0.00184597
0.00871737
0.00192886
0.0104775
0.00195451
0.0120336
0.00189842
0.0121461
0.00987632
0.00137524
-0.00498015
0.0012491
-0.00637797
0.00112721
-0.0072916
0.00102236
-0.00774071
0.00093844
-0.00783469
0.000873659
-0.00767301
0.000820286
-0.00736309
0.000779265
-0.00697654
0.000748
-0.00646027
0.000700671
-0.00589129
0.000637702
-0.00543858
0.000621095
-0.00483134
0.000710101
-0.00348034
0.000896929
-0.00123829
0.0011293
0.00142352
0.00135717
0.00389323
0.00155278
0.00577912
0.00171059
0.0071692
0.00183592
0.00859204
0.00192571
0.0103877
0.00195796
0.0120014
0.00190558
0.0121985
0.0100108
0.00136515
0.00123621
-0.00624903
0.00111262
-0.007168
0.00100674
-0.00763483
0.000922205
-0.00775016
0.000857676
-0.00760848
0.000805194
-0.00731061
0.000764928
-0.00693627
0.000736598
-0.00643194
0.000695138
-0.00584983
0.000634829
-0.00537827
0.000613059
-0.00480957
0.000693017
-0.00356029
0.000873082
-0.00141836
0.00110305
0.00119355
0.00133216
0.00366412
0.00153112
0.00558015
0.00169348
0.00700684
0.00182453
0.00846099
0.00192122
0.0102911
0.00196028
0.0119623
0.00191196
0.0122468
0.0101455
0.00122157
-0.0061173
0.00109629
-0.00704273
0.000989501
-0.00752804
0.000904539
-0.00766519
0.000840413
-0.00754436
0.000789035
-0.00725923
0.000749606
-0.00689684
0.000723964
-0.0064063
0.00068843
-0.0058143
0.000631512
-0.00532135
0.000605229
-0.00478329
0.000676255
-0.00363132
0.000849506
-0.00159161
0.00107693
0.000966122
0.00130691
0.00343415
0.00150881
0.00537825
0.00167534
0.00684032
0.00181185
0.00832447
0.0019154
0.0101875
0.00196145
0.0119163
0.00191762
0.0122907
0.0102796
0.00120663
-0.00598343
0.00108009
-0.00691619
0.000972562
-0.00742051
0.000887168
-0.0075798
0.000823317
-0.0074805
0.000772977
-0.00720889
0.000734268
-0.00685813
0.000710889
-0.00638292
0.000681154
-0.00578456
0.000628273
-0.00526847
0.000598148
-0.00475316
0.000660281
-0.00369345
0.000826521
-0.00175785
0.00105129
0.000741356
0.00128187
0.00320356
0.00148625
0.00517388
0.00165644
0.00667012
0.00179803
0.00818288
0.00190832
0.0100772
0.00196159
0.011863
0.0019228
0.0123295
0.0104125
0.00119691
-0.00584972
0.00107008
-0.00678937
0.000961701
-0.00731213
0.000875162
-0.00749326
0.000810652
-0.00741599
0.000760552
-0.00715879
0.000721916
-0.0068195
0.000699992
-0.006361
0.000675563
-0.00576014
0.000627214
-0.00522012
0.000594121
-0.00472007
0.000647694
-0.00374702
0.000806884
-0.00191704
0.00102868
0.000519561
0.00125912
0.00297312
0.0014651
0.0049679
0.00163812
0.0064971
0.00178408
0.00803692
0.00190069
0.00996062
0.00196105
0.0118026
0.00192739
0.0123631
0.0105443
0.00702164
-0.00567532
0.00672121
-0.00648893
0.00634986
-0.00694078
0.00595447
-0.00709787
0.00557198
-0.00703351
0.0052098
-0.00679661
0.0048649
-0.00647459
0.00455787
-0.00605397
0.00425876
-0.00546103
0.00389187
-0.00485323
0.00349813
-0.00432633
0.00324607
-0.00349496
0.00324836
-0.00191933
0.00347158
0.000296341
0.00382443
0.00262027
0.00422229
0.00457004
0.00456435
0.00615503
0.00478437
0.00781691
0.00489769
0.0098473
0.00496998
0.0117303
0.00505865
0.0122745
0.00522159
0.0103814
0.00599213
0.00727916
-0.00543459
0.00692917
-0.00613894
0.00652987
-0.00654148
0.00612366
-0.00669166
0.00573847
-0.00664831
0.00538085
-0.00643899
0.00503981
-0.00613355
0.00473028
-0.00574443
0.00444498
-0.00517573
0.00411189
-0.00452015
0.00373047
-0.0039449
0.00344715
-0.00321164
0.00339756
-0.00186975
0.00358851
0.000105388
0.0039414
0.00226739
0.00434227
0.00416917
0.00468737
0.00580993
0.00492025
0.00758403
0.00506454
0.00970301
0.00517281
0.0116221
0.00529192
0.0121554
0.00547662
0.0101967
0.00573944
0.00749069
-0.00514625
0.00711996
-0.00576822
0.00671677
-0.00613829
0.0063128
-0.0062877
0.00592847
-0.00626398
0.0055725
-0.00608302
0.00523281
-0.00579386
0.00491782
-0.00542944
0.00463784
-0.00489575
0.00433432
-0.00421663
0.003973
-0.00358358
0.00366512
-0.00290377
0.00357031
-0.00177494
0.00372925
-5.35543e-05
0.00406823
0.00192841
0.00446664
0.00377077
0.00481448
0.00546209
0.00506239
0.00733611
0.00523472
0.00953068
0.00537449
0.0114823
0.00552778
0.0120021
0.0057528
0.00997164
0.00544736
0.00766193
-0.00483284
0.00728543
-0.00539171
0.00688603
-0.00573888
0.00648933
-0.005891
0.00611053
-0.00588519
0.00575972
-0.00573221
0.00542636
-0.0054605
0.00511075
-0.00511384
0.00483374
-0.00461873
0.00455767
-0.00394056
0.00422609
-0.003252
0.00390837
-0.00258604
0.00376737
-0.00163394
0.00388408
-0.000170266
0.00420077
0.00161172
0.00459121
0.00338033
0.00494174
0.00511156
0.00520727
0.00707058
0.00540845
0.0093295
0.00558219
0.0113086
0.00577588
0.0118084
0.00604574
0.00970178
0.00512143
0.00780444
-0.00451325
0.00743459
-0.00502186
0.00704671
-0.00535101
0.00666226
-0.00550655
0.00629259
-0.00551552
0.00594824
-0.00538786
0.00562301
-0.00513527
0.0053105
-0.00480133
0.00503441
-0.00434265
0.00478121
-0.00368736
0.00448662
-0.00295741
0.00417381
-0.00227323
0.00399021
-0.00145034
0.00405282
-0.000232878
0.00433447
0.00133007
0.00471109
0.00300371
0.00506573
0.00475692
0.00535235
0.00678396
0.00558555
0.0090963
0.00579708
0.011097
0.00603477
0.0115707
0.00635436
0.0093822
0.00475886
0.00792871
-0.00420028
0.00757341
-0.00466656
0.00720169
-0.0049793
0.00683229
-0.00513715
0.00647439
-0.00515762
0.00613792
-0.00505139
0.00582199
-0.00481934
0.00551647
-0.0044958
0.00524112
-0.0040673
0.00500439
-0.00345062
0.00474928
-0.0027023
0.00445708
-0.00198104
0.00424075
-0.00123401
0.00423983
-0.000231954
0.00447
0.0010999
0.0048244
0.00264931
0.00518412
0.0043972
0.00549579
0.00647228
0.0057648
0.00882729
0.0060166
0.0108452
0.00630273
0.0112846
0.00667885
0.00900608
0.00435994
0.00804388
-0.00390121
0.00770725
-0.00432993
0.00735408
-0.00462612
0.00700113
-0.0047842
0.00665676
-0.00481325
0.00632951
-0.00472414
0.00602322
-0.00451305
0.00572781
-0.00420039
0.00545497
-0.00379446
0.005228
-0.00322366
0.00500956
-0.00248386
0.00475189
-0.00172337
0.00451936
-0.00100147
0.00445267
-0.000165268
0.0046145
0.000938065
0.00493402
0.00232979
0.00529653
0.00403469
0.00563597
0.00613285
0.00594314
0.00852012
0.0062375
0.0105509
0.0065796
0.0109425
0.00701869
0.00856699
0.00392747
0.00815622
-0.0036192
0.00783969
-0.0040134
0.00750591
-0.00429234
0.00716997
-0.00444825
0.00684016
-0.00448344
0.00652349
-0.00440746
0.00622684
-0.00421641
0.00594342
-0.00391697
0.00567636
-0.0035274
0.00545416
-0.00300146
0.00526478
-0.00229448
0.00505027
-0.00150886
0.00482283
-0.000774031
0.00469948
-4.19149e-05
0.00478088
0.000856663
0.0050486
0.00206207
0.00540556
0.00367773
0.00577149
0.00576692
0.00611709
0.00817451
0.00645777
0.0102102
0.00686545
0.0105348
0.00737246
0.00805998
0.00346664
0.00826967
-0.00335493
0.00797312
-0.00371686
0.00765868
-0.00397791
0.00733976
-0.00412933
0.00702497
-0.00416865
0.00672013
-0.00410262
0.00643321
-0.00392949
0.00616233
-0.00364609
0.00590477
-0.00326984
0.0056854
-0.00278209
0.00551493
-0.00212401
0.00534434
-0.00133827
0.00514334
-0.000573036
0.00498464
0.000116788
0.00498455
0.000856752
0.00518262
0.00186401
0.00551799
0.00334236
0.00590255
0.00538236
0.00628419
0.00779287
0.00667631
0.00981807
0.00716042
0.0100507
0.00773838
0.00748202
0.00298548
0.0083865
-0.00310782
0.00810902
-0.00343938
0.00781335
-0.00368224
0.00751123
-0.00382721
0.00721149
-0.00386892
0.00691948
-0.00381061
0.00664273
-0.00365274
0.00638398
-0.00338734
0.00613883
-0.00302469
0.00592362
-0.00256688
0.00576268
-0.00196306
0.00562876
-0.00120435
0.0054694
-0.00041368
0.00530487
0.000281318
0.005238
0.000923624
0.00535463
0.00174738
0.00564601
0.00305097
0.00603233
0.00499605
0.00644342
0.00738178
0.0068933
0.00936818
0.00746548
0.00947849
0.00811422
0.00683329
0.00249537
0.0085079
-0.00287678
0.0082483
-0.00317977
0.00797055
-0.00340449
0.00768488
-0.00354155
0.00740006
-0.00358409
0.0071215
-0.00353205
0.00685565
-0.00338689
0.00660831
-0.00314
0.00637695
-0.00279333
0.00616921
-0.00235914
0.00601209
-0.00180594
0.00590258
-0.00109485
0.00578917
-0.000300271
0.00564822
0.000422277
0.00554455
0.00102729
0.00558238
0.00170955
0.00580687
0.00282648
0.00616866
0.00463426
0.00659732
0.00695312
0.00711261
0.00885289
0.00778375
0.00880736
0.00849748
0.00611956
0.00201176
0.00863446
-0.00266058
0.00839147
-0.00293679
0.00813071
-0.00314373
0.0078611
-0.00327193
0.00759097
-0.00331397
0.00732611
-0.00326719
0.007072
-0.00313278
0.00683563
-0.00290362
0.00661789
-0.00257559
0.00642103
-0.00216227
0.00626672
-0.00165164
0.00616936
-0.00099749
0.00609492
-0.000225831
0.00599722
0.000519977
0.00589423
0.00113028
0.00587481
0.00172896
0.00601973
0.00268156
0.00632781
0.00432618
0.00675911
0.00652182
0.0073477
0.00826429
0.00812276
0.0080323
0.00888569
0.00535663
0.00155555
0.00876638
-0.00245808
0.00853887
-0.00270928
0.00829418
-0.00289903
0.00804014
-0.00301789
0.0077845
-0.00305832
0.00753333
-0.00301602
0.00729162
-0.00289107
0.00706622
-0.00267823
0.00686118
-0.00237056
0.00667718
-0.00197827
0.00652802
-0.00150248
0.00643486
-0.000904337
0.00638597
-0.000176942
0.00633582
0.000570133
0.00626531
0.00120079
0.00622451
0.00176977
0.00629846
0.0026076
0.0065367
0.00408795
0.00696094
0.00609759
0.0076267
0.00759852
0.0084938
0.00716521
0.00927397
0.00457646
0.00115217
0.00890376
-0.00226824
0.00869071
-0.00249623
0.00846121
-0.00266954
0.00822224
-0.00277892
0.00798085
-0.00281693
0.00774324
-0.00277841
0.00751428
-0.0026621
0.00730019
-0.00246414
0.00710691
-0.00217727
0.00693607
-0.00180743
0.00679515
-0.00136156
0.0067039
-0.000813083
0.00666769
-0.000140729
0.0066561
0.000581718
0.00663309
0.0012238
0.00660723
0.00179563
0.00664193
0.0025729
0.00682352
0.00390636
0.0072463
0.00567481
0.00798153
0.00686329
0.0089013
0.00624544
0.00965018
0.00382758
0.000826704
0.00904663
-0.00209019
0.00884712
-0.00229671
0.00863202
-0.00245444
0.00840758
-0.00255448
0.00818019
-0.00258955
0.00795595
-0.00255418
0.00773981
-0.00244596
0.00753741
-0.00226174
0.00735534
-0.0019952
0.00719691
-0.001649
0.00706633
-0.00123097
0.00697845
-0.000725212
0.00694722
-0.000109491
0.0069598
0.000569137
0.00698104
0.00120256
0.00699223
0.00178443
0.00702919
0.00253595
0.00719549
0.00374005
0.00763703
0.00523327
0.00841679
0.00608354
0.00932633
0.0053359
0.00999217
0.00316174
0.000595003
0.00919501
-0.00192319
0.00900824
-0.00210994
0.00880681
-0.00225302
0.00859634
-0.002344
0.00838265
-0.00237586
0.00817158
-0.0023431
0.00796815
-0.00224254
0.00777765
-0.00207124
0.00760658
-0.00182412
0.00745958
-0.00150201
0.00733988
-0.00111127
0.00725802
-0.000643353
0.00722948
-8.09564e-05
0.007254
0.000544624
0.00730565
0.00115091
0.00735719
0.0017329
0.00742818
0.00246496
0.00762489
0.00354334
0.00810335
0.0047548
0.00888832
0.00529857
0.0097239
0.00450031
0.0102726
0.00261301
0.000453717
0.00934893
-0.00176658
0.00917418
-0.00193518
0.00898575
-0.0020646
0.00878869
-0.00214694
0.00858835
-0.00217551
0.0083902
-0.00214495
0.00819928
-0.00205162
0.00802069
-0.00189265
0.00786055
-0.00166399
0.00772419
-0.00136565
0.00761506
-0.00100214
0.00754096
-0.000569248
0.00751584
-5.58331e-05
0.00754532
0.000515136
0.00761292
0.00108332
0.00769584
0.00164997
0.00781237
0.00234843
0.0080629
0.00329281
0.00857593
0.00424177