/*--------------------------------*- C++ -*----------------------------------*\
  =========                 |
  \\      /  F ield         | OpenFOAM: The Open Source CFD Toolbox
   \\    /   O peration     | Website:  https://openfoam.org
    \\  /    A nd           | Version:  7
     \\/     M anipulation  |
\*---------------------------------------------------------------------------*/
FoamFile
{
    version     2.0;
    format      ascii;
    class       volVectorField;
    location    "280";
    object      U;
}
// * * * * * * * * * * * * * * * * * * * * * * * * * * * * * * * * * * * * * //

dimensions      [0 1 -1 0 0 0 0];

internalField   nonuniform List<vector> 
4575
(
(0.31167 -0.120367 3.38864e-22)
(0.410602 -0.338113 -1.50636e-22)
(0.499959 -0.509171 -1.25762e-22)
(0.570019 -0.614426 1.04102e-22)
(0.615979 -0.661109 -1.06949e-22)
(0.638412 -0.668485 -9.32777e-23)
(0.64302 -0.654519 2.0172e-23)
(0.629084 -0.639471 9.63557e-23)
(0.589613 -0.637213 6.50662e-23)
(0.535933 -0.621833 -2.26542e-22)
(0.507359 -0.531304 1.6552e-22)
(0.531518 -0.335504 -7.18274e-23)
(0.59719 -0.0771905 -5.30435e-23)
(0.678906 0.170526 8.39711e-23)
(0.755712 0.357058 6.25668e-23)
(0.81434 0.470415 -2.13391e-23)
(0.84894 0.525882 -6.49314e-23)
(0.863595 0.542352 -1.06038e-24)
(0.866409 0.536173 -7.86228e-23)
(0.85634 0.531523 7.05648e-23)
(0.825745 0.545404 -2.16299e-23)
(0.778159 0.55475 2.39126e-23)
(0.734463 0.504278 -1.05175e-22)
(0.339902 -0.134745 1.60591e-21)
(0.436948 -0.351363 -1.37153e-22)
(0.523339 -0.520283 -8.06114e-22)
(0.589473 -0.622386 4.75843e-22)
(0.631339 -0.665686 -7.30499e-22)
(0.649921 -0.670196 6.13085e-22)
(0.651287 -0.653812 -2.53879e-23)
(0.635554 -0.635907 -9.60563e-23)
(0.595222 -0.631122 -3.78963e-22)
(0.539278 -0.616487 5.5984e-22)
(0.505825 -0.530951 -4.54512e-22)
(0.524862 -0.341113 5.65918e-22)
(0.587256 -0.0863467 -5.1938e-23)
(0.667828 0.160758 -8.73577e-22)
(0.745288 0.348796 6.60096e-22)
(0.805581 0.464778 -3.24778e-22)
(0.842257 0.522891 2.607e-22)
(0.859168 0.541233 -1.01862e-23)
(0.864002 0.536467 -4.00381e-23)
(0.855267 0.533603 1.69917e-22)
(0.825428 0.549388 -2.78415e-22)
(0.77877 0.559371 3.14531e-22)
(0.736469 0.507581 -3.73363e-22)
(0.368594 -0.148275 2.9703e-21)
(0.463668 -0.363741 -2.29548e-21)
(0.547009 -0.530555 -1.48289e-22)
(0.609119 -0.62961 3.44883e-22)
(0.646823 -0.669671 1.70551e-21)
(0.661566 -0.671458 -4.94171e-23)
(0.659684 -0.652829 -3.59695e-22)
(0.642137 -0.632219 2.19456e-22)
(0.601051 -0.624879 -2.132e-22)
(0.543107 -0.610816 -7.85428e-24)
(0.504933 -0.530261 -1.46452e-23)
(0.518771 -0.34665 -2.02342e-22)
(0.577754 -0.0957224 -1.03798e-22)
(0.657055 0.150611 -8.41346e-23)
(0.735046 0.340123 7.2056e-22)
(0.796913 0.458773 -5.21007e-22)
(0.835634 0.519592 1.99213e-25)
(0.854806 0.539868 -2.3749e-22)
(0.861678 0.536585 1.92038e-22)
(0.854297 0.535558 -7.66227e-24)
(0.825261 0.55326 1.16391e-22)
(0.779585 0.563906 -6.02653e-23)
(0.738681 0.510903 5.65239e-23)
(0.397624 -0.160942 2.56853e-21)
(0.490681 -0.375242 -2.45123e-21)
(0.570914 -0.539984 1.53525e-21)
(0.628923 -0.636102 -2.22106e-21)
(0.662409 -0.673074 8.61707e-22)
(0.673334 -0.672283 -3.94223e-22)
(0.668212 -0.651577 4.14694e-22)
(0.648832 -0.628425 -6.66232e-22)
(0.607087 -0.618515 3.87112e-22)
(0.547411 -0.604839 2.5272e-22)
(0.504701 -0.529218 3.07789e-22)
(0.513273 -0.352078 4.17035e-22)
(0.568707 -0.105289 -8.39592e-22)
(0.646603 0.140103 -5.34678e-22)
(0.724997 0.331047 1.1772e-22)
(0.78834 0.4524 6.30655e-22)
(0.829071 0.515978 6.13714e-22)
(0.850509 0.53825 -1.11413e-22)
(0.859432 0.536521 3.82724e-23)
(0.853427 0.537378 -2.17745e-22)
(0.825242 0.557009 8.38218e-23)
(0.780599 0.568352 4.78584e-23)
(0.741094 0.514248 -8.03202e-22)
(0.426872 -0.172737 2.04375e-21)
(0.517907 -0.385862 -1.40521e-21)
(0.595001 -0.548572 1.49734e-21)
(0.648853 -0.641862 -6.92607e-22)
(0.678076 -0.675905 2.49951e-22)
(0.685213 -0.672683 -1.18035e-21)
(0.676869 -0.650068 1.30366e-21)
(0.655637 -0.624544 2.08247e-23)
(0.613318 -0.612062 -3.7887e-22)
(0.552173 -0.598576 -9.76682e-22)
(0.50514 -0.527808 1.59274e-22)
(0.508393 -0.357362 -5.01402e-22)
(0.560136 -0.115015 6.35786e-22)
(0.636487 0.129253 -1.5282e-22)
(0.715146 0.321578 -1.81765e-22)
(0.779866 0.445659 1.34583e-22)
(0.822568 0.512043 3.69459e-22)
(0.846273 0.536372 1.30405e-22)
(0.85726 0.536266 3.08723e-24)
(0.852654 0.539053 3.22434e-22)
(0.825367 0.560624 -1.34521e-22)
(0.781807 0.572705 -5.73866e-22)
(0.743698 0.517622 3.22671e-22)
(0.456224 -0.183658 -4.32786e-21)
(0.545272 -0.395606 1.52754e-21)
(0.619217 -0.556321 -3.01405e-22)
(0.668874 -0.646898 -2.70886e-21)
(0.693802 -0.678176 2.22386e-21)
(0.69719 -0.672672 -1.15331e-22)
(0.685655 -0.648311 2.40719e-23)
(0.66255 -0.62059 1.41852e-21)
(0.619731 -0.605549 -1.03159e-21)
(0.557378 -0.592053 1.06388e-21)
(0.506257 -0.52602 -2.9186e-22)
(0.504152 -0.362464 -8.53872e-22)
(0.552061 -0.124869 1.30821e-21)
(0.626722 0.118081 -7.7645e-22)
(0.705503 0.311725 -5.48094e-22)
(0.771493 0.438551 -2.14179e-22)
(0.816125 0.507784 -8.20913e-22)
(0.842096 0.534228 3.25661e-22)
(0.855159 0.535813 -5.53352e-22)
(0.851973 0.540571 -2.15221e-22)
(0.825634 0.564096 5.38556e-22)
(0.7832 0.576961 3.20365e-22)
(0.746486 0.521029 4.15629e-22)
(0.485573 -0.193713 -5.97689e-21)
(0.572705 -0.404481 3.06391e-21)
(0.643511 -0.563237 -3.98208e-21)
(0.688954 -0.651215 -2.1123e-22)
(0.709567 -0.679896 1.19396e-21)
(0.709249 -0.672264 -5.71887e-22)
(0.694567 -0.646315 -3.26864e-22)
(0.66957 -0.616579 -2.97706e-22)
(0.626312 -0.599007 6.62996e-22)
(0.563004 -0.585296 8.80114e-22)
(0.508056 -0.523845 1.4008e-21)
(0.500573 -0.367347 -1.54681e-21)
(0.544503 -0.134817 2.01521e-21)
(0.617321 0.10661 -1.12143e-21)
(0.696073 0.301498 -8.63338e-22)
(0.763226 0.431075 1.33315e-21)
(0.809742 0.503195 5.82566e-22)
(0.837973 0.531813 -1.41197e-21)
(0.853122 0.535154 3.82376e-22)
(0.851381 0.541923 2.78854e-22)
(0.826039 0.567414 -2.10431e-22)
(0.784773 0.581117 5.60664e-22)
(0.74945 0.524471 -4.02379e-22)
(0.514818 -0.202915 -9.37332e-23)
(0.600139 -0.412501 1.36999e-21)
(0.667834 -0.569331 3.00263e-21)
(0.709059 -0.654821 -2.1472e-21)
(0.725351 -0.681079 3.49145e-23)
(0.721378 -0.671474 -8.49364e-23)
(0.703602 -0.644091 -7.90671e-22)
(0.676695 -0.612523 -5.5753e-22)
(0.633045 -0.592466 1.58756e-21)
(0.569028 -0.578334 2.41139e-23)
(0.510536 -0.521277 -7.1023e-22)
(0.497673 -0.371976 -1.13163e-21)
(0.537477 -0.144823 1.9693e-21)
(0.608295 0.094863 -1.51041e-21)
(0.686864 0.290911 2.93591e-22)
(0.755067 0.423235 -4.5255e-22)
(0.803419 0.498273 1.25256e-21)
(0.833903 0.529119 -9.50963e-22)
(0.851146 0.534282 3.25788e-22)
(0.850873 0.543098 6.31878e-22)
(0.826576 0.570568 -1.0675e-21)
(0.786517 0.585169 -3.72118e-22)
(0.75258 0.527951 9.21105e-22)
(0.54387 -0.211285 2.90057e-21)
(0.627513 -0.419681 1.38373e-21)
(0.692139 -0.574613 -1.08067e-21)
(0.729156 -0.657728 1.46164e-21)
(0.741133 -0.681737 2.11389e-21)
(0.73356 -0.670315 -3.17703e-21)
(0.712756 -0.641648 6.09364e-22)
(0.683924 -0.608433 1.0683e-21)
(0.639919 -0.585952 -5.7356e-22)
(0.575423 -0.5712 1.89334e-21)
(0.513691 -0.518317 -2.52667e-21)
(0.495471 -0.376313 1.13355e-21)
(0.530999 -0.154848 -1.91204e-21)
(0.599655 0.0828648 1.90463e-22)
(0.677882 0.279975 -3.30216e-22)
(0.747019 0.415031 1.04861e-21)
(0.797153 0.493013 -5.73754e-22)
(0.829881 0.526142 -5.34561e-22)
(0.849225 0.533188 -1.93778e-22)
(0.850443 0.544084 1.15603e-21)
(0.827242 0.573548 6.84e-22)
(0.788423 0.589112 2.69209e-22)
(0.755869 0.53147 -6.08932e-22)
(0.572647 -0.21885 3.79111e-21)
(0.654772 -0.426042 4.40255e-21)
(0.71638 -0.579097 -4.62736e-21)
(0.749214 -0.659946 -6.9509e-21)
(0.756895 -0.681883 2.36174e-22)
(0.745781 -0.668804 1.15644e-21)
(0.722024 -0.638995 4.23509e-21)
(0.691255 -0.604319 -2.61476e-21)
(0.646918 -0.579492 1.11582e-21)
(0.58216 -0.563925 -1.83972e-21)
(0.517509 -0.514966 1.30203e-21)
(0.49398 -0.380323 -6.01435e-22)
(0.525083 -0.164854 8.47299e-22)
(0.591409 0.0706422 -1.16111e-21)
(0.669132 0.268703 1.435e-22)
(0.739084 0.406467 -7.24835e-22)
(0.790946 0.487412 1.25653e-21)
(0.825904 0.522876 -7.52834e-22)
(0.847354 0.531865 5.00114e-22)
(0.850088 0.544873 -1.04858e-21)
(0.828029 0.576345 2.99652e-22)
(0.790483 0.592942 -1.71488e-21)
(0.759306 0.535031 1.0518e-21)
(0.60108 -0.225644 -6.5125e-22)
(0.681864 -0.431607 6.48836e-21)
(0.740515 -0.582798 -7.06283e-21)
(0.7692 -0.661489 1.34571e-21)
(0.772618 -0.681531 -2.63497e-21)
(0.758026 -0.666956 4.0894e-21)
(0.731401 -0.636142 1.85737e-21)
(0.698687 -0.600189 -3.763e-24)
(0.65403 -0.57311 -2.36977e-21)
(0.589211 -0.556544 4.03301e-22)
(0.521974 -0.511231 2.69535e-21)
(0.493215 -0.383973 -3.53571e-22)
(0.519741 -0.174799 -2.204e-21)
(0.583566 0.0582232 -4.555e-22)
(0.660619 0.257111 4.14513e-21)
(0.731265 0.397546 -2.15086e-22)
(0.784796 0.481468 -6.91502e-22)
(0.821967 0.519315 1.97698e-22)
(0.845526 0.530306 -3.3975e-22)
(0.849801 0.545453 1.31721e-21)
(0.828931 0.578947 -6.59668e-22)
(0.792687 0.596654 2.31826e-21)
(0.762883 0.538632 -1.37475e-21)
(0.75474 0.377394 2.10473e-21)
(0.629111 -0.231703 1.50746e-21)
(0.708746 -0.436401 -6.55451e-21)
(0.764503 -0.585733 -2.5413e-22)
(0.789083 -0.662369 8.96914e-21)
(0.788285 -0.680694 -4.05174e-21)
(0.770281 -0.664787 -4.76908e-21)
(0.740879 -0.633099 4.19302e-21)
(0.706218 -0.59605 2.93513e-22)
(0.66124 -0.56683 -2.38095e-21)
(0.596544 -0.549094 -1.15766e-21)
(0.527064 -0.507124 6.02716e-22)
(0.493186 -0.387232 1.76191e-21)
(0.514985 -0.18464 -3.91529e-21)
(0.576132 0.0456378 8.73733e-22)
(0.652349 0.245213 6.81734e-22)
(0.723565 0.388272 -3.14827e-21)
(0.778701 0.475178 -6.59017e-22)
(0.818066 0.515454 4.45445e-22)
(0.843735 0.528503 3.114e-21)
(0.849576 0.545814 -1.17446e-21)
(0.829941 0.581346 1.07609e-21)
(0.795026 0.600243 -3.86055e-21)
(0.766589 0.542274 7.28866e-22)
(0.759564 0.380163 3.45471e-22)
(0.656695 -0.237069 -8.43565e-21)
(0.735377 -0.440451 2.07495e-21)
(0.788306 -0.58792 1.94295e-21)
(0.808833 -0.662603 -5.93029e-21)
(0.803878 -0.679386 8.34957e-21)
(0.78253 -0.662311 -5.01519e-21)
(0.750453 -0.629875 3.33735e-21)
(0.713847 -0.591906 -4.13915e-21)
(0.668538 -0.56067 3.61497e-21)
(0.604129 -0.541609 1.01827e-21)
(0.532751 -0.50266 1.32111e-21)
(0.493901 -0.39007 -3.8582e-21)
(0.510826 -0.194335 1.38536e-21)
(0.569114 0.0329172 -9.69814e-22)
(0.644325 0.233027 3.66556e-22)
(0.715985 0.37865 2.70777e-21)
(0.772662 0.46854 -5.52353e-22)
(0.814198 0.51129 5.60134e-22)
(0.841975 0.526449 6.45121e-22)
(0.849407 0.545947 -8.21834e-22)
(0.831052 0.583533 9.73807e-22)
(0.79749 0.603703 -1.59337e-21)
(0.770415 0.545955 1.77655e-21)
(0.764492 0.383146 3.53185e-22)
(0.683799 -0.241789 8.64712e-22)
(0.761725 -0.443786 -1.09186e-20)
(0.811887 -0.589377 9.26624e-21)
(0.82842 -0.662206 -6.3032e-21)
(0.819381 -0.677623 -3.6124e-21)
(0.794761 -0.659544 9.35086e-22)
(0.760112 -0.62648 1.28836e-21)
(0.721574 -0.587762 -1.4594e-21)
(0.675911 -0.55465 1.9047e-21)
(0.611934 -0.534128 1.80883e-21)
(0.539003 -0.497859 -3.80637e-21)
(0.495365 -0.392463 1.14363e-21)
(0.507278 -0.203838 2.6256e-21)
(0.562516 0.0200941 -3.94475e-21)
(0.636551 0.220569 4.77477e-21)
(0.708528 0.368685 9.15709e-22)
(0.766678 0.461553 -1.19571e-21)
(0.810357 0.506818 -8.00199e-22)
(0.84024 0.524138 8.48704e-22)
(0.849288 0.545842 -1.46352e-21)
(0.832255 0.585497 1.41502e-21)
(0.800068 0.607029 1.34158e-21)
(0.774349 0.549672 1.0835e-22)
(0.769515 0.386343 9.45557e-22)
(0.710403 -0.245908 -5.28782e-21)
(0.787759 -0.446434 -2.19388e-21)
(0.835214 -0.590123 -3.93763e-22)
(0.847816 -0.661196 2.14139e-21)
(0.834776 -0.675417 -3.28223e-21)
(0.80696 -0.656501 -7.01488e-22)
(0.769848 -0.622925 -2.19168e-23)
(0.729397 -0.583619 2.52771e-21)
(0.683348 -0.548783 -8.62403e-22)
(0.619929 -0.526684 -4.55352e-22)
(0.545786 -0.492744 -3.89748e-21)
(0.49758 -0.394387 -8.81882e-22)
(0.504351 -0.213103 2.45479e-21)
(0.556345 0.00721745 3.42511e-22)
(0.62903 0.207857 1.1026e-22)
(0.701196 0.358385 7.09055e-22)
(0.760747 0.454217 -9.08189e-22)
(0.806539 0.502034 -9.79933e-22)
(0.838523 0.521562 -6.26308e-22)
(0.849211 0.545489 1.13968e-21)
(0.833542 0.58723 -1.82207e-21)
(0.802751 0.610214 -1.03928e-22)
(0.778382 0.553423 6.77718e-22)
(0.774622 0.389755 -4.32018e-21)
(0.736497 -0.249478 4.90033e-21)
(0.813456 -0.448425 -6.29325e-21)
(0.858252 -0.590179 2.59595e-21)
(0.866992 -0.65959 4.21037e-21)
(0.850049 -0.672785 8.36342e-22)
(0.819115 -0.653198 -3.17766e-22)
(0.77965 -0.619219 7.00962e-22)
(0.737316 -0.57948 -2.8112e-21)
(0.690841 -0.543083 1.79575e-21)
(0.628083 -0.519314 -9.11878e-23)
(0.553058 -0.487345 2.40981e-21)
(0.500541 -0.395827 -7.74456e-22)
(0.502061 -0.222085 -9.50075e-22)
(0.550605 -0.00566031 2.73606e-22)
(0.621766 0.194912 -2.3524e-21)
(0.693992 0.347755 1.67042e-21)
(0.75487 0.446532 -8.31745e-22)
(0.80274 0.496934 8.71508e-22)
(0.836817 0.518715 -8.43755e-23)
(0.84917 0.54488 -1.32454e-21)
(0.834904 0.588723 3.64793e-22)
(0.805526 0.613252 -9.33174e-22)
(0.782502 0.557205 3.69168e-21)
(0.7798 0.393381 -2.69916e-21)
(0.762085 -0.252545 9.18791e-21)
(0.838794 -0.449786 7.69654e-21)
(0.880972 -0.589564 -2.47101e-22)
(0.885923 -0.657406 4.10641e-21)
(0.865185 -0.669741 6.34385e-23)
(0.831215 -0.649647 -3.2558e-21)
(0.789509 -0.615373 -1.64323e-22)
(0.74533 -0.575344 1.24931e-21)
(0.69838 -0.537559 2.00588e-21)
(0.636368 -0.512052 -3.43087e-21)
(0.560777 -0.481693 1.2146e-21)
(0.50424 -0.39677 -1.24101e-21)
(0.500424 -0.230739 3.22655e-21)
(0.545304 -0.0185521 -1.95595e-23)
(0.614761 0.181754 1.68079e-21)
(0.686919 0.336805 -1.3205e-21)
(0.749045 0.438498 -7.67651e-22)
(0.798956 0.491516 6.43336e-22)
(0.835116 0.515591 -9.87615e-22)
(0.849157 0.544005 2.46349e-21)
(0.836332 0.589967 -1.66744e-21)
(0.808384 0.616136 2.01763e-21)
(0.786697 0.561012 1.45048e-21)
(0.785039 0.397221 -1.65949e-21)
(0.787181 -0.25516 6.98137e-21)
(0.863757 -0.450545 1.2078e-21)
(0.903344 -0.588298 -4.15929e-21)
(0.904582 -0.654664 1.99271e-21)
(0.880167 -0.666301 1.73026e-21)
(0.843249 -0.645864 1.14732e-21)
(0.799412 -0.611398 -1.63118e-21)
(0.753437 -0.571213 2.10937e-21)
(0.705958 -0.532218 -3.84643e-21)
(0.644757 -0.504929 -4.43537e-23)
(0.5689 -0.475822 3.41029e-21)
(0.508662 -0.39721 -3.31963e-21)
(0.49945 -0.23902 -1.19539e-21)
(0.540449 -0.0314607 -6.32941e-22)
(0.608021 0.168405 5.90025e-22)
(0.679979 0.325543 -2.61889e-22)
(0.743272 0.430117 -1.12899e-21)
(0.79518 0.485778 1.90713e-22)
(0.833412 0.512185 1.59552e-21)
(0.849163 0.542857 -7.09778e-24)
(0.837815 0.590953 -1.41513e-21)
(0.811314 0.618857 -1.95248e-21)
(0.790958 0.564839 1.87446e-22)
(0.790325 0.401271 3.02676e-21)
(0.811808 -0.257367 -5.40017e-21)
(0.88833 -0.450727 -5.42938e-21)
(0.92534 -0.5864 -4.37394e-21)
(0.922946 -0.651382 7.72432e-21)
(0.894983 -0.66248 -4.47831e-21)
(0.855207 -0.641861 3.21167e-21)
(0.809348 -0.607303 -1.43671e-21)
(0.761635 -0.567084 -2.00144e-21)
(0.71357 -0.527065 -1.163e-22)
(0.653223 -0.497975 -2.31261e-21)
(0.57738 -0.469771 -1.14975e-22)
(0.513788 -0.397144 2.76094e-21)
(0.499151 -0.246886 2.25178e-21)
(0.536051 -0.0442971 -2.71128e-21)
(0.601555 0.154888 -2.0283e-22)
(0.673175 0.313978 2.83478e-22)
(0.737552 0.421392 3.26382e-22)
(0.791411 0.479717 -1.74638e-21)
(0.831699 0.50849 1.25303e-21)
(0.849182 0.541428 -2.88131e-22)
(0.839345 0.591673 -7.56892e-22)
(0.814305 0.621409 2.9271e-22)
(0.795273 0.568681 -2.30277e-21)
(0.795647 0.40553 -2.25663e-22)
(0.835998 -0.259209 -2.57225e-20)
(0.912499 -0.450356 2.59945e-20)
(0.946933 -0.583891 -1.66625e-20)
(0.940992 -0.647582 7.26917e-22)
(0.909618 -0.658295 4.21966e-21)
(0.867082 -0.637651 -2.91852e-21)
(0.819304 -0.6031 -2.26656e-21)
(0.769924 -0.562958 2.4444e-21)
(0.72121 -0.5221 7.24204e-22)
(0.661742 -0.491219 -2.25581e-21)
(0.586172 -0.463578 1.35496e-21)
(0.519588 -0.396579 -1.39733e-22)
(0.499546 -0.254295 -6.54256e-22)
(0.532123 -0.0569814 2.56428e-21)
(0.595369 0.14123 1.68363e-21)
(0.666513 0.302124 5.34305e-22)
(0.731885 0.412325 -2.5503e-21)
(0.787642 0.473332 9.46574e-22)
(0.829971 0.504504 6.20491e-22)
(0.849205 0.539709 -4.91317e-22)
(0.840912 0.592118 1.03526e-21)
(0.817346 0.623784 -7.35303e-23)
(0.79963 0.57253 -2.082e-21)
(0.800992 0.409993 1.57557e-21)
(0.859788 -0.260726 -2.09573e-20)
(0.936253 -0.449453 1.53157e-20)
(0.968097 -0.580788 8.61863e-21)
(0.958697 -0.643284 -7.4663e-21)
(0.924059 -0.65376 -9.82785e-21)
(0.878866 -0.633247 5.66711e-21)
(0.829269 -0.5988 -8.00216e-22)
(0.778299 -0.558834 -2.20213e-21)
(0.728875 -0.517324 2.29147e-22)
(0.67029 -0.484684 8.03536e-22)
(0.595232 -0.457286 -1.00016e-22)
(0.52603 -0.395524 1.03051e-21)
(0.500648 -0.26121 1.24723e-21)
(0.52868 -0.0694773 -2.68166e-21)
(0.589469 0.127458 1.68435e-22)
(0.659997 0.28999 2.72456e-22)
(0.726272 0.402922 -2.71971e-22)
(0.783871 0.466624 1.0127e-21)
(0.82822 0.500221 1.38499e-21)
(0.849223 0.537695 -2.05139e-21)
(0.842504 0.59228 -6.92178e-23)
(0.820427 0.625972 2.82108e-22)
(0.804018 0.57638 3.62341e-21)
(0.806348 0.414657 -1.60073e-21)
(0.883219 -0.261948 -1.42024e-20)
(0.959579 -0.448036 1.17819e-21)
(0.988807 -0.577112 -1.25366e-20)
(0.976043 -0.638507 1.67787e-20)
(0.938295 -0.648893 -1.08838e-20)
(0.890551 -0.62866 3.16588e-21)
(0.839232 -0.594411 -5.39297e-21)
(0.786757 -0.554709 8.1982e-21)
(0.736564 -0.512732 -4.97682e-21)
(0.678847 -0.478394 2.66186e-21)
(0.604516 -0.450936 9.63167e-22)
(0.533074 -0.393997 -2.35214e-21)
(0.50247 -0.267598 -2.92406e-22)
(0.525743 -0.0817488 -1.60862e-21)
(0.583866 0.113599 1.18765e-21)
(0.653632 0.277593 2.72536e-22)
(0.720714 0.393186 -1.66746e-21)
(0.780094 0.459592 9.73195e-22)
(0.826439 0.495637 3.63155e-22)
(0.849229 0.535379 -9.34553e-22)
(0.844113 0.59215 2.51982e-22)
(0.823535 0.627965 -1.34085e-21)
(0.808427 0.580222 6.05239e-22)
(0.811701 0.419516 -9.15128e-22)
(0.906337 -0.262903 1.2865e-20)
(0.982463 -0.446121 -2.74634e-21)
(1.00904 -0.572881 -5.5026e-21)
(0.993011 -0.633275 1.0282e-21)
(0.952313 -0.64371 -1.23322e-21)
(0.902132 -0.623902 1.77556e-21)
(0.849179 -0.589945 -1.07925e-21)
(0.795294 -0.550584 3.97487e-21)
(0.744275 -0.50832 3.6212e-22)
(0.687394 -0.472367 1.18211e-21)
(0.613981 -0.44457 -3.25228e-21)
(0.540676 -0.392021 2.43622e-21)
(0.505018 -0.273433 5.59913e-22)
(0.523335 -0.0937512 -5.57978e-22)
(0.578572 0.0996854 -1.17913e-21)
(0.647427 0.264946 1.35356e-21)
(0.715213 0.383125 -7.90286e-22)
(0.776308 0.452237 -2.43527e-22)
(0.824623 0.49075 2.06383e-21)
(0.849213 0.532755 -4.85766e-22)
(0.845727 0.591723 -5.14608e-22)
(0.826661 0.629753 3.83032e-21)
(0.812844 0.584047 -2.5277e-22)
(0.817039 0.424564 7.97956e-24)
(0.929182 -0.263611 -1.4361e-20)
(1.00489 -0.44372 1.55951e-21)
(1.02876 -0.568113 -2.07901e-21)
(1.00958 -0.627607 1.70902e-20)
(0.966102 -0.638227 -4.0479e-21)
(0.913604 -0.618981 6.80081e-22)
(0.859101 -0.585411 -2.00784e-22)
(0.803903 -0.546458 -7.04402e-21)
(0.752009 -0.504079 1.50177e-21)
(0.695913 -0.466619 3.32489e-21)
(0.62359 -0.438231 9.17879e-22)
(0.548788 -0.389623 -1.4101e-21)
(0.508292 -0.278692 5.10803e-23)
(0.521481 -0.105437 1.05054e-22)
(0.573603 0.0857511 6.45309e-22)
(0.64139 0.252067 -1.34896e-21)
(0.709773 0.372746 -2.47129e-21)
(0.772509 0.44456 9.59069e-22)
(0.822764 0.485557 -3.91251e-22)
(0.849166 0.529817 -1.92095e-21)
(0.847336 0.590989 1.17091e-21)
(0.829795 0.631328 5.98195e-22)
(0.81726 0.587847 9.99396e-22)
(0.82235 0.429796 -1.02899e-21)
(0.951794 -0.264081 1.60406e-20)
(1.02684 -0.440842 1.26457e-20)
(1.04796 -0.562828 -1.47432e-20)
(1.02574 -0.621525 1.0795e-20)
(0.979652 -0.63246 -3.77741e-21)
(0.924962 -0.613909 -6.60925e-22)
(0.868988 -0.580819 6.65293e-21)
(0.812578 -0.542331 -1.40392e-21)
(0.759768 -0.500001 -5.2388e-22)
(0.704388 -0.461161 -6.10882e-22)
(0.633302 -0.431958 -1.32706e-21)
(0.55736 -0.386837 2.87049e-21)
(0.512286 -0.28336 -1.05401e-21)
(0.52021 -0.116761 1.97774e-21)
(0.56898 0.0718323 -3.12049e-21)
(0.635532 0.238975 -1.47074e-21)
(0.704397 0.362057 3.00214e-21)
(0.768697 0.436565 -6.96823e-22)
(0.820857 0.480056 -1.37712e-22)
(0.849081 0.526562 2.03454e-21)
(0.84893 0.589941 -1.56708e-21)
(0.832925 0.632678 -3.81188e-22)
(0.821664 0.59161 -1.34096e-21)
(0.827622 0.435203 3.36086e-21)
(1.0483 -0.437495 -1.82257e-20)
(1.06661 -0.557044 -1.38081e-21)
(1.04148 -0.615052 6.53875e-21)
(0.992954 -0.626427 8.90635e-21)
(0.936202 -0.608694 3.3451e-21)
(0.878829 -0.576177 1.37497e-21)
(0.821311 -0.538204 -5.22035e-21)
(0.767555 -0.496074 4.45349e-22)
(0.712806 -0.456003 7.12154e-22)
(0.643084 -0.425793 2.04486e-22)
(0.566341 -0.383698 -7.56406e-22)
(0.516984 -0.28743 -5.30461e-22)
(0.519552 -0.127679 -1.86816e-21)
(0.564725 0.0579679 1.22263e-22)
(0.629864 0.22569 5.84756e-22)
(0.699089 0.351068 1.07428e-21)
(0.764868 0.428254 -7.89244e-22)
(0.818896 0.474248 -2.04525e-21)
(0.848948 0.522985 2.00406e-23)
(0.850499 0.588573 -5.57956e-22)
(0.836042 0.633795 -7.73607e-22)
(0.826045 0.595326 3.24328e-21)
(0.832843 0.440777 1.77557e-21)
(1.06923 -0.433682 -1.6151e-21)
(1.08468 -0.550781 3.30879e-21)
(1.05678 -0.608209 -9.96498e-21)
(1.006 -0.620144 2.04489e-21)
(0.947321 -0.603346 7.49477e-21)
(0.888618 -0.571493 -8.33911e-21)
(0.830093 -0.534077 1.25413e-21)
(0.775373 -0.492288 9.95519e-22)
(0.721157 -0.451149 1.61433e-21)
(0.652902 -0.419771 -2.85025e-21)
(0.575681 -0.380248 1.74428e-22)
(0.52236 -0.290899 3.98866e-21)
(0.519535 -0.13815 -1.39998e-21)
(0.560867 0.0441992 5.13535e-22)
(0.624402 0.212237 2.73472e-22)
(0.693856 0.33979 -2.11909e-21)
(0.761022 0.419632 2.23598e-21)
(0.816875 0.46813 -1.84453e-21)
(0.848759 0.519084 2.5006e-21)
(0.852032 0.586879 -1.70459e-21)
(0.839135 0.634668 -4.38269e-21)
(0.830395 0.598984 6.66226e-22)
(0.838 0.44651 1.95982e-21)
(1.08961 -0.429407 9.66393e-21)
(1.10216 -0.544057 -6.54856e-21)
(1.07164 -0.601018 5.39617e-21)
(1.01878 -0.613627 1.33314e-21)
(0.958315 -0.597871 1.20103e-21)
(0.898346 -0.566775 -4.37029e-21)
(0.838914 -0.529953 6.17501e-22)
(0.783225 -0.488629 2.92198e-21)
(0.72943 -0.4466 3.08842e-22)
(0.662725 -0.41393 5.31034e-22)
(0.585331 -0.376527 -2.22717e-21)
(0.528382 -0.293774 1.76592e-21)
(0.520184 -0.148138 -4.01934e-22)
(0.55744 0.0305648 4.2466e-22)
(0.619166 0.198639 -2.34681e-21)
(0.688706 0.328237 3.48868e-21)
(0.75716 0.410705 4.27318e-22)
(0.814789 0.461705 -2.17764e-21)
(0.848504 0.514854 3.29281e-21)
(0.853519 0.584851 1.69295e-21)
(0.842196 0.635286 1.54466e-21)
(0.834704 0.602571 -5.21777e-21)
(0.843084 0.452391 7.17555e-23)
(1.1094 -0.424672 2.32534e-20)
(1.11903 -0.536894 -9.09467e-21)
(1.08604 -0.593502 -7.01127e-21)
(1.0313 -0.606893 1.96427e-21)
(0.96918 -0.592279 6.84101e-21)
(0.908008 -0.562029 -3.15583e-21)
(0.847763 -0.525834 3.81444e-21)
(0.791116 -0.485085 -1.26617e-21)
(0.737621 -0.442355 4.4347e-22)
(0.672522 -0.408301 -1.59365e-21)
(0.595245 -0.372582 -1.15859e-22)
(0.535008 -0.296065 -2.58977e-21)
(0.521517 -0.157609 1.12748e-21)
(0.55448 0.0171227 -3.49595e-22)
(0.614176 0.184926 -1.04786e-21)
(0.683648 0.316423 1.96608e-21)
(0.753282 0.401479 -1.4994e-21)
(0.812634 0.454973 2.66811e-21)
(0.848177 0.510296 -4.61089e-22)
(0.854949 0.582485 8.41876e-22)
(0.845213 0.635639 -8.55793e-22)
(0.838962 0.606075 -1.56167e-21)
(0.848084 0.458411 -2.30806e-21)
(1.12857 -0.419477 6.3476e-21)
(1.13525 -0.529311 -1.13024e-20)
(1.09998 -0.585683 1.3483e-20)
(1.04354 -0.599959 -1.09625e-20)
(0.979914 -0.586576 1.6803e-20)
(0.917599 -0.557262 -1.19013e-20)
(0.856628 -0.521723 2.31022e-21)
(0.799048 -0.481642 -8.72592e-22)
(0.745723 -0.438408 2.55019e-21)
(0.682267 -0.402916 -6.40454e-22)
(0.605379 -0.368456 3.24263e-21)
(0.542192 -0.29779 -2.58735e-21)
(0.523546 -0.166538 3.17667e-21)
(0.552028 0.00413946 -1.88308e-21)
(0.609461 0.17113 5.91987e-22)
(0.678694 0.304364 8.65646e-22)
(0.749391 0.391963 -2.1933e-21)
(0.810405 0.447938 -9.96182e-22)
(0.847767 0.505407 3.67557e-21)
(0.856314 0.579775 -2.74193e-22)
(0.848178 0.635716 2.21319e-21)
(0.843162 0.609482 -5.41967e-22)
(0.852988 0.464557 -1.56268e-21)
(1.14707 -0.413825 2.36624e-21)
(1.15083 -0.521331 -3.69486e-20)
(1.11346 -0.577582 5.52984e-21)
(1.0555 -0.592838 -2.08916e-22)
(0.990514 -0.580768 9.64389e-21)
(0.927114 -0.552477 -5.58977e-21)
(0.865499 -0.517622 7.10145e-21)
(0.807025 -0.478288 -3.34787e-21)
(0.753737 -0.43475 -8.03151e-22)
(0.691933 -0.3978 2.60849e-21)
(0.615693 -0.364195 -1.57386e-21)
(0.549885 -0.298972 9.92693e-22)
(0.526289 -0.174897 1.18029e-21)
(0.550129 -0.00873666 1.12973e-21)
(0.60503 0.157272 -2.17863e-21)
(0.67386 0.292079 -1.25165e-21)
(0.745491 0.382164 1.16972e-21)
(0.808099 0.440602 1.01493e-21)
(0.847269 0.500189 -1.80968e-21)
(0.857602 0.576716 -8.41545e-23)
(0.851083 0.635506 -3.00486e-21)
(0.847296 0.612779 2.63703e-21)
(0.857789 0.470818 5.43208e-21)
(1.16486 -0.407718 -7.43201e-21)
(1.16574 -0.512976 4.19649e-21)
(1.12647 -0.56922 7.35522e-21)
(1.06718 -0.585544 -6.71706e-21)
(1.00098 -0.574861 -4.44658e-21)
(0.936551 -0.547676 3.99472e-23)
(0.874364 -0.513536 4.0492e-21)
(0.815048 -0.475008 -1.63806e-22)
(0.761664 -0.431369 -3.13327e-21)
(0.701496 -0.392979 1.9894e-21)
(0.626149 -0.359845 -2.75937e-22)
(0.558039 -0.299639 -1.42293e-21)
(0.52969 -0.182689 -7.57863e-22)
(0.548824 -0.0216191 6.13529e-22)
(0.600963 0.143403 5.04344e-23)
(0.669167 0.279589 -1.28383e-21)
(0.741588 0.372094 1.94371e-21)
(0.805714 0.432971 -2.64873e-21)
(0.846673 0.494641 4.04841e-21)
(0.858803 0.573304 -5.2446e-22)
(0.853918 0.634998 -1.96485e-21)
(0.851356 0.615952 -8.13153e-22)
(0.862476 0.477181 -5.1201e-21)
(1.18189 -0.401161 1.83929e-20)
(1.17998 -0.504271 -1.41928e-20)
(1.13901 -0.560622 6.21383e-21)
(1.07857 -0.578098 6.9921e-21)
(1.0113 -0.568865 2.27288e-22)
(0.945907 -0.542869 -1.45166e-21)
(0.883212 -0.509472 3.94786e-23)
(0.823117 -0.471796 -7.03642e-22)
(0.769506 -0.428251 9.03032e-22)
(0.710933 -0.388474 1.05039e-21)
(0.636709 -0.355453 -1.71773e-21)
(0.566607 -0.299821 -2.76911e-22)
(0.533723 -0.189902 -1.07833e-21)
(0.548151 -0.0340539 3.51094e-21)
(0.597301 0.129559 -1.76121e-21)
(0.664644 0.266918 7.40982e-22)
(0.737694 0.361765 9.86433e-22)
(0.80325 0.425051 -1.26037e-21)
(0.845973 0.488766 -1.69634e-21)
(0.85991 0.569535 1.07009e-21)
(0.856674 0.634181 2.50689e-21)
(0.855334 0.618986 -3.72007e-21)
(0.867041 0.483631 -6.01444e-21)
(1.19812 -0.394162 1.12632e-20)
(1.19352 -0.49525 -8.35849e-21)
(1.15109 -0.551823 1.05047e-20)
(1.08969 -0.57053 9.68788e-21)
(1.02148 -0.562804 -1.30307e-20)
(0.955181 -0.53807 1.14246e-21)
(0.892032 -0.505445 1.78149e-21)
(0.831231 -0.468649 3.21808e-21)
(0.777271 -0.425386 -2.14963e-21)
(0.720224 -0.384306 -9.7288e-22)
(0.64734 -0.351066 -8.28687e-22)
(0.575546 -0.299552 1.55725e-21)
(0.538349 -0.196529 -1.30755e-21)
(0.548138 -0.0460582 1.7133e-21)
(0.594103 0.115773 -1.08855e-21)
(0.660331 0.25409 -5.89615e-22)
(0.733827 0.351192 1.98638e-22)
(0.80071 0.416848 1.65644e-21)
(0.845163 0.482566 -2.91697e-21)
(0.86091 0.565408 2.10616e-21)
(0.859344 0.633045 5.82463e-21)
(0.859224 0.621864 -9.73662e-21)
(0.871476 0.490152 4.07285e-21)
(1.2135 -0.386731 -2.06053e-20)
(1.20638 -0.485938 1.21762e-20)
(1.1627 -0.542839 3.99604e-21)
(1.10052 -0.562841 2.9807e-21)
(1.03152 -0.556667 1.51032e-22)
(0.964373 -0.533266 -7.84776e-21)
(0.900815 -0.501446 3.90395e-21)
(0.839389 -0.465545 1.81859e-21)
(0.784967 -0.422746 9.95868e-22)
(0.729352 -0.38048 -7.19995e-23)
(0.658009 -0.346722 -1.97353e-21)
(0.58482 -0.29886 1.37945e-21)
(0.543517 -0.202565 1.24418e-22)
(0.548798 -0.0576418 -2.60753e-22)
(0.59144 0.102078 -5.83826e-22)
(0.656289 0.241135 1.05152e-21)
(0.730019 0.34039 -5.82103e-22)
(0.798106 0.408372 1.10414e-21)
(0.844242 0.476046 -7.44294e-22)
(0.861798 0.560919 1.8218e-21)
(0.861921 0.631579 -1.52467e-21)
(0.863018 0.624573 3.10175e-21)
(0.875776 0.49673 -3.1906e-21)
(1.22798 -0.378877 -4.49196e-22)
(1.21855 -0.476312 2.01037e-20)
(1.17386 -0.533602 -3.7539e-22)
(1.11106 -0.554943 4.24058e-21)
(1.04141 -0.550361 -8.43078e-21)
(0.97348 -0.528372 -1.32767e-21)
(0.909552 -0.497409 -9.21581e-22)
(0.847585 -0.462422 5.38958e-21)
(0.792603 -0.420264 -3.25854e-21)
(0.738299 -0.37697 -5.50596e-22)
(0.668681 -0.342438 1.22976e-21)
(0.594395 -0.297757 -2.32801e-21)
(0.549172 -0.207997 5.96892e-22)
(0.550118 -0.0687874 1.74219e-21)
(0.589392 0.0885205 -1.67366e-21)
(0.652607 0.228089 7.10418e-22)
(0.726328 0.329381 -5.78024e-24)
(0.795463 0.399634 7.82053e-22)
(0.843211 0.469212 -3.90661e-23)
(0.862566 0.556067 -2.4687e-22)
(0.864397 0.629773 2.0051e-21)
(0.866711 0.627095 -6.51588e-21)
(0.879942 0.503343 5.44735e-21)
(1.24155 -0.370614 -2.03694e-20)
(1.23003 -0.466363 1.63319e-21)
(1.18458 -0.524088 1.69506e-21)
(1.12133 -0.54681 1.1889e-21)
(1.05115 -0.543866 3.30783e-21)
(0.9825 -0.523371 1.38029e-21)
(0.918231 -0.493331 1.34662e-21)
(0.85581 -0.459274 -1.16492e-21)
(0.800188 -0.417922 1.13437e-22)
(0.747051 -0.373786 -2.93119e-22)
(0.679325 -0.338272 -4.04088e-22)
(0.60424 -0.296302 1.59968e-21)
(0.55526 -0.212848 -1.30497e-21)
(0.552062 -0.0794737 2.0763e-21)
(0.588042 0.0751606 -1.89724e-21)
(0.649413 0.215009 9.37738e-22)
(0.722855 0.318204 -5.20466e-22)
(0.792838 0.390657 1.16167e-23)
(0.842092 0.462078 4.3661e-23)
(0.863214 0.550858 1.10834e-21)
(0.866771 0.627615 -1.13599e-21)
(0.870298 0.629406 -3.70318e-21)
(0.883989 0.509944 6.21084e-21)
(1.24085 -0.456421 1.04503e-20)
(1.19487 -0.514788 -8.65153e-21)
(1.13132 -0.538996 1.60209e-22)
(1.06073 -0.537714 1.04557e-20)
(0.99143 -0.518728 -4.36484e-21)
(0.926845 -0.489601 -6.42833e-22)
(0.864057 -0.456409 6.00334e-21)
(0.807734 -0.415951 -3.14631e-21)
(0.755597 -0.37114 1.27229e-21)
(0.689906 -0.334443 -1.24647e-22)
(0.614331 -0.294696 -2.45682e-22)
(0.56174 -0.217303 1.8086e-21)
(0.55457 -0.0898544 -1.45481e-21)
(0.587467 0.0619167 7.55641e-22)
(0.646892 0.201874 -1.21178e-21)
(0.719783 0.30688 1.37939e-21)
(0.790358 0.381469 -1.134e-21)
(0.840943 0.45466 -1.07367e-21)
(0.863763 0.545298 2.55566e-21)
(0.869054 0.625104 -2.76438e-21)
(0.873788 0.631487 -3.17517e-21)
(0.887978 0.516525 2.19273e-21)
(1.25099 -0.446995 -1.08918e-22)
(1.20471 -0.506401 4.31421e-21)
(1.14103 -0.532233 3.91996e-21)
(1.07017 -0.532567 -7.0142e-21)
(1.00029 -0.514995 -3.79966e-21)
(0.935405 -0.486663 1.98302e-21)
(0.872331 -0.454161 -1.9786e-21)
(0.815262 -0.414586 -8.66627e-22)