/*--------------------------------*- C++ -*----------------------------------*\
  =========                 |
  \\      /  F ield         | OpenFOAM: The Open Source CFD Toolbox
   \\    /   O peration     | Website:  https://openfoam.org
    \\  /    A nd           | Version:  7
     \\/     M anipulation  |
\*---------------------------------------------------------------------------*/
FoamFile
{
    version     2.0;
    format      ascii;
    class       volVectorField;
    location    "180";
    object      U;
}
// * * * * * * * * * * * * * * * * * * * * * * * * * * * * * * * * * * * * * //

dimensions      [0 1 -1 0 0 0 0];

internalField   nonuniform List<vector> 
7156
(
(1.1758 0.333915 2.92475e-20)
(1.17933 0.363315 -1.18744e-19)
(1.17411 0.349505 -9.26181e-20)
(1.16838 0.337049 -1.37641e-19)
(1.17612 0.381384 2.56551e-20)
(1.17113 0.366634 1.4064e-19)
(1.16626 0.352636 -4.03192e-22)
(1.16084 0.340024 -5.88022e-20)
(1.17253 0.400295 5.58267e-20)
(1.16741 0.384744 1.08446e-19)
(1.16279 0.369772 1.83834e-19)
(1.15828 0.355595 6.05026e-20)
(1.15319 0.342834 -4.53087e-21)
(1.16869 0.420221 -4.93912e-20)
(1.16331 0.4037 3.34197e-20)
(1.15855 0.387911 -1.4872e-19)
(1.15432 0.372725 -1.67156e-19)
(1.15019 0.358375 4.60338e-20)
(1.14543 0.345474 1.12423e-19)
(1.171 0.45949 3.19155e-20)
(1.16465 0.441211 -1.26241e-22)
(1.15896 0.423675 3.18179e-20)
(1.15394 0.406899 6.12505e-20)
(1.14956 0.390879 -2.64835e-20)
(1.14572 0.375485 -4.56513e-20)
(1.14198 0.360971 -1.11718e-19)
(1.13758 0.347941 3.85196e-20)
(1.16687 0.482594 4.41078e-20)
(1.16034 0.463284 -6.37841e-20)
(1.15439 0.444714 2.12561e-20)
(1.14907 0.426909 7.43401e-20)
(1.14443 0.409887 -9.01809e-20)
(1.14043 0.393643 6.99228e-20)
(1.13699 0.378049 4.20737e-20)
(1.13365 0.363379 5.11064e-20)
(1.12962 0.350228 -1.94691e-20)
(1.16217 0.506778 -1.80703e-19)
(1.15562 0.486448 2.93403e-22)
(1.14951 0.466832 -1.09369e-19)
(1.14397 0.447981 -2.01722e-20)
(1.13905 0.429918 -1.02432e-19)
(1.13478 0.412657 2.80475e-20)
(1.13117 0.396197 4.10349e-20)
(1.12813 0.38041 1.31085e-19)
(1.12521 0.365593 7.3886e-22)
(1.12156 0.352332 -2.85461e-20)
(1.15666 0.531979 -1.54931e-19)
(1.15029 0.510689 6.39927e-20)
(1.14419 0.490033 -4.1596e-20)
(1.13853 0.470124 2.03409e-19)
(1.13341 0.451006 -9.75342e-20)
(1.12888 0.432694 8.30145e-20)
(1.12501 0.415205 -3.62281e-20)
(1.12178 0.398536 2.59095e-20)
(1.11916 0.382565 -1.63361e-19)
(1.11666 0.367608 2.43586e-20)
(1.11341 0.354248 -1.40013e-20)
(1.15 0.558039 -1.76225e-19)
(1.14412 0.535949 3.76542e-20)
(1.13823 0.514307 1.03085e-19)
(1.1326 0.493342 1.15451e-19)
(1.1274 0.473155 -1.1049e-19)
(1.12271 0.453782 1.04951e-19)
(1.11859 0.435234 -1.50841e-19)
(1.11511 0.417525 1.53845e-19)
(1.11227 0.400656 -1.09745e-19)
(1.11006 0.384507 1.10663e-19)
(1.108 0.369419 -7.88639e-20)
(1.10517 0.355971 7.19487e-20)
(1.14168 0.584629 8.50197e-20)
(1.1368 0.56208 5.01805e-20)
(1.1314 0.539602 8.00851e-20)
(1.126 0.517627 -6.20252e-21)
(1.12086 0.496369 -8.01655e-20)
(1.11613 0.475918 -7.53829e-20)
(1.11188 0.456303 -5.31265e-20)
(1.10818 0.437531 2.64788e-20)
(1.10509 0.419614 1.27293e-20)
(1.10264 0.402552 -3.87049e-20)
(1.10085 0.386233 7.75555e-20)
(1.09923 0.371022 1.55412e-20)
(1.09683 0.357497 -1.02206e-19)
(1.13091 0.611145 7.05687e-20)
(1.12782 0.588764 -2.49214e-19)
(1.12339 0.565774 1.56429e-19)
(1.11849 0.542929 -1.20433e-19)
(1.1136 0.52064 -1.08346e-19)
(1.10897 0.499106 4.74648e-20)
(1.10473 0.478406 9.29259e-20)
(1.10093 0.458564 1.64153e-19)
(1.09765 0.43958 -1.1209e-19)
(1.09496 0.421465 -8.82808e-20)
(1.09291 0.40422 3.31543e-20)
(1.09154 0.387739 -1.03627e-19)
(1.09036 0.372412 -1.26848e-20)
(1.08841 0.358822 3.35771e-20)
(1.11644 0.615413 8.21619e-20)
(1.11374 0.59252 1.96182e-19)
(1.10979 0.569115 9.65561e-20)
(1.10541 0.545924 3.95144e-20)
(1.10106 0.523339 5.68741e-20)
(1.09695 0.501546 -9.65569e-21)
(1.0932 0.480613 -4.30235e-21)
(1.08987 0.460558 -1.47117e-19)
(1.08702 0.441376 -1.5132e-20)
(1.08473 0.423076 8.4922e-20)
(1.08307 0.405657 2.19857e-20)
(1.08211 0.389021 7.19227e-20)
(1.08138 0.373585 -1.9078e-20)
(1.0799 0.35994 4.80681e-20)
(1.10149 0.641024 4.5781e-20)
(1.10172 0.619265 1.0569e-19)
(1.09945 0.59589 -1.01169e-19)
(1.09601 0.572093 -9.23185e-20)
(1.09218 0.548578 8.26978e-20)
(1.08837 0.525718 -1.05024e-19)
(1.0848 0.503682 4.0403e-20)
(1.08156 0.482533 -3.93445e-20)
(1.07871 0.46228 -3.43752e-20)
(1.0763 0.442914 1.38405e-19)
(1.07441 0.424441 -1.08089e-20)
(1.07313 0.406859 -6.79053e-20)
(1.07259 0.390076 -2.6146e-20)
(1.0723 0.374538 3.46963e-20)
(1.0713 0.360848 -1.16014e-21)
(1.08129 0.664021 1.12091e-20)
(1.08622 0.645025 -7.11023e-20)
(1.08678 0.622695 -5.99982e-20)
(1.08497 0.598864 -6.95416e-20)
(1.08206 0.574702 3.08958e-20)
(1.07879 0.550885 -3.0935e-20)
(1.07555 0.527768 1.22478e-19)
(1.07253 0.505509 -3.32178e-20)
(1.06981 0.48416 -3.75066e-20)
(1.06745 0.463725 2.31088e-20)
(1.06549 0.44419 -6.92456e-20)
(1.06401 0.425557 2.49666e-20)
(1.06312 0.407823 -2.15618e-20)
(1.06297 0.390901 1.78179e-20)
(1.06313 0.375266 -2.8909e-20)
(1.06262 0.36154 -5.83723e-21)
(1.05353 0.682079 -2.25583e-19)
(1.06561 0.668237 -8.6488e-20)
(1.0707 0.648563 -1.46027e-20)
(1.07162 0.625693 4.50896e-21)
(1.07031 0.601437 -1.1239e-19)
(1.06796 0.576935 5.96289e-22)
(1.06527 0.552839 4.72795e-20)
(1.06261 0.529485 -3.84705e-20)
(1.06015 0.50702 5.66869e-20)
(1.05797 0.485488 4.05053e-20)
(1.0561 0.464887 2.5947e-20)
(1.0546 0.445199 1.46453e-20)
(1.05353 0.426421 -9.81235e-20)
(1.05303 0.408546 7.33818e-20)
(1.05327 0.391495 -1.62609e-20)
(1.05386 0.375767 -1.49843e-20)
(1.05385 0.362013 2.12868e-21)
(1.0152 0.691998 -2.85786e-19)
(1.03765 0.686585 -1.20182e-19)
(1.04965 0.671948 6.73456e-21)
(1.05495 0.651631 1.83769e-19)
(1.05627 0.628254 -1.14148e-20)
(1.05548 0.603601 5.62798e-20)
(1.05371 0.578784 -4.16294e-20)
(1.05162 0.554431 -1.61207e-20)
(1.04956 0.530862 -2.98556e-20)
(1.04767 0.508209 -3.27933e-20)
(1.04604 0.486511 6.11577e-20)
(1.04469 0.46576 -7.24484e-20)
(1.04365 0.445935 1.51923e-20)
(1.043 0.427027 9.27434e-21)
(1.04287 0.409025 -3.07569e-20)
(1.04349 0.391855 -1.28956e-21)
(1.0445 0.376038 7.59679e-21)
(1.045 0.362259 2.20362e-21)
(0.96262 0.689649 -4.03333e-20)
(0.999385 0.69686 2.96797e-20)
(1.02144 0.690545 3.54699e-19)
(1.03342 0.675148 -2.81313e-20)
(1.03898 0.654221 -1.11813e-19)
(1.04074 0.63037 3.20869e-20)
(1.0405 0.60535 -9.03723e-21)
(1.03933 0.580244 1.05054e-19)
(1.03786 0.555658 -7.20892e-20)
(1.0364 0.531892 -2.94866e-20)
(1.03511 0.509071 -1.98816e-20)
(1.03403 0.487224 -4.89601e-20)
(1.0332 0.466341 3.00856e-20)
(1.03265 0.446394 -5.86018e-21)
(1.03243 0.427372 3.9963e-20)
(1.03267 0.409257 -1.06592e-20)
(1.03365 0.391979 2.71409e-21)
(1.03505 0.376077 6.18528e-21)
(1.03608 0.362272 -2.75097e-21)
(0.947231 0.694894 3.75538e-20)
(0.983212 0.701136 2.98433e-19)
(1.00494 0.69395 -2.18317e-19)
(1.01696 0.677827 3.69718e-20)
(1.02281 0.656327 3.13329e-21)
(1.02505 0.632035 1.00767e-19)
(1.02538 0.606678 -3.76607e-20)
(1.02483 0.581309 6.48693e-20)
(1.02399 0.556512 6.9621e-21)
(1.02315 0.532571 -3.82109e-21)
(1.02246 0.5096 3.39284e-20)
(1.02195 0.487622 7.34312e-21)
(1.02166 0.466622 -7.00297e-20)
(1.0216 0.446571 2.0031e-20)
(1.02181 0.427451 -2.38195e-20)
(1.02244 0.409238 1.32598e-20)
(1.02376 0.391867 -4.29668e-21)
(1.02553 0.375879 -1.63195e-21)
(1.02708 0.362043 1.28311e-20)
(0.877112 0.675634 -2.08158e-19)
(0.931445 0.699524 -1.37228e-19)
(0.966707 0.704819 -1.87237e-19)
(0.988167 0.696793 -6.94264e-20)
(1.00027 0.679981 5.87712e-20)
(1.00646 0.657943 9.9858e-20)
(1.00921 0.633244 -7.49567e-20)
(1.01013 0.607579 -4.07796e-20)
(1.01022 0.581974 -2.31356e-20)
(1.01003 0.556989 4.10181e-20)
(1.00983 0.532894 -3.73329e-20)
(1.00974 0.509791 -4.46314e-21)
(1.00981 0.4877 2.56552e-20)
(1.01007 0.4666 2.25531e-20)
(1.01051 0.44646 3.29847e-21)
(1.01118 0.427259 -2.93525e-21)
(1.01219 0.408965 5.57358e-21)
(1.01384 0.391515 2.79148e-21)
(1.01594 0.375443 -9.24008e-21)
(1.01802 0.36156 1.11484e-21)
(0.784784 0.633374 -6.8989e-21)
(0.862139 0.680589 -1.20579e-19)
(0.915289 0.70353 1.03518e-19)
(0.949895 0.707901 1.36189e-19)
(0.971144 0.699068 5.57674e-20)
(0.983382 0.681603 6.83023e-20)
(0.989954 0.659063 -9.60672e-20)
(0.993235 0.63399 -8.28346e-20)
(0.99478 0.608048 1.1568e-20)
(0.995525 0.582233 3.01439e-20)
(0.995988 0.557084 -7.54582e-21)
(0.996429 0.532855 1.08527e-20)
(0.99696 0.50964 3.60542e-21)
(0.997623 0.487452 -1.27647e-20)
(0.998432 0.466269 1.01935e-20)
(0.999392 0.446057 -8.4564e-21)
(1.00053 0.426789 1.06484e-20)
(1.00195 0.40843 3.81507e-21)
(1.00391 0.390921 -9.4077e-21)
(1.0063 0.374762 2.33244e-20)
(1.00891 0.360804 1.59216e-20)
(0.771116 0.638519 -1.33297e-19)
(0.846767 0.684906 1.92607e-19)
(0.898793 0.706905 -1.6657e-19)
(0.932802 0.710374 -1.42903e-19)
(0.953896 0.700768 4.59315e-20)
(0.966316 0.682687 -4.22649e-20)
(0.973305 0.659683 6.93976e-21)
(0.977148 0.634269 8.40548e-20)
(0.979333 0.60808 -1.78951e-22)
(0.980747 0.582082 -1.01991e-20)
(0.98188 0.556793 2.33597e-20)
(0.982971 0.532452 -1.0505e-20)
(0.984129 0.509144 1.68912e-20)
(0.98539 0.486877 6.97295e-21)
(0.986765 0.465626 -3.65455e-21)
(0.988255 0.445356 3.60499e-21)
(0.989873 0.426037 4.682e-21)
(0.991711 0.407628 2.17656e-20)
(0.993996 0.390079 3.12427e-20)
(0.996641 0.373826 -1.63284e-20)
(0.999763 0.35974 -3.36259e-20)
(0.654437 0.567189 4.76969e-20)
(0.757035 0.643037 3.31435e-20)
(0.831025 0.688576 -2.28504e-19)
(0.881983 0.709639 2.90797e-19)
(0.915454 0.712233 8.50271e-20)
(0.936446 0.701888 6.63744e-20)
(0.949092 0.68323 -5.94572e-20)
(0.956532 0.659798 3.43915e-20)
(0.960963 0.634078 -3.37148e-20)
(0.963806 0.607671 1.06677e-20)
(0.965903 0.581517 2.73467e-20)
(0.967714 0.556111 6.77136e-21)
(0.969466 0.531679 1.24673e-20)
(0.971257 0.508297 4.3593e-21)
(0.973122 0.485968 -1.69702e-20)
(0.975071 0.464666 9.62019e-21)
(0.977102 0.444353 -2.82856e-20)
(0.979222 0.424995 -3.79424e-20)
(0.981504 0.406551 -3.36578e-20)
(0.984113 0.388983 -3.5858e-20)
(0.98697 0.372623 1.57264e-20)
(0.990607 0.358322 1.2977e-20)
(0.508847 0.460652 3.09089e-20)
(0.642219 0.571662 2.1854e-20)
(0.742568 0.646916 -1.11282e-21)
(0.814942 0.691589 -1.50265e-20)
(0.864887 0.711727 -2.55654e-20)
(0.897878 0.713471 -6.30889e-21)
(0.918818 0.702424 -4.62889e-20)
(0.931732 0.683226 4.79201e-21)
(0.939654 0.659403 -2.40672e-20)
(0.944697 0.633411 -1.01702e-20)
(0.948214 0.606817 -2.09363e-20)
(0.951006 0.580534 -3.22741e-20)
(0.953505 0.555036 3.63697e-23)
(0.955924 0.530535 -2.52739e-21)
(0.958353 0.507098 5.79468e-21)
(0.960828 0.484725 1.40672e-20)
(0.963357 0.463386 -1.38564e-20)
(0.965938 0.443043 3.30289e-20)
(0.968577 0.423657 -2.24107e-20)
(0.971332 0.40519 5.20695e-21)
(0.974276 0.387623 3.66123e-20)
(0.977326 0.371136 -2.48381e-20)
(0.981558 0.356502 7.8228e-21)
(0.499124 0.46468 7.89761e-20)
(0.629624 0.575542 4.07009e-20)
(0.727744 0.650148 8.23785e-20)
(0.798546 0.693939 -4.91862e-20)
(0.847533 0.713162 1.51072e-20)
(0.880097 0.714085 5.62709e-20)
(0.901035 0.702371 -8.13339e-20)
(0.914256 0.682673 6.70369e-21)
(0.92269 0.658496 6.3838e-21)
(0.928365 0.632266 -6.61103e-21)
(0.932572 0.605516 -1.01232e-21)
(0.93607 0.579131 1.11996e-20)
(0.939264 0.553564 -6.02508e-21)
(0.942355 0.529015 4.76749e-21)
(0.945428 0.505544 -2.31653e-20)
(0.948517 0.483145 8.62512e-22)
(0.951629 0.461785 4.00172e-20)
(0.954766 0.441424 2.4149e-20)
(0.957938 0.422018 -1.6228e-20)
(0.961188 0.403535 -8.14779e-20)
(0.964483 0.385976 4.94238e-20)
(0.967781 0.369328 5.06476e-20)
(0.972804 0.354267 -5.20705e-20)
(0.325656 0.316636 -2.64576e-20)
(0.489068 0.468203 -3.17225e-20)
(0.616678 0.578817 -2.62068e-21)
(0.712592 0.652723 -9.79074e-20)
(0.781866 0.695619 1.58563e-19)
(0.829949 0.713939 -1.23696e-19)
(0.86214 0.714071 -6.46127e-20)
(0.883121 0.701726 8.09592e-20)
(0.896685 0.681566 3.91502e-20)
(0.905659 0.657074 -2.42413e-20)
(0.911985 0.63064 1.78033e-20)
(0.916896 0.603764 -5.22338e-22)
(0.921108 0.577304 4.91645e-21)
(0.925004 0.551694 2.3379e-20)
(0.928772 0.527119 -1.28252e-20)
(0.932493 0.503634 1.83809e-20)
(0.936197 0.481226 -1.85126e-20)
(0.939895 0.459861 -1.84231e-20)
(0.94359 0.439495 -3.90025e-20)
(0.9473 0.420077 7.13643e-20)
(0.951051 0.401579 1.0676e-19)
(0.95472 0.384015 -9.18113e-20)
(0.958441 0.367104 -8.51304e-20)
(0.96438 0.351486 3.99549e-20)
(0.318885 0.319299 1.92538e-20)
(0.4787 0.471212 -2.17185e-20)
(0.603409 0.581478 8.64185e-21)
(0.69714 0.654635 -1.11218e-20)
(0.764931 0.696622 2.38772e-20)
(0.812162 0.714055 6.88136e-20)
(0.84403 0.713424 -1.49286e-20)
(0.865097 0.700487 -5.96769e-22)
(0.879039 0.679905 -1.64621e-20)
(0.888578 0.655135 1.40993e-20)
(0.895574 0.628531 4.19998e-21)
(0.901199 0.60156 3.74818e-21)
(0.906134 0.575052 -1.27843e-20)
(0.910738 0.549423 -2.15188e-20)
(0.915187 0.524845 2.55484e-20)
(0.919557 0.501365 7.76953e-21)
(0.923879 0.478968 1.66093e-20)
(0.928163 0.457615 2.12293e-20)
(0.932415 0.437259 -2.05252e-20)
(0.936659 0.417842 -1.0582e-19)
(0.9409 0.399335 -9.46642e-20)
(0.944983 0.381758 -4.03462e-20)
(0.949406 0.36446 1.14511e-19)
(0.955615 0.346994 6.1842e-20)
(0.1189 0.123824 -3.91363e-20)
(0.311884 0.321596 5.46502e-20)
(0.468044 0.473698 -6.15902e-20)
(0.589843 0.583519 2.22531e-20)
(0.681417 0.655877 -3.08921e-20)
(0.74777 0.696946 2.85117e-20)
(0.7942 0.713505 -3.78057e-20)
(0.825793 0.712143 2.43442e-20)
(0.846989 0.698652 -2.12591e-20)
(0.86134 0.677687 -1.52637e-20)
(0.871466 0.652676 -5.81302e-21)
(0.879147 0.625937 -2.41249e-21)
(0.885498 0.598902 -4.65292e-21)
(0.891162 0.572374 2.58566e-20)
(0.896478 0.54675 3.45096e-20)
(0.901611 0.522192 -1.77052e-20)
(0.906633 0.498739 1.79958e-21)
(0.911573 0.476372 3.17235e-20)
(0.916442 0.455049 2.75823e-20)
(0.921248 0.43472 5.6537e-20)
(0.926016 0.415321 1.22382e-20)
(0.930734 0.396824 8.84038e-20)
(0.935279 0.37925 8.96205e-20)
(0.94038 0.36194 -7.82014e-20)
(0.946744 0.344506 -4.7388e-20)
(0.116238 0.124815 1.78377e-20)
(0.304669 0.323519 2.93134e-20)
(0.457121 0.475653 -7.8737e-21)
(0.576006 0.584931 5.82054e-20)
(0.665452 0.656443 1.94845e-20)
(0.730411 0.696584 -6.85116e-20)
(0.776091 0.712288 -3.84793e-21)
(0.807456 0.710226 -1.74672e-20)
(0.828817 0.69622 1.67699e-20)
(0.843607 0.674911 5.0122e-21)
(0.854342 0.649697 -2.59086e-21)
(0.862723 0.622857 2.63948e-20)
(0.869808 0.595788 -9.61567e-21)
(0.876206 0.569267 -8.57132e-20)
(0.882238 0.543674 4.01993e-20)
(0.888057 0.519158 -1.14833e-20)
(0.893731 0.495753 3.90131e-20)
(0.899289 0.473437 -9.50662e-20)
(0.904743 0.452163 -8.41186e-20)
(0.910099 0.43188 -7.01112e-20)
(0.915383 0.412522 -3.93688e-21)
(0.920569 0.394058 -3.25525e-20)
(0.925558 0.376502 6.87486e-20)
(0.931118 0.359192 -7.26182e-20)
(0.937528 0.341773 -3.81341e-20)
(0.113485 0.125654 -3.79835e-20)
(0.297255 0.325061 6.4185e-22)
(0.445954 0.477069 -3.79242e-20)
(0.561925 0.585709 -2.94706e-20)
(0.649273 0.65633 -3.35914e-20)
(0.712884 0.695535 4.67926e-20)
(0.757861 0.7104 -5.58602e-21)
(0.789043 0.707672 -5.73963e-21)
(0.810607 0.693189 -1.37571e-21)
(0.825863 0.671577 -1.78349e-20)
(0.837225 0.646198 3.05027e-20)
(0.846316 0.61929 -5.32046e-20)
(0.854144 0.592218 1.60353e-20)
(0.861281 0.565733 1.8685e-20)
(0.86803 0.540194 -1.16919e-19)
(0.874536 0.515744 2.63849e-20)
(0.880863 0.492409 -7.88572e-20)
(0.88704 0.470163 1.71529e-19)
(0.893076 0.448959 -5.39061e-20)
(0.898981 0.428742 2.40768e-19)
(0.904777 0.409446 9.15795e-21)
(0.910431 0.39104 -3.74912e-20)
(0.91586 0.373531 -1.17302e-19)
(0.921814 0.356273 7.43134e-20)
(0.928351 0.338981 2.19207e-20)
(0.110647 0.126339 2.36275e-20)
(0.28966 0.326217 -4.40193e-20)
(0.434567 0.477941 2.28283e-20)
(0.547629 0.585848 -2.24191e-20)
(0.632909 0.655533 2.92335e-20)
(0.695216 0.693797 -3.76932e-20)
(0.739538 0.707843 2.06024e-20)
(0.770578 0.70448 1.13557e-20)
(0.792379 0.68956 9.97846e-21)
(0.808126 0.667685 -2.17217e-20)
(0.820132 0.642177 1.84902e-21)
(0.829946 0.615237 8.13447e-20)
(0.838521 0.588193 -3.58221e-20)
(0.8464 0.561769 9.39603e-21)
(0.853868 0.536312 1.03377e-19)
(0.861062 0.51195 1.47292e-21)
(0.868042 0.488707 -1.7405e-20)
(0.874835 0.466552 2.02845e-21)
(0.881453 0.445438 8.47964e-20)
(0.887905 0.425307 -1.85089e-19)
(0.894211 0.406094 7.25638e-21)
(0.900333 0.387769 3.21778e-20)
(0.906202 0.370333 5.40922e-20)
(0.912536 0.353164 1.10944e-19)
(0.919272 0.336065 -6.882e-20)
(0.107732 0.126867 1.70856e-20)
(0.281899 0.326983 1.77166e-20)
(0.422983 0.478264 3.20795e-20)
(0.533143 0.585343 -5.71424e-21)
(0.616389 0.654051 1.36329e-21)
(0.677437 0.691368 -2.31244e-22)
(0.721149 0.704615 -1.1662e-20)
(0.752088 0.700652 -3.133e-20)
(0.774156 0.685334 8.44699e-21)
(0.790417 0.663235 -1.41126e-20)
(0.803083 0.637637 -3.64041e-21)
(0.813627 0.610697 -5.12138e-20)
(0.822955 0.583711 1.39709e-20)
(0.831578 0.557378 6.57367e-20)
(0.839766 0.532026 -1.27013e-19)
(0.847646 0.507777 2.61334e-20)
(0.855278 0.484646 4.30223e-20)
(0.862687 0.462604 8.98474e-20)
(0.869885 0.441599 5.79004e-20)
(0.876883 0.421575 3.22719e-20)
(0.883696 0.402467 -2.28715e-20)
(0.890289 0.384244 1.26543e-19)
(0.896598 0.366903 5.55753e-20)
(0.903315 0.349854 -1.52259e-19)
(0.910294 0.332972 -5.58926e-20)
(0.104746 0.127235 -7.36034e-21)
(0.27399 0.327352 1.28184e-20)
(0.411225 0.478034 -1.03598e-20)
(0.518495 0.584193 6.63644e-21)
(0.599742 0.651881 -5.56816e-21)
(0.659575 0.688248 2.58311e-20)
(0.70272 0.700717 3.22884e-20)
(0.733596 0.696189 -2.60309e-20)
(0.755962 0.680512 -4.28675e-20)
(0.772757 0.658229 -5.70932e-21)
(0.786094 0.632578 -1.08284e-20)
(0.797376 0.605673 1.19082e-20)
(0.80746 0.578775 -8.05469e-20)
(0.816829 0.552559 -3.54645e-20)
(0.825736 0.527338 7.97258e-20)
(0.834302 0.503224 -7.29747e-21)
(0.842583 0.480229 -8.31881e-20)
(0.850606 0.45832 -6.39282e-20)
(0.858383 0.437445 1.05735e-19)
(0.865925 0.417548 5.22682e-20)
(0.873246 0.398564 -1.71527e-20)
(0.88031 0.380464 -4.18396e-20)
(0.887061 0.363241 9.06308e-20)
(0.894168 0.346334 4.41407e-20)
(0.901421 0.329684 1.9101e-19)
(0.101695 0.127442 -5.43088e-21)
(0.265949 0.327323 -3.43628e-21)
(0.399317 0.477247 1.01013e-21)
(0.503714 0.582393 4.79406e-21)
(0.582996 0.649024 -3.1759e-21)
(0.641657 0.684439 -3.20624e-20)
(0.684279 0.696152 -2.52059e-20)
(0.715126 0.691093 1.42686e-20)
(0.737817 0.675097 3.21483e-20)
(0.755165 0.652669 1.0294e-19)
(0.769186 0.627001 3.86867e-20)
(0.781212 0.600165 -3.09608e-20)
(0.792053 0.573386 1.46606e-19)
(0.802168 0.547314 -1.59141e-20)
(0.811792 0.522249 -3.27565e-20)
(0.821042 0.498294 -4.31258e-20)
(0.829971 0.475456 -3.14613e-20)
(0.838606 0.453701 -2.77616e-19)
(0.846959 0.432976 -2.54667e-19)
(0.855043 0.413226 6.25903e-20)
(0.862871 0.394385 5.23845e-20)
(0.870407 0.376428 6.40906e-20)
(0.877603 0.359342 -2.0674e-19)
(0.885106 0.342599 -1.1629e-19)
(0.892657 0.32619 -1.61764e-19)
(0.0985869 0.127486 -6.76645e-21)
(0.257794 0.326892 8.63173e-21)
(0.387282 0.4759 1.20051e-20)
(0.488825 0.579945 -2.02815e-20)
(0.56618 0.645479 2.01048e-20)
(0.623712 0.679942 2.58367e-20)
(0.665851 0.690921 2.44209e-20)
(0.696705 0.685366 2.78686e-20)
(0.719745 0.669091 -1.71081e-20)
(0.737662 0.646558 -9.00284e-20)
(0.752375 0.62091 -5.00026e-20)
(0.765148 0.594175 -1.20732e-20)
(0.776749 0.567545 2.91833e-20)
(0.787607 0.541645 1.07831e-19)
(0.797947 0.516761 -1.31074e-19)
(0.807878 0.492987 1.05252e-19)
(0.817452 0.470329 6.93578e-21)
(0.826696 0.448748 2.49485e-19)
(0.835624 0.428194 1.7085e-19)
(0.844247 0.408609 -1.63208e-20)
(0.852581 0.389932 -1.40175e-19)
(0.86059 0.372136 -1.54515e-19)
(0.868233 0.355205 8.89732e-20)
(0.876139 0.338643 2.99271e-19)
(0.884004 0.32248 -7.0008e-20)
(0.0954285 0.127364 -5.47268e-21)
(0.249541 0.326057 -1.42877e-20)
(0.375145 0.473994 -2.1433e-20)
(0.473855 0.576847 1.46854e-20)
(0.549322 0.641249 -1.98595e-20)
(0.605768 0.674759 -3.70223e-20)
(0.647462 0.685028 -6.35555e-20)
(0.678354 0.679012 6.09806e-20)
(0.701766 0.662497 1.80423e-20)
(0.720266 0.639898 9.88739e-20)
(0.73568 0.614307 1.28874e-19)
(0.749204 0.587707 -1.33668e-20)
(0.761563 0.561254 7.98377e-20)
(0.773163 0.535554 -2.3894e-19)
(0.784215 0.510875 6.80807e-20)
(0.794823 0.487307 4.12616e-20)
(0.80504 0.464849 2.30109e-20)
(0.814889 0.443464 -1.88814e-19)
(0.824388 0.4231 5.18159e-20)
(0.833549 0.4037 1.82931e-20)
(0.842387 0.385204 2.6449e-19)
(0.850869 0.367586 -1.42047e-19)
(0.85896 0.350828 1.12141e-19)
(0.867273 0.334462 -1.05409e-19)
(0.875464 0.318551 1.6757e-19)
(0.0922267 0.127077 -2.15067e-20)
(0.241207 0.324816 2.83448e-20)
(0.362928 0.471526 5.48911e-20)
(0.458833 0.573102 -1.47275e-20)
(0.53245 0.636335 -3.34171e-20)
(0.587851 0.668895 8.98089e-21)
(0.629139 0.678477 9.28199e-20)
(0.660098 0.672035 -7.73463e-20)
(0.683903 0.65532 3.2865e-20)
(0.702998 0.632694 -4.613e-20)
(0.719118 0.607196 1.04875e-20)
(0.733393 0.580763 -1.68609e-20)
(0.746509 0.554518 -1.50103e-19)
(0.758848 0.529043 6.15338e-20)
(0.770608 0.504594 2.49714e-20)
(0.781891 0.481254 -1.40354e-21)
(0.792744 0.459019 -6.93862e-20)
(0.803196 0.43785 6.48727e-20)
(0.813262 0.417695 -8.84706e-20)
(0.822958 0.398499 1.34058e-19)
(0.832299 0.380202 -2.88576e-19)
(0.841253 0.362779 1.13093e-19)
(0.849794 0.34621 -2.64359e-19)
(0.858515 0.330054 4.26054e-20)
(0.867042 0.3144 -1.78906e-19)
(0.0889886 0.126623 2.15381e-21)
(0.232811 0.323169 -5.91441e-21)
(0.350655 0.468499 -3.97616e-20)
(0.443785 0.56871 -4.02379e-20)
(0.515591 0.630741 1.57253e-20)
(0.569988 0.662353 3.59273e-20)
(0.610906 0.671272 -1.47462e-19)
(0.641959 0.664441 9.6501e-20)
(0.666175 0.647565 -3.16616e-20)
(0.685877 0.62495 1.57117e-20)
(0.702707 0.59958 -4.11592e-20)
(0.717734 0.573346 -1.06286e-19)
(0.731604 0.547338 1.9242e-20)
(0.744677 0.522115 1.48753e-19)
(0.757141 0.497922 -1.20995e-19)
(0.769092 0.474832 8.57725e-20)
(0.780578 0.452841 1.32205e-19)
(0.791627 0.431908 3.11232e-20)
(0.802257 0.411982 -2.6257e-19)
(0.812484 0.393007 -1.25127e-19)
(0.822325 0.374927 1.27464e-19)
(0.83175 0.357716 6.01515e-20)
(0.84074 0.34135 1.86307e-19)
(0.849871 0.325417 -2.35664e-19)
(0.858739 0.310025 1.45539e-19)
(0.0857214 0.126002 -2.12682e-20)
(0.224368 0.321116 5.56456e-20)
(0.33835 0.464912 5.59759e-21)
(0.428736 0.563675 8.45018e-20)
(0.498774 0.624472 -3.27567e-20)
(0.552208 0.655138 -3.8679e-20)
(0.592788 0.663421 5.59074e-21)
(0.623962 0.656235 7.16844e-20)
(0.648606 0.639236 -3.4131e-20)
(0.668922 0.616671 -7.34062e-20)
(0.686464 0.591464 2.86452e-20)
(0.702241 0.565462 4.26911e-20)
(0.716861 0.539719 3.19289e-21)
(0.730663 0.514775 -4.19126e-20)
(0.743825 0.49086 -2.70398e-20)
(0.756439 0.468044 9.38075e-20)
(0.768553 0.446318 -2.32159e-19)
(0.780195 0.425641 -1.1646e-20)
(0.791384 0.405962 4.80936e-19)
(0.802138 0.387227 1.56577e-19)
(0.812476 0.369381 1.48783e-19)
(0.82237 0.352396 9.68893e-20)
(0.831807 0.336249 1.01645e-19)
(0.841346 0.320552 1.64474e-19)
(0.85056 0.305426 4.43262e-20)
(0.0824323 0.125214 6.21569e-21)
(0.215897 0.318657 3.43262e-20)
(0.326036 0.460768 5.47534e-20)
(0.413715 0.558 -8.47305e-20)
(0.482025 0.617533 7.49416e-20)
(0.534535 0.647258 1.29704e-20)
(0.574812 0.654928 -9.95661e-21)
(0.606129 0.647423 -8.51043e-20)
(0.631214 0.630341 -3.84444e-20)
(0.652151 0.607862 5.63146e-20)
(0.670407 0.582854 -1.57097e-20)
(0.686932 0.557114 4.00556e-20)
(0.702296 0.531666 2.39822e-19)
(0.716821 0.507026 -9.89694e-20)
(0.730675 0.483414 -1.16113e-20)
(0.743945 0.460893 -6.38059e-20)
(0.75668 0.439453 -9.17629e-20)
(0.768908 0.419051 5.15873e-20)
(0.780651 0.399639 -1.98486e-19)
(0.791928 0.381161 -1.24995e-19)
(0.802759 0.363564 -6.5702e-20)
(0.813119 0.346822 -2.05411e-19)
(0.823001 0.330907 -2.78544e-19)
(0.832948 0.315458 2.0823e-19)
(0.84251 0.300603 -5.8444e-20)
(0.0791282 0.124258 2.82695e-20)
(0.207414 0.315794 -1.48764e-20)
(0.313736 0.456071 -1.0274e-19)
(0.398746 0.551691 1.36429e-19)
(0.465371 0.609929 -9.04732e-20)
(0.516996 0.638718 1.28094e-20)
(0.556999 0.645801 -6.56749e-21)
(0.588481 0.638012 -4.92738e-20)
(0.614021 0.620885 -1.12116e-19)
(0.635584 0.59853 -9.68333e-20)
(0.654552 0.573754 2.34875e-20)
(0.67182 0.548308 -5.34321e-20)
(0.687924 0.523182 -2.09048e-19)
(0.703164 0.498872 1.30467e-19)
(0.717702 0.475586 1.90554e-19)
(0.731621 0.453383 -1.32643e-19)
(0.74497 0.432249 3.17009e-19)
(0.757779 0.412143 1.73345e-20)
(0.77007 0.393015 -5.91583e-20)
(0.781864 0.374811 -1.38484e-19)
(0.793184 0.35748 -2.68667e-19)
(0.804006 0.340995 -1.16307e-19)
(0.81433 0.325326 -2.21327e-19)
(0.82468 0.310136 -2.56626e-19)
(0.834592 0.29556 5.73732e-20)
(0.0758165 0.123135 3.91736e-20)
(0.198936 0.312528 -5.26787e-20)
(0.301472 0.450824 5.5962e-20)
(0.383855 0.544753 -8.56667e-20)
(0.448838 0.601669 8.58045e-20)
(0.499616 0.629527 -1.08862e-19)
(0.539376 0.636048 3.80195e-20)
(0.571042 0.628011 5.94428e-20)
(0.597046 0.610876 1.91192e-20)
(0.619238 0.588681 5.62108e-20)
(0.638917 0.564172 7.41282e-20)
(0.656922 0.53905 -1.61177e-19)
(0.673757 0.514274 1.12348e-19)
(0.689705 0.490319 1.50702e-20)
(0.704919 0.467383 -5.40414e-20)
(0.71948 0.445518 1.81801e-19)
(0.733436 0.424711 -1.48218e-19)
(0.746818 0.404919 -7.69038e-20)
(0.75965 0.386093 -2.80578e-20)
(0.771956 0.368181 2.57828e-19)
(0.783758 0.351131 3.79614e-19)
(0.795038 0.334917 -9.95077e-20)
(0.805801 0.319508 2.29669e-19)
(0.81655 0.304588 5.10212e-20)
(0.072504 0.121846 -5.05542e-20)
(0.190479 0.308864 -5.99105e-20)
(0.289268 0.445032 -5.0091e-20)
(0.369069 0.537193 7.22857e-20)
(0.432453 0.592759 -4.59256e-20)
(0.48242 0.619693 1.32355e-20)
(0.521964 0.625678 2.95993e-21)
(0.553832 0.617427 2.0899e-19)
(0.580309 0.600321 -1.79183e-19)
(0.603132 0.578323 -1.06101e-20)
(0.623517 0.554113 -2.19512e-19)
(0.642253 0.529346 1.35127e-19)
(0.659811 0.504946 -1.34457e-19)
(0.676458 0.481371 -1.24052e-19)
(0.692339 0.458807 -9.49524e-21)
(0.707532 0.437304 -1.12068e-19)
(0.722087 0.416843 9.12306e-20)
(0.736034 0.397384 -4.27814e-21)
(0.749401 0.378878 2.68602e-19)
(0.762212 0.361273 -1.43306e-19)
(0.774491 0.344519 -7.85861e-20)
(0.786223 0.328591 1.11069e-19)
(0.797419 0.313455 -2.48324e-20)
(0.808564 0.298817 1.71787e-19)
(0.069198 0.120391 -2.20775e-20)
(0.182062 0.304803 6.56232e-20)
(0.277146 0.4387 9.28008e-20)
(0.354411 0.529019 -1.95918e-19)
(0.416241 0.583209 -7.93413e-21)
(0.465434 0.609225 -7.26808e-22)
(0.504787 0.6147 -2.3967e-20)
(0.536873 0.60627 -1.43491e-19)
(0.563829 0.58923 1.59812e-19)
(0.587282 0.567464 -1.50539e-20)
(0.60837 0.543586 1.94845e-19)
(0.627828 0.519203 2.50852e-20)
(0.6461 0.495206 2.19792e-19)
(0.663436 0.472035 2.80827e-20)
(0.679974 0.449866 -4.43634e-20)
(0.69579 0.428744 -2.4557e-19)
(0.710934 0.40865 -1.08031e-19)
(0.725439 0.389542 -1.8398e-20)
(0.739332 0.371373 -1.3009e-19)
(0.752641 0.354091 -2.58177e-20)
(0.765391 0.337649 2.12546e-19)
(0.777569 0.32202 7.94016e-20)
(0.789192 0.30717 2.20615e-19)
(0.800726 0.292825 -2.31297e-19)
(0.0659055 0.118773 1.57052e-20)
(0.173699 0.30035 2.65406e-20)
(0.265128 0.431837 1.38481e-20)
(0.339907 0.520238 4.31144e-20)
(0.400226 0.573027 -5.09452e-20)
(0.448681 0.598133 2.95912e-20)
(0.487868 0.603125 -3.31421e-20)
(0.520185 0.594549 2.22403e-20)
(0.547626 0.577612 1.82113e-19)
(0.571707 0.556112 1.3612e-20)
(0.59349 0.532598 -1.07188e-19)
(0.613662 0.508627 2.77747e-19)
(0.632637 0.48506 -1.38355e-19)
(0.650651 0.462317 -7.59263e-20)
(0.667835 0.440565 9.69233e-20)
(0.684265 0.419845 -5.90164e-20)
(0.699989 0.400136 1.05502e-19)
(0.715041 0.381398 5.98949e-21)
(0.729453 0.363582 1.24648e-19)
(0.743251 0.34664 -1.34458e-19)
(0.756465 0.330524 5.61179e-20)
(0.769083 0.315207 1.25636e-19)
(0.781126 0.300656 -3.02818e-19)
(0.0626332 0.116993 -1.57794e-20)
(0.165408 0.295511 -9.00181e-20)
(0.253236 0.424448 -2.32575e-19)
(0.325581 0.510861 2.16227e-19)
(0.384435 0.562226 9.55456e-20)
(0.432185 0.586429 7.43965e-20)
(0.471229 0.590962 -2.78871e-20)
(0.503789 0.582275 2.13745e-19)
(0.531717 0.565475 6.35284e-21)
(0.556423 0.544276 -3.23289e-19)
(0.578894 0.521157 -2.70478e-19)
(0.599769 0.497626 -5.81506e-20)
(0.619436 0.474514 3.01424e-19)
(0.638117 0.452223 5.11517e-21)
(0.655936 0.43091 -2.72587e-20)
(0.672967 0.410611 7.48364e-20)
(0.68926 0.391307 -7.74283e-20)
(0.704852 0.372956 -9.39717e-20)
(0.719772 0.355511 -1.34356e-19)
(0.734052 0.338924 1.62227e-19)
(0.747721 0.323148 -2.74653e-19)
(0.760771 0.308157 -2.80596e-19)
(0.773229 0.293917 3.70433e-19)
(0.0593882 0.115052 7.91155e-20)
(0.157205 0.290289 1.1769e-20)
(0.24149 0.416542 2.15804e-19)
(0.311456 0.500897 -1.07094e-19)
(0.36889 0.550815 1.36531e-19)
(0.415969 0.574125 -5.94749e-20)
(0.454891 0.578224 -5.70362e-21)
(0.487704 0.569458 -1.93925e-19)
(0.516121 0.552831 7.39944e-20)
(0.541446 0.531966 2.11255e-19)
(0.564596 0.509272 2.09107e-19)
(0.586164 0.48621 1.74452e-19)
(0.60651 0.463578 -1.91546e-19)
(0.625844 0.441761 5.01587e-20)
(0.644286 0.420908 -3.17893e-19)
(0.661908 0.401051 2.06838e-19)
(0.67876 0.382169 1.78943e-19)
(0.694879 0.364222 -6.61402e-20)
(0.710299 0.347164 -1.75571e-19)
(0.725051 0.330947 -1.37583e-19)
(0.739166 0.315526 -1.16801e-19)
(0.752641 0.300873 5.18884e-20)
(0.765505 0.286956 -6.16001e-20)
(0.0561772 0.112953 8.34459e-20)
(0.149104 0.284692 1.21161e-19)
(0.229912 0.408127 -1.38889e-19)
(0.297556 0.490357 -8.0712e-20)
(0.353615 0.538807 -2.1003e-19)
(0.400055 0.561231 -1.90801e-20)
(0.438875 0.564922 5.13942e-20)
(0.47195 0.556111 -7.83829e-20)
(0.500856 0.53969 -9.76682e-20)
(0.526794 0.519191 2.76288e-19)
(0.550612 0.496952 3.19989e-20)
(0.572859 0.474385 -2.74825e-19)
(0.593872 0.452258 9.3069e-20)
(0.613847 0.430937 -7.56564e-20)
(0.632898 0.410565 1.35228e-19)
(0.651098 0.391169 8.10637e-20)
(0.668497 0.372729 -1.79278e-19)
(0.685133 0.355203 2.94768e-19)
(0.701041 0.338546 9.49424e-20)
(0.716256 0.322714 8.51844e-20)
(0.730809 0.307661 -2.93438e-20)
(0.7447 0.293361 3.84324e-19)
(0.757961 0.279778 -1.59092e-20)
(0.0530068 0.110698 -9.65825e-20)
(0.141122 0.278725 1.19326e-19)
(0.218523 0.399214 7.66194e-20)
(0.283904 0.479252 7.6409e-21)
(0.338634 0.526215 1.00765e-19)
(0.384467 0.547762 -1.0815e-19)
(0.423202 0.55107 2.90854e-20)
(0.456546 0.542244 -1.81431e-20)
(0.485938 0.526063 -3.25477e-20)
(0.512482 0.505962 -1.41094e-19)
(0.536956 0.484208 -2.70089e-19)
(0.559869 0.462162 1.14459e-20)