/*--------------------------------*- C++ -*----------------------------------*\
  =========                 |
  \\      /  F ield         | OpenFOAM: The Open Source CFD Toolbox
   \\    /   O peration     | Website:  https://openfoam.org
    \\  /    A nd           | Version:  7
     \\/     M anipulation  |
\*---------------------------------------------------------------------------*/
FoamFile
{
    version     2.0;
    format      ascii;
    class       surfaceScalarField;
    location    "100";
    object      phi;
}
// * * * * * * * * * * * * * * * * * * * * * * * * * * * * * * * * * * * * * //

dimensions      [0 3 -1 0 0 0 0];

internalField   nonuniform List<scalar> 
8882
(
6.62701e-06
-6.48639e-05
2.66578e-05
-0.000236363
-0.000455265
6.9197e-06
-7.17837e-05
2.76475e-05
-0.000257091
6.24398e-05
-0.000490057
0.000110851
-0.000768039
-0.00108437
7.20412e-06
-7.89878e-05
2.85906e-05
-0.000278478
6.42011e-05
-0.000525668
0.000113315
-0.000817152
0.000174125
-0.00114518
0.00024365
-0.00149778
0.000317954
-0.00185993
-0.00221564
7.47843e-06
-8.64662e-05
2.94805e-05
-0.00030048
6.5819e-05
-0.000562006
0.000115486
-0.000866819
0.000176357
-0.00120605
0.000245158
-0.00156658
0.000317765
-0.00193253
0.000389796
-0.00228767
0.000457307
-0.00261804
0.000517375
-0.00291411
0.000568392
-0.00317171
-0.00339171
7.7408e-06
-9.4207e-05
3.0311e-05
-0.00032305
6.72811e-05
-0.000598976
0.000117349
-0.000916888
0.000178077
-0.00126678
0.000245918
-0.00163442
0.000316603
-0.00200322
0.000385771
-0.00235684
0.000449668
-0.00268194
0.000505677
-0.00297012
0.000552527
-0.00321856
0.000590206
-0.00342939
0.000619641
-0.00360826
0.000642294
-0.0037626
-0.00390007
7.98943e-06
-0.000102196
3.10758e-05
-0.000346136
6.85762e-05
-0.000636477
0.00011889
-0.000967201
0.000179271
-0.00132716
0.000245932
-0.00170108
0.00031449
-0.00207177
0.000380648
-0.00242299
0.000440875
-0.00274217
0.000492862
-0.00302211
0.000535666
-0.00326136
0.000569541
-0.00346326
0.000595581
-0.0036343
0.000615313
-0.00378233
0.000630338
-0.00391509
0.000642083
-0.00403923
0.00065168
-0.00415985
0.00065993
-0.00428043
-0.00440296
8.22261e-06
-0.000110419
3.17695e-05
-0.000369683
6.96947e-05
-0.000674402
0.000120096
-0.0010176
0.000179934
-0.001387
0.000245203
-0.00176635
0.000311452
-0.00213802
0.000374483
-0.00248603
0.000431007
-0.00279869
0.000479033
-0.00307014
0.000517923
-0.00330025
0.00054817
-0.00349351
0.000571005
-0.00365713
0.000587992
-0.00379932
0.000600692
-0.00392779
0.000610452
-0.00404899
0.000618305
-0.00416771
0.000624963
-0.00428709
0.000630878
-0.00440887
-0.00453376
0.00063625
8.43871e-06
-0.000118858
3.23868e-05
-0.000393631
7.06279e-05
-0.000712643
0.000120959
-0.00106793
0.000180061
-0.0014461
0.000243745
-0.00183003
0.000307524
-0.0022018
0.000367335
-0.00254584
0.00042015
-0.00285151
0.00046429
-0.00311428
0.000499407
-0.00333537
0.000526199
-0.0035203
0.000546006
-0.00367694
0.000560406
-0.00381372
0.00057091
-0.0039383
0.000578774
-0.00405686
0.00058494
-0.00417387
0.000590037
-0.00429218
0.00059445
-0.00441328
-0.00453765
0.000598341
8.6362e-06
-0.000127494
3.29233e-05
-0.000417918
7.13687e-05
-0.000751088
0.000121473
-0.00111804
0.000179656
-0.00150428
0.000241573
-0.00189195
0.000302743
-0.00226297
0.000359267
-0.00260236
0.000408387
-0.00290063
0.000448731
-0.00315462
0.000480216
-0.00336686
0.000503722
-0.00354381
0.000520668
-0.00369389
0.000532626
-0.00382568
0.000541043
-0.00394671
0.000547088
-0.0040629
0.000551613
-0.0041784
0.00055517
-0.00429574
0.000558088
-0.0044162
-0.00454006
0.000560494
8.81366e-06
-0.000136308
3.33749e-05
-0.00044248
7.19115e-05
-0.000789625
0.000121634
-0.00116776
0.000178722
-0.00156137
0.000238709
-0.00195194
0.000297153
-0.00232142
0.000350342
-0.00265555
0.0003958
-0.00294608
0.000432449
-0.00319127
0.000460448
-0.00339486
0.000480828
-0.00356419
0.000495066
-0.00370813
0.00050471
-0.00383532
0.000511138
-0.00395314
0.000515428
-0.00406719
0.000518348
-0.00418132
0.000520381
-0.00429777
0.000521808
-0.00441763
-0.00454097
0.000522723
8.96979e-06
-0.000145277
3.3738e-05
-0.000467248
7.2252e-05
-0.000828139
0.000121442
-0.00121695
0.000177269
-0.0016172
0.000235178
-0.00200985
0.000290799
-0.00237704
0.000340627
-0.00270538
0.00038247
-0.00298793
0.000415531
-0.00322433
0.000440188
-0.00341951
0.000457597
-0.0035816
0.000469267
-0.0037198
0.000476713
-0.00384277
0.000481234
-0.00395766
0.000483823
-0.00406978
0.000485165
-0.00418266
0.000485687
-0.00429829
0.000485621
-0.00441756
-0.00454039
0.000485041
9.10343e-06
-0.000154381
3.401e-05
-0.000492154
7.23876e-05
-0.000866517
0.000120897
-0.00126546
0.000175308
-0.00167161
0.000231009
-0.00206555
0.000283728
-0.00242976
0.000330188
-0.00275184
0.000368476
-0.00302622
0.000398062
-0.00325391
0.000419517
-0.00344097
0.000434099
-0.00359618
0.000443331
-0.00372903
0.00044868
-0.00384811
0.000451365
-0.00396035
0.000452296
-0.00407071
0.000452085
-0.00418245
0.000451101
-0.00429731
0.000449543
-0.004416
-0.00453831
0.000447461
9.21474e-06
-0.000163596
3.41909e-05
-0.000517131
7.23204e-05
-0.000904646
0.00012001
-0.00131315
0.000172862
-0.00172446
0.00022624
-0.00211893
0.000275998
-0.00247951
0.000319096
-0.00279494
0.000353901
-0.00306102
0.000380128
-0.00328014
0.000398518
-0.00345936
0.000410408
-0.00360807
0.000417319
-0.00373594
0.00042066
-0.00385146
0.00042157
-0.00396126
0.000420879
-0.00407002
0.00041913
-0.0041807
0.000416645
-0.00429483
0.00041359
-0.00441295
-0.00453472
0.000409999
9.30065e-06
-0.000172896
3.42745e-05
-0.000542104
7.20436e-05
-0.000942415
0.000118777
-0.00135988
0.000169937
-0.00177562
0.000220891
-0.00216988
0.000267645
-0.00252627
0.000307403
-0.00283469
0.000338802
-0.00309242
0.000361785
-0.00330312
0.000377241
-0.00347481
0.000386565
-0.00361739
0.00039126
-0.00374063
0.000392672
-0.00385287
0.000391859
-0.00396044
0.000389574
-0.00406774
0.0003863
-0.00417742
0.000382316
-0.00429084
0.000377761
-0.00440839
-0.00452961
0.000372655
9.36158e-06
-0.000182258
3.42623e-05
-0.000567005
7.1562e-05
-0.000979715
0.00011721
-0.00140553
0.000166557
-0.00182497
0.000215004
-0.00221833
0.000258725
-0.00256999
0.000295176
-0.00287115
0.000323253
-0.0031205
0.000343109
-0.00332298
0.000355757
-0.00348746
0.00036263
-0.00362427
0.000365203
-0.00374321
0.000364755
-0.00385242
0.000362263
-0.00395795
0.000358407
-0.00406388
0.000353617
-0.00417263
0.000348134
-0.00428536
0.000342073
-0.00440233
-0.00452299
0.000335447
9.39696e-06
-0.000191655
3.41537e-05
-0.000591762
7.08783e-05
-0.00101644
0.000115321
-0.00144997
0.000162746
-0.00187239
0.000208616
-0.0022642
0.00024929
-0.00261066
0.000282476
-0.00290433
0.00030732
-0.00314534
0.000324162
-0.00333982
0.000334121
-0.00349742
0.00033865
-0.0036288
0.000339186
-0.00374374
0.000336936
-0.00385017
0.000332801
-0.00395382
0.000327394
-0.00405847
0.000321092
-0.00416633
0.000314108
-0.00427838
0.000306537
-0.00439476
-0.00451484
0.000298385
9.4064e-06
-0.000201061
3.39491e-05
-0.000616305
6.9996e-05
-0.00105249
0.000113119
-0.0014931
0.000158526
-0.0019178
0.000201763
-0.00230744
0.000239387
-0.00264829
0.000269361
-0.00293431
0.000291062
-0.00316704
0.000305001
-0.00335376
0.000312382
-0.0035048
0.000314665
-0.00363108
0.00031324
-0.00374232
0.00030924
-0.00384617
0.000303493
-0.00394807
0.000296547
-0.00405153
0.000288738
-0.00415852
0.00028025
-0.00426989
0.000271163
-0.00438567
-0.00450515
0.000261481
9.38966e-06
-0.000210451
3.36491e-05
-0.000640564
6.89202e-05
-0.00108776
0.000110619
-0.0015348
0.000153922
-0.0019611
0.000194482
-0.002348
0.000229067
-0.00268287
0.000255884
-0.00296112
0.000274535
-0.00318569
0.000285679
-0.0033649
0.000290587
-0.00350971
0.000290712
-0.0036312
0.000287392
-0.003739
0.000281687
-0.00384046
0.000274353
-0.00394074
0.00026588
-0.00404305
0.000256565
-0.00414921
0.000246569
-0.00425989
0.00023596
-0.00437507
-0.00449394
0.000224744
9.34665e-06
-0.000219797
3.32552e-05
-0.000664473
6.76566e-05
-0.00112216
0.000107835
-0.00157497
0.000148959
-0.00200223
0.000186811
-0.00238585
0.000218373
-0.00271443
0.000242099
-0.00298485
0.000257791
-0.00320138
0.000266243
-0.00337336
0.000268775
-0.00351224
0.000266824
-0.00362925
0.000261669
-0.00373384
0.000254297
-0.00383309
0.000245396
-0.00393184
0.000235404
-0.00403306
0.000224584
-0.00413839
0.000213075
-0.00424838
0.000200939
-0.00436293
-0.00448118
0.000188183
9.27745e-06
-0.000229075
3.27691e-05
-0.000687964
6.62117e-05
-0.0011556
0.00010478
-0.00161354
0.000143663
-0.00204111
0.000178785
-0.00242097
0.000207353
-0.002743
0.000228052
-0.00300555
0.000240878
-0.00321421
0.000246737
-0.00337922
0.000246983
-0.00351249
0.000243029
-0.0036253
0.000236091
-0.0037269
0.000227085
-0.00382409
0.000216635
-0.00392139
0.000205132
-0.00402156
0.000192804
-0.00412606
0.000179778
-0.00423536
0.000166107
-0.00434926
-0.00446688
0.000151807
9.18226e-06
-0.000238257
3.2193e-05
-0.000710975
6.4593e-05
-0.001188
0.000101472
-0.00165042
0.00013806
-0.0020777
0.000170441
-0.00245335
0.000196047
-0.00276861
0.000213791
-0.00302329
0.00022384
-0.00322426
0.000227198
-0.00338257
0.000225243
-0.00351053
0.000219352
-0.00361941
0.000210678
-0.00371823
0.000200068
-0.00381348
0.000188084
-0.0039094
0.000175072
-0.00400855
0.000161236
-0.00411222
0.000146685
-0.00422081
0.000131474
-0.00433405
-0.00445102
0.000115615
9.06142e-06
-0.000247319
3.15297e-05
-0.000733443
6.28083e-05
-0.00121928
9.79251e-05
-0.00168554
0.000132175
-0.00211195
0.000161813
-0.00248299
0.000184498
-0.00279129
0.000199356
-0.00303815
0.000206717
-0.00323162
0.000207664
-0.00338352
0.000203585
-0.00350645
0.000195817
-0.00361164
0.000185448
-0.00370786
0.000173258
-0.00380129
0.000159752
-0.0038959
0.000145237
-0.00399403
0.000129889
-0.00409688
0.000113806
-0.00420472
9.70473e-05
-0.00431729
-0.00443358
7.96053e-05
8.9154e-06
-0.000256234
3.0782e-05
-0.00075531
6.08661e-05
-0.00124936
9.41571e-05
-0.00171883
0.000126034
-0.00214382
0.000152934
-0.00250989
0.000172742
-0.0028111
0.000184788
-0.0030502
0.000189545
-0.00323638
0.000188165
-0.00338214
0.000182034
-0.00350032
0.000172443
-0.00360205
0.000160416
-0.00369583
0.000146668
-0.00378754
0.000131652
-0.00388088
0.000115638
-0.00397802
9.87785e-05
-0.00408002
8.11595e-05
-0.0041871
6.28267e-05
-0.00429896
-0.00441452
4.37693e-05
8.74476e-06
-0.000264979
2.99534e-05
-0.000776519
5.87753e-05
-0.00127819
9.01842e-05
-0.00175024
0.000119662
-0.0021733
0.000143837
-0.00253406
0.000160816
-0.00282808
0.000170124
-0.0030595
0.00017236
-0.00323861
0.000168731
-0.00337851
0.000160613
-0.0034922
0.000149248
-0.00359069
0.000135596
-0.00368218
0.000120309
-0.00377225
0.000103793
-0.00386436
8.62837e-05
-0.00396051
6.79185e-05
-0.00406165
4.87799e-05
-0.00416796
2.88291e-05
-0.00427901
-0.00439344
7.74626e-06
8.5502e-06
-0.000273529
2.90473e-05
-0.000797016
5.65449e-05
-0.00130568
8.60231e-05
-0.00177972
0.000113083
-0.00220036
0.000134553
-0.00255553
0.000148754
-0.00284228
0.000155395
-0.00306614
0.00015519
-0.00323841
0.000149386
-0.00337271
0.000139342
-0.00348216
0.000126248
-0.00357759
0.000111
-0.00366693
9.4192e-05
-0.00375544
7.6184e-05
-0.00384636
5.71825e-05
-0.00394151
3.73125e-05
-0.00404178
1.66733e-05
-0.00414733
-4.614e-06
-0.00425772
-0.00437099
-2.70593e-05
8.33247e-06
-0.000281861
2.80677e-05
-0.000816751
5.41842e-05
-0.0013318
8.16903e-05
-0.00180722
0.000106322
-0.00222499
0.00012511
-0.00257432
0.000136588
-0.00285376
0.000140634
-0.00307019
0.000138064
-0.00323584
0.000130154
-0.0033648
0.000118239
-0.00347025
0.000103457
-0.00356281
8.66388e-05
-0.00365011
6.83251e-05
-0.00373713
4.88329e-05
-0.00382686
2.83437e-05
-0.00392102
6.96531e-06
-0.0040204
-1.52119e-05
-0.00412515
-3.82127e-05
-0.00423472
-0.00434735
-6.1858e-05
8.09242e-06
-0.000289954
2.70183e-05
-0.000835677
5.17027e-05
-0.00135648
7.7202e-05
-0.00183272
9.9401e-05
-0.00224719
0.000115536
-0.00259046
0.000124346
-0.00286257
0.000125869
-0.00307171
0.000121006
-0.00323097
0.000111055
-0.00335485
9.73219e-05
-0.00345651
8.0887e-05
-0.00354637
6.2523e-05
-0.00363175
4.27175e-05
-0.00371733
2.1748e-05
-0.00380589
-2.35027e-07
-0.00389904
-2.31098e-05
-0.00399753
-4.68185e-05
-0.00410144
-7.13328e-05
-0.0042102
-0.00432215
-9.65361e-05
7.83098e-06
-0.000297785
2.59034e-05
-0.000853749
4.91098e-05
-0.00137969
7.25743e-05
-0.00185619
9.2342e-05
-0.00226696
0.000105857
-0.00260397
0.000112057
-0.00286877
0.000111124
-0.00307078
0.000104039
-0.00322389
9.2108e-05
-0.00334292
7.66032e-05
-0.00344101
5.85495e-05
-0.00352832
3.86614e-05
-0.00361186
1.73773e-05
-0.00369604
-5.06089e-06
-0.00378346
-2.85158e-05
-0.00387558
-5.29058e-05
-0.00397314
-7.81452e-05
-0.0040762
-0.000104183
-0.00418417
-0.00429536
-0.000130967
7.54911e-06
-0.000305334
2.47271e-05
-0.000870927
4.6415e-05
-0.00140138
6.78225e-05
-0.00187759
8.51659e-05
-0.0022843
9.60969e-05
-0.0026149
9.97444e-05
-0.00287242
9.6425e-05
-0.00306746
8.71828e-05
-0.00321465
7.33288e-05
-0.00332906
5.60962e-05
-0.00342378
3.64544e-05
-0.00350868
1.50621e-05
-0.00359047
-7.68817e-06
-0.00367329
-3.15861e-05
-0.00375956
-5.6521e-05
-0.00385065
-8.24149e-05
-0.00394724
-0.000109184
-0.00404943
-0.00013676
-0.00415659
-0.004267
-0.000165118
7.24783e-06
-0.000312582
2.34937e-05
-0.000887173
4.36274e-05
-0.00142151
6.29618e-05
-0.00189693
7.78928e-05
-0.00229924
8.6279e-05
-0.00262329
8.74321e-05
-0.00287357
8.17917e-05
-0.00306182
7.04561e-05
-0.00320331
5.47321e-05
-0.00331334
3.58121e-05
-0.00340486
1.46104e-05
-0.00348748
-8.26734e-06
-0.00356759
-3.24707e-05
-0.00364909
-5.78224e-05
-0.00373421
-8.42311e-05
-0.00382424
-0.000111628
-0.00391985
-0.000139926
-0.00402113
-0.000169048
-0.00412747
-0.00423708
-0.000198974
6.92822e-06
-0.00031951
2.22074e-05
-0.000902452
4.07563e-05
-0.00144006
5.80067e-05
-0.00191418
7.05414e-05
-0.00231177
7.64245e-05
-0.00262917
7.51414e-05
-0.00287229
6.72439e-05
-0.00305392
5.38748e-05
-0.00318994
3.63307e-05
-0.00329579
1.5761e-05
-0.00338429
-6.97446e-06
-0.00346474
-3.13193e-05
-0.00354325
-5.69648e-05
-0.00362344
-8.37615e-05
-0.00370741
-0.000111638
-0.00379636
-0.000140534
-0.00389095
-0.000170364
-0.0039913
-0.000201035
-0.0040968
-0.000232522
6.59134e-06
-0.000326101
2.08726e-05
-0.000916734
3.78107e-05
-0.001457
5.29711e-05
-0.00192934
6.31297e-05
-0.00232193
6.6553e-05
-0.00263259
6.28916e-05
-0.00286863
5.2799e-05
-0.00304383
3.74534e-05
-0.0031746
1.81361e-05
-0.00327648
-4.04864e-06
-0.0033621
-2.82924e-05
-0.0034405
-5.40884e-05
-0.00351745
-8.11637e-05
-0.00359637
-0.000109396
-0.00367918
-0.000138734
-0.00376702
-0.000169126
-0.00386056
-0.000200485
-0.00395994
6.23833e-06
-0.00033234
1.94934e-05
-0.000929989
3.47992e-05
-0.00147231
4.78683e-05
-0.00194241
5.56744e-05
-0.00232973
5.66829e-05
-0.0026336
5.07007e-05
-0.00286264
3.84729e-05
-0.0030316
2.1205e-05
-0.00315733
1.575e-07
-0.00325543
-2.3608e-05
-0.00333834
-4.93379e-05
-0.00341477
-7.65685e-05
-0.00349022
-0.000105061
-0.00356787
-0.00013472
-0.00364952
-0.000165509
-0.00373623
-0.000197392
5.8703e-06
-0.00033821
1.80741e-05
-0.000942192
3.17304e-05
-0.00148596
4.2711e-05
-0.00195339
4.81913e-05
-0.00233521
4.6831e-05
-0.00263224
3.85849e-05
-0.0028544
2.42797e-05
-0.0030173
5.1414e-06
-0.00313819
-1.75931e-05
-0.00323269
-4.29109e-05
-0.00331302
-7.01048e-05
-0.00338757
-9.87542e-05
-0.00346157
-0.000128652
-0.00353798
-0.000159725
-0.00361845
5.48841e-06
-0.000343698
1.66189e-05
-0.000953323
2.86124e-05
-0.00149796
3.75113e-05
-0.00196229
4.06951e-05
-0.0023384
3.70131e-05
-0.00262856
2.65591e-05
-0.00284394
1.02325e-05
-0.00300097
-1.07274e-05
-0.00311723
-3.51109e-05
-0.00320831
-6.19508e-05
-0.00328618
-9.05879e-05
-0.00335894
-0.00012064
-0.00343152
-0.000151931
-0.00350669
5.09383e-06
-0.000348792
1.51317e-05
-0.000963361
2.54532e-05
-0.00150828
3.22807e-05
-0.00196912
3.31996e-05
-0.00233932
2.72437e-05
-0.0026226
1.46365e-05
-0.00283134
-3.65664e-06
-0.00298268
-2.63921e-05
-0.00309449
-5.23876e-05
-0.00318232
-8.07224e-05
-0.00325784
-0.000110783
-0.00332888
-0.000142223
-0.00340008
4.68776e-06
-0.00035348
1.36167e-05
-0.00097229
2.22604e-05
-0.00151692
2.703e-05
-0.00197388
2.57177e-05
-0.00233801
1.75363e-05
-0.00261442
2.8338e-06
-0.00281663
-1.73795e-05
-0.00296246
-4.18448e-05
-0.00307003
-6.94171e-05
-0.00315474
-9.92205e-05
-0.00322804
-0.000130685
-0.00329741
4.27151e-06
-0.000357751
1.20778e-05
-0.000980096
1.90412e-05
-0.00152388
2.17695e-05
-0.00197661
1.82619e-05
-0.0023345
7.90233e-06
-0.00260406
-8.84982e-06
-0.00279988
-3.09254e-05
-0.00294039
-5.70781e-05
-0.00304388
-8.61937e-05
-0.00312563
-0.000117441
-0.00319679
3.84652e-06
-0.000361598
1.05188e-05
-0.000986768
1.58025e-05
-0.00152917
1.6509e-05
-0.00197732
1.08437e-05
-0.00232883
-1.63338e-06
-0.00259159
-2.03921e-05
-0.00278112
-4.42863e-05
-0.00291649
-7.20855e-05
-0.00301608
-0.000102713
-0.003095
3.41404e-06
-0.000365012
8.94357e-06
-0.000992298
1.25509e-05
-0.00153277
1.12578e-05
-0.00197603
3.47689e-06
-0.00232105
-1.11018e-05
-0.00257701
-3.17914e-05
-0.00276043
-5.74547e-05
-0.00289083
-8.68615e-05
-0.00298667
2.97482e-06
-0.000367987
7.35561e-06
-0.000996679
9.294e-06
-0.00153471
6.02194e-06
-0.00197275
-3.84122e-06
-0.00231119
-2.04513e-05
-0.0025604
-4.30361e-05
-0.00273785
-7.04241e-05
-0.00286344
2.53025e-06
-0.000370517
5.75794e-06
-0.000999906
6.03874e-06
-0.00153499
8.47184e-07
-0.00196756
-1.10962e-05
-0.00229924
-2.96893e-05
-0.0025418
-5.41195e-05
-0.00271342
2.08155e-06
-0.000372599
4.15481e-06
-0.00100198
2.78227e-06
-0.00153362
-4.36456e-06
-0.00196042
-1.82786e-05
-0.00228533
-3.88072e-05
-0.00252128
1.62914e-06
-0.000374228
2.55027e-06
-0.0010029
-4.30108e-07
-0.00153064
-9.50214e-06
-0.00195134
-2.53794e-05
-0.00226945
1.17257e-06
-0.0003754
9.37612e-07
-0.00100267
-3.69746e-06
-0.00152601
-1.45988e-05
-0.00194044
-0.00225166
7.07969e-07
-0.000376108
-6.74506e-07
-0.00100128
-6.90952e-06
-0.00151977
-1.9643e-05
-0.00192771
1.86085e-07
-0.000376294
-2.2887e-06
-0.000998809
-1.00972e-05
-0.00151196
-2.73454e-07
-0.000376021
-3.88919e-06
-0.000995193
-0.0015026
-7.0239e-07
-0.000375319
-5.47414e-06
-0.000990421
-1.15925e-06
-0.000374159
-0.000372539
0.000348542
0.000349646
-6.44423e-07
0.00035029
0.000931076
-2.1694e-07
0.000350507
-3.56252e-06
0.000934422
0.00141982
2.72325e-07
0.000350235
-1.94693e-06
0.000936641
0.00142711
7.72685e-07
0.000349462
-3.23738e-07
0.000937738
-6.01755e-06
0.00143281
0.00182879
1.23676e-06
0.000348225
1.29789e-06
0.000937677
-2.7711e-06
0.00143688
-1.28813e-05
0.0018389
0.00214638
1.69446e-06
0.000346531
2.91924e-06
0.000936452
5.13224e-07
0.00143928
-7.71832e-06
0.00184713
-2.26073e-05
0.00216127
0.00239233
2.14813e-06
0.000344383
4.5338e-06
0.000934066
3.7648e-06
0.00144005
-2.50778e-06
0.00185341
-1.53956e-05
0.00217416
0.00241175
2.59762e-06
0.000341785
6.14507e-06
0.000930519
7.047e-06
0.00143915
2.73223e-06
0.00185772
-8.10663e-06
0.002185
-2.55294e-05
0.00242918
0.00260551
3.04222e-06
0.000338743
7.74886e-06
0.000925812
1.033e-05
0.00143657
7.99788e-06
0.00186005
-7.11074e-07
0.00219371
-1.61201e-05
0.00244458
-3.75059e-05
0.0026269
0.00275832
3.48045e-06
0.000335262
9.34089e-06
0.000919952
1.36092e-05
0.0014323
1.3285e-05
0.00186038
6.67936e-06
0.00220031
-6.60504e-06
0.00245787
-2.60291e-05
0.00264632
-5.05142e-05
0.0027828
0.0028844
3.91166e-06
0.000331351
1.09176e-05
0.000912946
1.68779e-05
0.00142634
1.85873e-05
0.00185867
1.41565e-05
0.00220474
3.01876e-06
0.00246901
-1.43976e-05
0.00266374
-3.70461e-05
0.00280545
-6.373e-05
0.00291108
0.00299516
4.33441e-06
0.000327016
1.24753e-05
0.000904805
2.01296e-05
0.00141869
2.38943e-05
0.0018549
2.16739e-05
0.00220696
1.27253e-05
0.00247796
-2.61743e-06
0.00267908
-2.33816e-05
0.00282622
-4.83552e-05
0.00293606
-7.64321e-05
0.00302324
0.00309887
4.74716e-06
0.000322269
1.40099e-05
0.000895542
2.33569e-05
0.00140934
2.91947e-05
0.00184906
2.9222e-05
0.00220694
2.25178e-05
0.00248466
9.29205e-06
0.00269231
-9.52997e-06
0.00284504
-3.27477e-05
0.00295928
-5.92219e-05
0.00304971
-8.80607e-05
0.00312771
0.003201
5.14857e-06
0.000317121
1.55174e-05
0.000885173
2.65522e-05
0.0013983
3.4478e-05
0.00184114
3.67886e-05
0.00220463
3.23784e-05
0.00248907
2.13288e-05
0.00270336
4.50069e-06
0.00286187
-1.69154e-05
0.00298069
-4.17491e-05
0.00307455
-6.90647e-05
0.00315502
-9.8224e-05
0.00323016
0.00330497
5.53735e-06
0.000311583
1.69934e-05
0.000873717
2.97074e-05
0.00138559
3.97329e-05
0.00183111
4.43599e-05
0.0022
4.22935e-05
0.00249114
3.34772e-05
0.00271217
1.86981e-05
0.00287665
-8.65779e-07
0.00300026
-2.40205e-05
0.0030977
-4.97831e-05
0.00318078
-7.74691e-05
0.00325785
-0.000106673
0.00333417
0.00341283
5.91225e-06
0.000305671
1.84336e-05
0.000861196
3.28145e-05
0.00137121
4.49474e-05
0.00181898
5.19215e-05
0.00219302
5.2248e-05
0.00249081
4.57233e-05
0.0027187
3.30518e-05
0.00288932
1.53904e-05
0.00301792
-6.04308e-06
0.00311913
-3.02213e-05
0.00320496
-5.64108e-05
0.00328404
-8.41647e-05
0.00336193
-0.00011326
0.00344192
0.00352591
6.27208e-06
0.000299399
1.98338e-05
0.000847634
3.58647e-05
0.00135518
5.01088e-05
0.00180474
5.94581e-05
0.00218368
6.22255e-05
0.00248804
5.80514e-05
0.00272287
4.75481e-05
0.00289982
3.18436e-05
0.00303362
1.21751e-05
0.0031388
-1.03858e-05
0.00322752
-3.50544e-05
0.00330871
-6.13398e-05
0.00338821
-8.89849e-05
0.00346957
-0.000117886
0.00355481
0.00364518
6.61562e-06
0.000292783
2.11895e-05
0.00083306
3.88491e-05
0.00133752
5.52039e-05
0.00178838
6.69533e-05
0.00217193
7.22084e-05
0.00248279
7.04447e-05
0.00272464
6.21719e-05
0.00290809
4.84815e-05
0.00304731
3.06245e-05
0.00315666
9.71662e-06
0.00324843
-1.34055e-05
0.00333183
-3.82035e-05
0.00341301
-6.43833e-05
0.00349575
-9.18137e-05
0.00358224
-0.000120444
0.00367381
-0.000150233
0.00377123
0.00387473
6.94171e-06
0.000285842
2.24962e-05
0.000817506
4.17587e-05
0.00131826
6.02188e-05
0.00176992
7.43893e-05
0.00215776
8.21773e-05
0.002475
8.28843e-05
0.00272393
7.69068e-05
0.00291407
6.52903e-05
0.00305893
4.92947e-05
0.00317266
3.00777e-05
0.00326765
8.52933e-06
0.00335338
-1.47615e-05
0.0034363
-3.94608e-05
0.00352045
-6.54082e-05
0.00360819
-9.25317e-05
0.00370093
-0.000120777
0.00379947
-0.000150065
0.00390402
0.00401403
7.24917e-06
0.000278592
2.37494e-05
0.000801005
4.4584e-05
0.00129742
6.51386e-05
0.00174937
8.17476e-05
0.00214115
9.21117e-05
0.00246463
9.53498e-05
0.00272069
9.17344e-05
0.00291769
8.22549e-05
0.00306841
6.81737e-05
0.00318674
5.06882e-05
0.00328513
3.07432e-05
0.00337332
8.97993e-06
0.00345807
-1.42239e-05
0.00354365
-3.86761e-05
0.00363264
-6.42832e-05
0.00372654
-9.09789e-05
0.00382617
-0.000118686
0.00393173
-0.000147321
0.00404266
0.00415726
-0.000176863
7.53688e-06
0.000271056
2.49446e-05
0.000783598
4.73152e-05
0.00127505
6.99483e-05
0.00172673
8.90083e-05
0.00212209
0.000101989
0.00245165
0.000107819
0.00271486
0.000106634
0.00291887
9.9358e-05
0.00307568
8.72478e-05
0.00319885
7.15376e-05
0.00330084
5.32273e-05
0.00339163
3.30141e-05
0.00347828
1.13211e-05
0.00356534
-1.16249e-05
0.00365559
-3.57072e-05
0.00375062
-6.08467e-05
0.00385131
-8.69732e-05
0.00395786
-0.000114009
0.0040697
0.00418517
-0.00014192
7.80375e-06
0.000263252
2.60772e-05
0.000765324
4.99427e-05
0.00125119
7.46319e-05
0.00170204
9.61504e-05
0.00210057
0.000111785
0.00243602
0.000120267
0.00270638
0.000121584
0.00291755
0.00011658
0.00308069
0.000106502
0.00320893
9.2614e-05
0.00331473
7.59727e-05
0.00340827
5.73328e-05
0.00349692
3.71671e-05
0.00358551
1.57386e-05
0.00367701
-6.81248e-06
0.00377317
-3.03896e-05
0.00387489
-5.49358e-05
0.0039824
-8.03814e-05
0.00409514
0.00421143
-0.000106642
8.04875e-06
0.000255203
2.71429e-05
0.00074623
5.24565e-05
0.00122587
7.91731e-05
0.00167533
0.000103152
0.00207659
0.000121475
0.0024177
0.000132668
0.00269519
0.000136558
0.00291366
0.000133901
0.00308334
0.000125918
0.00321691
0.000113904
0.00332675
9.89687e-05
0.00342321
8.19275e-05
0.00351396
6.33057e-05
0.00360413
4.34063e-05
0.00369691
2.23928e-05
0.00379419
3.55177e-07
0.00389692
-2.25832e-05
0.00400534
-4.64517e-05
0.00411901
0.00423603
-7.10495e-05
8.27089e-06
0.000246932
2.81373e-05
0.000726364
5.48466e-05
0.00119916
8.35551e-05
0.00164662
0.000109989
0.00205016
0.00013103
0.00239665
0.000144992
0.00268123
0.00015153
0.00290713
0.000151295
0.00308358
0.000145477
0.00322273
0.000135392
0.00333683
0.000122204
0.0034364
0.000106789
0.00352937
8.9729e-05
0.00362119
7.13701e-05
0.00371527
5.1906e-05
0.00381365
3.14545e-05
0.00391738
1.00834e-05
0.00402671
-1.21538e-05
0.00414125
0.0042591
-3.5229e-05
8.46926e-06
0.000238463
2.90562e-05
0.000705777
5.7103e-05
0.00117112
8.77608e-05
0.00161596
0.000116639
0.00202128
0.000140423
0.00237287
0.000157208
0.00266444
0.000166469
0.00289786
0.000168737
0.00308131
0.000165157
0.00322631
0.000157062
0.00334493
0.000145664
0.0034478
0.000131906
0.00354313
0.000116428
0.00363667
9.96219e-05
0.00373208
8.17119e-05
0.00383156
6.28245e-05
0.00393626
4.30381e-05
0.0040465
2.22637e-05
0.00416202
0.00428181
-4.40516e-07
8.64306e-06
0.00022982
2.98955e-05
0.000684524
5.92159e-05
0.0011418
9.17725e-05
0.00158341
0.000123075
0.00198998
0.00014962
0.00234632
0.000169284
0.00264478
0.000181342
0.00288581
0.000186197
0.00307646
0.000184934
0.00322757
0.000178893
0.00335097
0.000169335
0.00345735
0.000157268
0.0035552
0.000143393
0.00365054
0.000128152
0.00374732
0.000111805
0.00384791
9.44916e-05
0.00395358
7.62927e-05
0.0040647
5.72506e-05
0.00418107
0.00430165
3.74127e-05
8.79155e-06
0.000221028
3.06516e-05
0.000662664
6.11758e-05
0.00111127
9.55729e-05
0.00154901
0.000129272
0.00195628
0.000158592
0.00231701
0.000181182
0.00262219
0.000196114
0.00287087
0.000203641
0.00306893
0.000204779
0.00322643
0.000200863
0.00335488
0.0001932
0.00346502
0.00018286
0.00356554
0.000170612
0.00366279
0.000156952
0.00376098
0.000142176
0.00386269
0.000126451
0.0039693
0.000109869
0.00408128
9.24994e-05
0.00419844
0.00431983
7.4319e-05
8.91412e-06
0.000212114
3.13209e-05
0.000640257
6.29732e-05
0.00107962
9.91444e-05
0.00151284
0.000135204
0.00192022
0.000167302
0.00228491
0.000192865
0.00259662
0.000210746
0.00285299
0.000221035
0.00305864
0.000224661
0.0032228
0.000222948
0.0033566
0.000217238
0.00347073
0.000208668
0.00357411
0.000198074
0.00367339
0.00018601
0.00377304
0.000172815
0.00387588
0.000158683
0.00398343
0.000143719
0.00409624
0.000127977
0.00421418
0.00433635
0.000111457
9.01026e-06
0.000203104
3.19002e-05
0.000617368
6.45994e-05
0.00104692
0.000102469
0.00147497
0.000140843
0.00188184
0.000175716
0.00225003
0.000204291
0.00256805
0.000225195
0.00283209
0.000238338
0.0030455
0.000244547
0.0032166
0.000245119
0.00335602
0.000241429
0.00347442
0.000234675
0.00358087
0.000225765
0.0036823
0.000215314
0.00378349
0.000203708
0.00388749
0.000191171
0.00399597
0.000177818
0.0041096
0.000163699
0.00422829
0.00435122
0.00014882
9.07964e-06
0.000194024
3.23868e-05
0.00059406
6.60459e-05
0.00101326
0.000105531
0.00143548
0.000146162
0.00184121
0.000183796
0.0022124
0.000215417
0.00253643
0.000239415
0.00280809
0.000255506
0.00302941
0.000264397
0.0032077
0.000267345
0.00335308
0.000265746
0.00347601
0.000260861
0.00358575
0.000253669
0.00368949
0.000244852
0.00379231
0.000234844
0.00389749
0.000223902
0.00400691
0.000212158
0.00412134
0.000199664
0.00424079
0.00436447
0.000186414
9.122e-06
0.000184902
3.27782e-05
0.000570404
6.7305e-05
0.000978734
0.000108313
0.00139447
0.000151134
0.00179839
0.000191506
0.00217203
0.000226198
0.00250173
0.000253358
0.00278093
0.000272492
0.00301027
0.00028417
0.00319603
0.000289589
0.00334766
0.000290163
0.00347544
0.000287205
0.00358871
0.00028177
0.00369492
0.000274609
0.00379947
0.000266211
0.00390589
0.000256867
0.00401626
0.000246732
0.00413148
0.000235861
0.00425166
0.00437609
0.000224241
9.1373e-06
0.000175765
3.30726e-05
0.000546469
6.83698e-05
0.000943437
0.000110799
0.00135204
0.000155732
0.00175346
0.000198805
0.00212896
0.000236586
0.00246395
0.000266972
0.00275055
0.000289245
0.002988
0.000303817
0.00318145
0.000311813
0.00333966
0.000314647
0.00347261
0.000313683
0.00358967
0.00031005
0.00369856
0.000304572
0.00380495
0.000297797
0.00391267
0.000290057
0.004024
0.00028153
0.00414
0.000272283
0.00426091
0.00438608
0.000262297
9.12562e-06
0.000166639
3.32687e-05
0.000522326
6.92344e-05
0.000907471
0.000112975
0.0013083
0.000159928
0.00170651
0.000205655
0.00208323
0.00024653
0.00242308
0.0002802
0.00271688
0.000305707
0.00296249
0.000323287
0.00316388
0.000333971
0.00332898
0.000339161
0.00346742
0.000340266
0.00358857
0.000338486
0.00370034
0.000334723
0.00380871
0.000329588
0.0039178
0.00032346
0.00403012
0.000316543
0.00414692
0.000308919
0.00426853
0.00439443
0.000300572
9.08721e-06
0.000157552
3.33657e-05
0.000498047
6.98936e-05
0.000870943
0.000114828
0.00126337
0.000163698
0.00165764
0.000212017
0.00203491
0.00025598
0.00237911
0.000292984
0.00267987
0.000321819
0.00293366
0.000342522
0.00314317
0.000356014
0.00331548
0.000363666
0.00345977
0.000366923
0.00358531
0.000367055
0.0037002
0.000365044
0.00381072
0.00036157
0.00392128
0.000357062
0.00403463
0.000351759
0.00415222
0.00034576
0.00427453
0.00440113
0.000339055
9.02249e-06
0.00014853
3.33634e-05
0.000473706
7.03438e-05
0.000833963
0.000116344
0.00121737
0.000167016
0.00160696
0.000217851
0.00198407
0.000264883
0.00233208
0.000305262
0.00263949
0.000337515
0.00290141
0.00036146
0.00311923
0.000377886
0.00329906
0.000388115
0.00344954
0.000393618
0.00357981
0.000395731
0.00369809
0.000395515
0.00381094
0.000393727
0.00392307
0.000390853
0.00403751
0.000387168
0.00415591
0.000382796
0.0042789
0.00440619
0.000377736
8.93207e-06
0.000139598
3.32622e-05
0.000449376
7.05822e-05
0.000796643
0.000117515
0.00117044
0.000169861
0.00155462
0.00022312
0.00193082
0.000273186
0.00228202
0.00031697
0.00259571
0.000352724
0.00286565
0.000380033
0.00309192
0.000399525
0.00327957
0.000412457
0.0034366
0.000420309
0.00357195
0.00042448
0.00369392
0.000426112
0.00380931
0.000426041
0.00392314
0.000424816
0.00403873
0.000422757
0.00415797
0.000420014
0.00428164
0.00440961
0.000416602
8.81672e-06
0.000130781
3.30633e-05
0.00042513
7.06078e-05
0.000759099
0.000118331
0.00112271
0.000172211
0.00150074
0.000227785
0.00187524