/*--------------------------------*- C++ -*----------------------------------*\
  =========                 |
  \\      /  F ield         | OpenFOAM: The Open Source CFD Toolbox
   \\    /   O peration     | Website:  https://openfoam.org
    \\  /    A nd           | Version:  7
     \\/     M anipulation  |
\*---------------------------------------------------------------------------*/
FoamFile
{
    version     2.0;
    format      ascii;
    class       volVectorField;
    location    "80";
    object      U;
}
// * * * * * * * * * * * * * * * * * * * * * * * * * * * * * * * * * * * * * //

dimensions      [0 1 -1 0 0 0 0];

internalField   nonuniform List<vector> 
4575
(
(0.0220205 -0.00379678 1.60927e-20)
(0.0850946 -0.00882473 1.61587e-20)
(0.167801 -0.00602793 5.90356e-20)
(0.0252243 -0.00393016 1.89265e-20)
(0.0946755 -0.00855012 6.60638e-20)
(0.183701 -0.00453739 5.10838e-20)
(0.289623 0.00610105 1.39753e-20)
(0.409068 0.0231678 1.28619e-19)
(0.0286105 -0.00397031 -8.53378e-20)
(0.104688 -0.00798736 -2.94089e-20)
(0.200158 -0.00257121 -9.50778e-20)
(0.312067 0.00997316 -5.13485e-20)
(0.43663 0.0292313 -2.58749e-20)
(0.568764 0.0541566 -8.01469e-20)
(0.702392 0.083083 -4.91982e-20)
(0.831051 0.113947 8.67475e-20)
(0.0321748 -0.00390697 2.82364e-20)
(0.115112 -0.00711253 -4.49229e-20)
(0.217126 -0.00010042 7.45495e-20)
(0.33498 0.0145071 3.40772e-20)
(0.464459 0.0360559 -4.80018e-20)
(0.600028 0.0632236 5.79589e-20)
(0.73524 0.0940667 1.41558e-20)
(0.863473 0.126296 -2.51043e-20)
(0.978823 0.157554 2.98512e-20)
(1.07695 0.185757 -2.28097e-20)
(1.15558 0.209395 -6.3292e-20)
(1.21459 0.227671 -6.20482e-21)
(0.035912 -0.00372995 -1.39914e-20)
(0.125923 -0.0059025 7.33385e-21)
(0.234557 0.0029018 -6.80857e-20)
(0.358279 0.0197249 4.27939e-20)
(0.492442 0.0436509 3.91506e-20)
(0.63107 0.0730663 -5.47399e-20)
(0.767399 0.105748 2.48191e-20)
(0.894719 0.139199 -4.74539e-20)
(1.00733 0.170962 -6.63527e-20)
(1.10135 0.198986 2.36028e-20)
(1.17511 0.221896 4.28626e-21)
(1.22911 0.239088 3.54773e-20)
(1.2655 0.250665 5.45844e-20)
(1.28745 0.257247 -2.59983e-21)
(1.29843 0.259741 9.06632e-21)
(0.039815 -0.00342923 -1.57379e-20)
(0.137093 -0.00433533 -1.88626e-20)
(0.252393 0.00645974 7.19858e-20)
(0.381876 0.0256444 -8.74337e-21)
(0.520461 0.0520202 3.46445e-22)
(0.661757 0.0836705 -3.72286e-20)
(0.798735 0.118096 -6.43506e-21)
(0.924679 0.15261 2.5458e-20)
(1.03417 0.184694 8.57107e-20)
(1.12386 0.212363 -2.70241e-20)
(1.1927 0.234402 4.58649e-21)
(1.2418 0.250417 1.4218e-20)
(1.27377 0.260711 -2.7302e-20)
(1.29205 0.266059 -1.73205e-20)
(1.3002 0.267466 4.56718e-21)
(1.30145 0.265954 2.24621e-20)
(1.2984 0.262423 -5.51975e-21)
(1.29295 0.257596 -3.35897e-22)
(1.2863 0.251986 1.93574e-20)
(0.0438753 -0.00299506 2.74239e-20)
(0.148591 -0.00239042 5.27613e-20)
(0.270575 0.0105948 3.56472e-20)
(0.405682 0.0322792 -1.9113e-20)
(0.5484 0.0611629 6.95174e-20)
(0.691957 0.0950171 4.03821e-20)
(0.829122 0.131075 -5.94684e-20)
(0.953255 0.166487 -2.04103e-20)
(1.05931 0.198706 3.70111e-22)
(1.14449 0.225849 -1.6428e-20)
(1.20842 0.246889 -4.67121e-20)
(1.25276 0.261649 7.63903e-21)
(1.28055 0.270628 8.51657e-23)
(1.29544 0.274746 -4.65755e-20)
(1.30104 0.275091 2.10061e-20)
(1.30051 0.27271 -1.11347e-20)
(1.29629 0.268493 -4.84281e-20)
(1.29012 0.263132 2.31175e-20)
(1.28306 0.257082 -4.82888e-20)
(1.27568 0.250477 2.08369e-20)
(0.0480832 -0.00241811 -9.61022e-21)
(0.160381 -4.88651e-05 -2.26421e-20)
(0.289039 0.0153253 -3.70747e-20)
(0.429603 0.0396383 -1.75276e-21)
(0.576143 0.0710722 -3.22559e-21)
(0.721543 0.107082 -3.8225e-20)
(0.858446 0.144647 8.58902e-21)
(0.980368 0.180782 7.95467e-21)
(1.0827 0.212953 -1.6255e-20)
(1.16326 0.23941 1.31728e-21)
(1.22232 0.259335 2.46241e-20)
(1.26207 0.272774 -3.20533e-21)
(1.28593 0.280418 1.81652e-20)
(1.29771 0.283318 7.97112e-21)
(1.30103 0.282627 -4.32788e-20)
(1.29894 0.279409 3.27146e-21)
(1.29373 0.274532 2.56907e-20)
(1.28696 0.268656 -6.03935e-21)
(1.27956 0.262177 1.13947e-21)
(1.272 0.255292 -4.03229e-21)
(0.0524273 -0.00168958 -8.82392e-21)
(0.172425 0.0027063 -8.07402e-21)
(0.307716 0.0206659 -1.40352e-20)
(0.453541 0.0477261 -9.06746e-21)
(0.603572 0.0817367 -2.31659e-20)
(0.750398 0.119837 2.64309e-20)
(0.886603 0.15877 5.14785e-20)
(1.00595 0.195451 1.76686e-20)
(1.10433 0.227394 8.89766e-21)
(1.1802 0.253014 -2.08684e-20)
(1.23447 0.271721 -2.01982e-22)
(1.26984 0.283788 1.30882e-20)
(1.29003 0.290086 -1.65543e-20)
(1.29897 0.291782 6.22074e-21)
(1.30026 0.290084 2.05916e-20)
(1.2968 0.286058 -7.02229e-21)
(1.29075 0.280546 -1.22642e-20)
(1.28349 0.274169 -1.12033e-20)
(1.27583 0.26727 3.93638e-20)
(1.26812 0.260106 1.3689e-20)
(0.0568948 -0.000801285 -1.57978e-20)
(0.184683 0.0058899 1.78897e-20)
(0.326536 0.0266278 -4.00549e-21)
(0.477401 0.0565419 1.23113e-20)
(0.630574 0.0931395 -1.08289e-20)
(0.778406 0.133249 -6.51348e-21)
(0.913503 0.173401 -2.50587e-20)
(1.02995 0.210448 2.91494e-21)
(1.12418 0.241988 6.87809e-21)
(1.19535 0.266634 1.51281e-20)
(1.24494 0.284033 -5.79578e-21)
(1.27614 0.294685 -4.49222e-21)
(1.29292 0.299633 4.0471e-21)
(1.29929 0.300146 -7.01834e-21)
(1.29878 0.29747 1.5735e-20)
(1.29415 0.292663 1.02883e-20)
(1.28739 0.286536 -1.73751e-21)
(1.27973 0.279672 -1.12191e-21)
(1.27186 0.272359 -1.06173e-20)
(1.26404 0.264917 -1.31675e-20)
(0.0614718 0.000254225 3.40766e-21)
(0.19711 0.00951436 -5.59577e-21)
(0.345426 0.0332183 3.74001e-21)
(0.501084 0.0660806 -5.04525e-21)
(0.657039 0.105259 -1.89994e-20)
(0.805464 0.147282 8.63635e-21)
(0.939066 0.188495 4.11434e-21)
(1.05232 0.225727 -1.92911e-20)
(1.14228 0.256698 -1.19442e-20)
(1.20874 0.28024 -1.12227e-21)
(1.25381 0.296255 -1.60946e-20)
(1.28108 0.305463 1.63522e-20)
(1.29471 0.309064 -3.57772e-23)
(1.29875 0.308417 -2.11225e-21)
(1.29665 0.30479 -3.98604e-21)
(1.29102 0.299228 1.92278e-21)
(1.28367 0.292505 1.32549e-21)
(1.2757 0.285162 -5.12343e-22)
(1.26767 0.277441 -3.88538e-21)
(1.25977 0.26972 4.6993e-21)
(0.0661429 0.00148356 1.14252e-21)
(0.20966 0.0135895 3.69213e-21)
(0.364311 0.0404404 2.01649e-21)
(0.524494 0.0763318 -9.20744e-22)
(0.682861 0.11807 1.25508e-20)
(0.831476 0.161896 -2.74806e-21)
(0.963222 0.204006 4.28684e-21)
(1.07304 0.241243 9.33376e-21)
(1.15862 0.271486 -1.65474e-21)
(1.22045 0.293811 4.06284e-22)
(1.26116 0.308376 4.42519e-21)
(1.28472 0.316117 -2.31802e-21)
(1.29546 0.318382 2.96288e-21)
(1.29743 0.316598 5.2692e-22)
(1.29393 0.312048 -5.42355e-21)
(1.28744 0.305754 2.6177e-22)
(1.27961 0.298451 6.82289e-21)
(1.27139 0.290637 -1.40176e-21)
(1.26326 0.282511 2.05024e-21)
(1.25531 0.274509 -2.28109e-21)
(0.0708922 0.0028924 4.71743e-22)
(0.222285 0.0181225 5.46112e-21)
(0.383115 0.0482932 2.88554e-21)
(0.547534 0.0872805 -5.7723e-22)
(0.707939 0.13154 1.16281e-20)
(0.856353 0.177049 -3.22544e-21)
(0.985914 0.219887 5.92621e-21)
(1.09209 0.256952 7.81408e-21)
(1.17324 0.286318 -1.58431e-21)
(1.23051 0.307323 3.49729e-22)
(1.26706 0.320384 5.0294e-21)
(1.28716 0.326646 -1.99712e-21)
(1.29526 0.327587 1.93236e-21)
(1.29537 0.324693 -4.66925e-22)
(1.29066 0.319247 -4.42035e-21)
(1.28345 0.312242 -1.26833e-22)
(1.27523 0.304372 6.76455e-21)
(1.26683 0.296092 -1.3065e-21)
(1.25863 0.287563 2.4154e-21)
(1.25064 0.279278 -2.56291e-21)
(0.0757022 0.00448544 4.10341e-21)
(0.234936 0.0231177 -7.02468e-21)
(0.401761 0.0567718 3.50854e-21)
(0.570111 0.0989074 -2.76802e-21)
(0.732179 0.145637 -1.84305e-20)
(0.880017 0.192697 7.34266e-21)
(1.0071 0.23609 3.32426e-21)
(1.10946 0.272813 -2.20893e-20)
(1.18617 0.301162 -9.10789e-21)
(1.23899 0.320755 -7.73513e-24)
(1.27158 0.33227 -1.35686e-20)
(1.28846 0.337048 1.11251e-20)
(1.29417 0.336683 -2.45144e-21)
(1.29262 0.332704 1.52231e-21)
(1.28688 0.326387 -5.81049e-21)
(1.27907 0.318689 4.33369e-21)
(1.27054 0.310263 2.72013e-21)
(1.26201 0.301522 -4.73832e-22)
(1.25378 0.292592 -5.19263e-21)
(1.24579 0.28402 4.6976e-21)
(0.0805546 0.00626628 -8.8867e-21)
(0.247563 0.0285762 -3.79156e-21)
(0.420173 0.0658667 -5.39169e-21)
(0.592135 0.111188 1.81686e-20)
(0.755491 0.160321 5.82261e-23)
(0.902399 0.208792 -9.25876e-21)
(1.02673 0.252568 -3.69836e-20)
(1.12516 0.288782 3.51573e-21)
(1.19744 0.315986 4.01391e-21)
(1.24595 0.334087 1.75491e-20)
(1.27479 0.344023 2.55446e-21)
(1.2887 0.347318 -1.4222e-20)
(1.29224 0.345667 1.31449e-20)
(1.28924 0.34063 -5.20407e-21)
(1.28261 0.333466 1.92752e-20)
(1.27431 0.325092 -1.72935e-21)
(1.26555 0.316119 9.66914e-22)
(1.25694 0.30692 8.14905e-22)
(1.24871 0.297589 -1.37943e-20)
(1.24074 0.288727 -8.21966e-21)
(0.0854302 0.00823732 -3.38363e-21)
(0.260112 0.0344964 -1.82413e-20)
(0.438275 0.0755645 1.40775e-20)
(0.613518 0.124095 -1.74915e-20)
(0.777794 0.175552 -3.08671e-20)
(0.923438 0.225285 2.63495e-20)
(1.0448 0.269271 4.24822e-20)
(1.13919 0.304819 1.48841e-20)
(1.20709 0.330761 1.01327e-20)
(1.25146 0.347302 -2.84462e-20)
(1.27676 0.355634 2.13478e-20)
(1.28794 0.357453 2.42857e-21)
(1.28953 0.354539 -2.59266e-20)
(1.28527 0.34847 9.92989e-21)
(1.27788 0.340481 3.45936e-20)
(1.26919 0.331446 -2.32911e-20)
(1.26026 0.321934 -6.5243e-21)
(1.25162 0.312278 -6.1842e-21)
(1.24342 0.302547 2.8079e-20)
(1.23549 0.293391 1.58845e-20)
(0.0903097 0.0103998 2.32535e-20)
(0.272533 0.0408733 -3.71343e-20)
(0.455993 0.0858477 -5.28024e-20)
(0.634178 0.137595 2.32259e-21)
(0.799012 0.191284 -9.20001e-21)
(0.943084 0.242127 -3.62185e-20)
(1.06127 0.286152 -5.92294e-21)
(1.15158 0.320884 1.78458e-20)
(1.21517 0.345457 -2.8091e-20)
(1.25556 0.360381 2.25051e-20)
(1.27756 0.367094 2.55889e-20)
(1.28623 0.367448 -1.57693e-20)
(1.28609 0.363296 6.32084e-21)
(1.28073 0.356221 3.13168e-20)
(1.27272 0.347427 -4.09854e-20)
(1.26372 0.337744 7.02005e-21)
(1.25469 0.3277 1.87226e-20)
(1.24606 0.317588 -5.56886e-21)
(1.23792 0.307458 -5.83744e-21)
(1.23004 0.298005 -9.80291e-22)
(0.0951729 0.0127536 3.44163e-20)
(0.284774 0.047699 5.97693e-20)
(0.473254 0.0966947 3.09676e-20)
(0.654035 0.151652 -3.6137e-20)
(0.819078 0.207471 9.22054e-20)
(0.961294 0.259266 1.3904e-20)
(1.07614 0.303164 -3.75477e-20)
(1.16234 0.336939 -2.64921e-20)
(1.22172 0.360048 -2.07907e-20)
(1.25832 0.373308 6.78495e-21)
(1.27725 0.378393 -2.24238e-20)
(1.28364 0.377298 7.0632e-22)
(1.28196 0.371934 -1.45717e-20)
(1.27566 0.363878 -1.94848e-20)
(1.26714 0.354298 -3.25666e-21)
(1.25791 0.343979 -1.96466e-21)
(1.24883 0.333407 -3.4633e-20)
(1.24025 0.322841 2.56497e-20)
(1.2322 0.31231 -3.82295e-20)
(1.22439 0.302558 -2.20352e-20)
(0.0999996 0.0152975 -4.1794e-20)
(0.296783 0.0549624 -1.60737e-20)
(0.489989 0.10808 6.99475e-20)
(0.673016 0.166226 1.73332e-20)
(0.837931 0.224064 -5.80956e-20)
(0.978033 0.276652 -3.29867e-20)
(1.0894 0.320259 -1.07621e-20)
(1.1715 0.352946 6.80636e-20)
(1.22679 0.374506 4.76006e-20)
(1.2598 0.386065 -1.5969e-20)
(1.27587 0.389521 -9.07673e-21)
(1.28021 0.386997 2.24218e-20)
(1.27718 0.380446 -2.3858e-20)
(1.27008 0.371434 1.08295e-20)
(1.26115 0.361087 4.59414e-21)
(1.25178 0.350142 -5.67647e-21)
(1.2427 0.339047 4.21158e-20)
(1.23419 0.328027 -1.74062e-20)
(1.22625 0.317095 3.44335e-20)
(1.21855 0.307042 -1.19514e-20)
(0.104769 0.0180289 -2.35683e-20)
(0.30851 0.0626495 -4.06396e-20)
(0.506131 0.119975 -6.2888e-20)
(0.691055 0.181276 3.71647e-20)
(0.855519 0.241011 2.00052e-20)
(0.993275 0.294231 -2.78896e-20)
(1.10107 0.337391 4.5285e-20)
(1.17909 0.368869 -6.83447e-20)
(1.23044 0.388807 -7.10919e-20)
(1.26005 0.398636 4.19855e-20)
(1.2735 0.400467 1.53259e-20)
(1.27599 0.396537 -1.66627e-20)
(1.27178 0.388827 2.47954e-20)
(1.26401 0.378882 1.90513e-20)
(1.25477 0.367784 -1.36183e-20)
(1.24531 0.356222 -4.53338e-21)
(1.23628 0.34461 -3.21059e-20)
(1.22788 0.333136 6.41307e-21)
(1.22009 0.321802 -2.62651e-20)
(1.2125 0.311446 -4.19907e-21)
(0.109461 0.0209439 1.95807e-20)
(0.319905 0.0707432 -3.19753e-20)
(0.521615 0.132348 5.69919e-20)
(0.708088 0.196755 9.42889e-20)
(0.871795 0.258259 -1.32444e-19)
(1.007 0.31195 1.14035e-19)
(1.11115 0.354514 2.9953e-20)
(1.18515 0.384671 -4.25309e-20)
(1.2327 0.402925 4.91471e-20)
(1.25913 0.411005 2.83764e-20)
(1.27017 0.411221 3.43695e-20)
(1.27101 0.405909 -5.82498e-20)
(1.26579 0.397068 -1.17262e-20)
(1.25748 0.386213 2.75559e-20)
(1.24802 0.37438 1.02898e-20)
(1.23853 0.362211 4.62823e-20)
(1.22958 0.350083 5.68591e-20)
(1.22133 0.338157 -1.37288e-20)
(1.2137 0.32642 2.33917e-20)
(1.20626 0.315762 2.59003e-20)
(0.114056 0.0240373 -5.73874e-21)
(0.330921 0.0792238 -7.43915e-20)
(0.536383 0.145162 -9.96621e-20)
(0.724059 0.212615 -1.27117e-19)
(0.886723 0.275754 -1.21839e-20)
(1.0192 0.329758 4.47188e-20)
(1.11966 0.371583 -8.30829e-21)
(1.18971 0.400319 1.43186e-20)
(1.23363 0.416834 -2.1728e-20)
(1.25709 0.423154 3.5575e-20)
(1.26594 0.421771 -5.29601e-20)
(1.26531 0.415104 6.75028e-20)
(1.25923 0.40516 3.78504e-20)
(1.2505 0.393418 1.68172e-20)
(1.24089 0.380863 -2.45969e-20)
(1.23143 0.368095 -2.57043e-20)
(1.2226 0.355456 -2.38798e-20)
(1.21453 0.343078 1.71834e-21)
(1.2071 0.330937 3.02172e-20)
(1.19982 0.319978 -3.14408e-20)
(0.118533 0.0273028 -1.01402e-20)
(0.341512 0.0880688 5.78896e-20)
(0.550377 0.158379 7.1228e-20)
(0.738919 0.228806 -1.09205e-20)
(0.90027 0.293442 3.1753e-20)
(1.02987 0.347602 8.39952e-21)
(1.12661 0.388554 -4.43814e-20)
(1.19282 0.415777 3.44163e-20)
(1.23329 0.430513 3.15305e-20)
(1.25398 0.435066 -5.34841e-20)
(1.26084 0.432104 8.42015e-20)
(1.25894 0.424111 -6.83795e-20)
(1.25214 0.413092 3.85849e-20)
(1.24308 0.400484 -5.48342e-20)
(1.2334 0.387223 7.88577e-20)
(1.22402 0.373864 -4.86464e-20)
(1.21535 0.360717 -1.38755e-20)
(1.20748 0.347889 -1.82616e-20)
(1.20027 0.33534 -3.77088e-20)
(1.19319 0.324084 6.32597e-22)
(0.122873 0.0307327 7.28917e-20)
(0.351635 0.097253 7.25197e-20)
(0.563546 0.171959 -1.02371e-19)
(0.752622 0.245276 -6.09958e-20)
(0.912412 0.311266 8.83308e-20)
(1.039 0.365429 -3.44148e-20)
(1.13204 0.405382 4.93139e-20)
(1.19451 0.431013 2.07526e-20)
(1.2317 0.443935 -4.71081e-20)
(1.24985 0.446726 -1.14028e-19)
(1.25492 0.442208 -1.98651e-20)
(1.25191 0.432919 -4.06793e-20)
(1.24452 0.420852 -5.89422e-20)
(1.23523 0.407401 4.67076e-21)
(1.22555 0.393448 -5.89704e-21)
(1.21629 0.379505 -5.4287e-21)
(1.20782 0.365855 4.33516e-20)
(1.20018 0.352577 3.05084e-20)
(1.19321 0.339616 3.40479e-21)
(1.18635 0.328068 1.71026e-20)
(0.127056 0.0343181 -1.75855e-20)
(0.361247 0.106749 1.28806e-19)
(0.575843 0.185858 4.88626e-20)
(0.765131 0.261971 9.72512e-20)
(0.923131 0.32917 3.10001e-20)
(1.04661 0.383188 1.15903e-20)
(1.13596 0.422025 -7.17882e-20)
(1.19483 0.445994 -2.25922e-20)
(1.22894 0.457078 1.09457e-20)
(1.24474 0.458115 8.47049e-20)
(1.24822 0.452067 -2.7109e-20)
(1.24426 0.441515 3.27884e-20)
(1.23641 0.428429 6.75068e-20)
(1.22698 0.414155 1.5033e-20)
(1.21735 0.399523 -1.28485e-20)
(1.20826 0.385005 1.68051e-20)
(1.20002 0.370858 3.10736e-20)
(1.19262 0.357131 1.37261e-20)
(1.18593 0.343753 3.45095e-20)
(1.17929 0.331922 2.56841e-20)
(0.131066 0.0380492 -4.59664e-20)
(0.37031 0.116527 -6.59954e-20)
(0.587226 0.20003 4.10508e-20)
(0.776413 0.278836 1.35263e-20)
(0.932415 0.347097 2.62909e-20)
(1.0527 0.400827 -1.04875e-19)
(1.13842 0.438442 3.72208e-20)
(1.19381 0.460689 -7.84496e-20)
(1.22503 0.469918 -4.25526e-20)
(1.23869 0.469216 4.83598e-20)
(1.24076 0.461668 -5.08486e-21)
(1.23601 0.449886 2.98122e-21)
(1.22781 0.435809 -8.2049e-20)
(1.21832 0.420733 -3.22935e-20)
(1.20881 0.405436 2.5823e-20)
(1.19993 0.390353 -4.42022e-20)
(1.19194 0.375715 -2.31751e-20)
(1.18483 0.361544 -2.28807e-20)
(1.17842 0.347752 -3.86941e-20)
(1.17194 0.335638 -8.70044e-20)
(0.134883 0.041915 2.67617e-20)
(0.378789 0.126556 -3.1134e-20)
(0.597655 0.214428 -1.6634e-19)
(0.786443 0.295816 8.78678e-20)
(0.940258 0.364992 -1.06887e-19)
(1.0573 0.418297 -1.48601e-20)
(1.13944 0.45459 -1.40354e-19)
(1.19152 0.475065 1.45918e-19)
(1.22004 0.482432 8.13194e-20)
(1.23175 0.48001 -4.76086e-21)
(1.23259 0.470996 2.76219e-20)
(1.22719 0.458017 -3.40655e-20)
(1.21875 0.442978 -2.67292e-21)
(1.20928 0.42712 1.5141e-20)
(1.19993 0.411174 -1.523e-20)
(1.1913 0.395534 2.77313e-20)
(1.18359 0.380411 -3.58816e-20)
(1.17679 0.365805 -3.13407e-20)
(1.1707 0.351638 1.74357e-20)
(1.16434 0.33921 2.31465e-20)
(0.138493 0.0459034 6.12131e-20)
(0.38665 0.136802 5.75713e-20)
(0.607099 0.229002 4.35188e-20)
(0.7952 0.312852 -1.08027e-21)
(0.94666 0.382797 -2.77566e-20)
(1.06042 0.435547 1.83737e-19)
(1.13906 0.47043 1.01912e-19)
(1.18798 0.489093 6.74595e-20)
(1.21399 0.494597 9.34815e-20)
(1.22395 0.49048 1.11753e-20)
(1.22374 0.480035 -7.4127e-20)
(1.21782 0.465893 -7.67856e-21)
(1.20924 0.449921 -1.5268e-20)
(1.19986 0.433303 -4.85015e-20)
(1.19073 0.416721 -1.76155e-20)
(1.18237 0.400535 -2.42953e-20)
(1.17498 0.384933 7.38825e-20)
(1.16852 0.369891 -8.83958e-22)
(1.16276 0.355402 1.94988e-20)
(1.1566 0.342649 1.52471e-20)
(0.141879 0.0500016 -2.05092e-20)
(0.393863 0.147231 -3.34658e-20)
(0.615528 0.243704 -7.14701e-20)
(0.802669 0.32989 -1.17961e-20)
(0.951626 0.400458 -1.13795e-19)
(1.06208 0.452529 -7.98815e-20)
(1.13732 0.485923 2.59564e-20)
(1.18324 0.502742 -1.84153e-19)
(1.20695 0.506389 -9.74464e-20)
(1.21534 0.500607 2.31278e-20)
(1.21423 0.488768 -1.1537e-20)
(1.20792 0.4735 6.5508e-20)
(1.19929 0.456623 8.68744e-20)
(1.19007 0.439266 2.14153e-20)
(1.1812 0.422063 5.64809e-20)
(1.17316 0.405341 -2.87566e-20)
(1.1661 0.389268 3.81765e-20)
(1.16001 0.373799 2.08254e-20)
(1.15458 0.358987 1.74394e-20)
(1.14875 0.345939 -3.26182e-20)
(0.145027 0.0541957 3.08286e-20)
(0.400403 0.157805 -3.51502e-21)
(0.62292 0.258482 -1.10784e-19)
(0.808841 0.346871 -1.37024e-22)
(0.955166 0.417919 2.56128e-19)
(1.06232 0.469195 5.01977e-20)
(1.13426 0.50103 3.71098e-20)
(1.17735 0.515983 1.0659e-19)
(1.19894 0.517787 -8.42739e-20)
(1.20595 0.510373 -8.82464e-20)
(1.2041 0.497178 -7.59795e-22)
(1.19752 0.480821 -5.92354e-20)
(1.18892 0.463069 -3.21385e-20)
(1.17991 0.444994 8.4261e-20)
(1.17135 0.427185 -2.16749e-20)
(1.16366 0.409938 1.70442e-21)
(1.15697 0.393402 -2.78121e-20)
(1.15126 0.377518 -4.06932e-20)
(1.1462 0.362383 2.19822e-21)
(1.14073 0.349048 3.65467e-20)
(0.147924 0.0584713 -1.48794e-19)
(0.406246 0.168487 8.71423e-20)
(0.629256 0.273283 1.9044e-19)
(0.813712 0.363739 5.85917e-20)
(0.957294 0.435126 -3.0185e-19)
(1.06117 0.485498 -1.22178e-19)
(1.12992 0.515715 -9.35848e-20)
(1.17036 0.528787 -3.33553e-20)
(1.19001 0.528767 1.10356e-19)
(1.19582 0.519757 1.17142e-20)
(1.19336 0.505249 -2.18651e-20)
(1.18662 0.487839 3.96323e-20)
(1.17815 0.469242 5.60568e-21)
(1.16941 0.450472 -1.00338e-19)
(1.1612 0.432072 2.90611e-20)
(1.15388 0.414313 3.76885e-20)
(1.14758 0.397324 1.73406e-20)
(1.14228 0.381033 2.32324e-20)
(1.13762 0.365578 -3.93121e-20)
(1.13253 0.351965 -1.86875e-20)
(0.150558 0.0628132 -1.01713e-20)
(0.411372 0.179239 4.40078e-20)
(0.634521 0.288057 2.15659e-20)
(0.817283 0.380437 6.26e-20)
(0.95803 0.452025 1.68591e-19)
(1.05865 0.501394 -1.07578e-19)
(1.12434 0.529941 -6.29742e-21)
(1.1623 0.541126 9.90848e-20)
(1.1802 0.539307 -1.17375e-19)
(1.18497 0.528742 3.7415e-20)
(1.18206 0.512964 9.38371e-20)
(1.17526 0.494539 2.0912e-20)
(1.16698 0.475126 -4.36633e-20)
(1.15857 0.455683 7.17119e-20)
(1.15074 0.43671 -8.10778e-20)
(1.14383 0.41845 2.05226e-21)
(1.13795 0.401018 -1.79394e-20)
(1.13308 0.384332 2.97654e-20)
(1.12884 0.368563 2.58311e-20)
(0.152918 0.0672055 1.931e-20)
(0.415765 0.190022 7.04123e-20)
(0.638707 0.30275 6.83185e-20)
(0.81956 0.396909 -4.25009e-20)
(0.957396 0.468565 3.65087e-21)
(1.05482 0.516837 9.99039e-20)
(1.11758 0.543672 1.7328e-19)
(1.15322 0.552972 -1.74409e-20)
(1.16955 0.549385 1.60179e-20)
(1.17345 0.537308 -4.6359e-20)
(1.1702 0.520304 -9.57936e-20)
(1.16345 0.500903 1.50614e-20)
(1.15543 0.480705 5.13399e-20)
(1.1474 0.460612 -1.02222e-20)
(1.13999 0.441083 -7.323e-21)
(1.13351 0.422337 -3.10072e-20)
(1.12807 0.404473 -5.03361e-21)
(1.12365 0.3874 -1.17934e-20)
(0.154996 0.0716321 -6.6689e-20)
(0.419412 0.200795 -1.61332e-19)
(0.641809 0.31731 -2.35146e-19)
(0.820554 0.4131 3.99143e-21)
(0.955419 0.484695 -1.47109e-21)
(1.04969 0.531786 -9.08123e-20)
(1.10966 0.556876 4.77517e-20)
(1.14317 0.564299 -5.06097e-20)
(1.15811 0.558978 9.30633e-20)
(1.16128 0.545436 9.08363e-20)
(1.15782 0.527252 3.94121e-20)
(1.15121 0.506914 -1.007e-20)
(1.14352 0.485962 1.38273e-20)
(1.13591 0.465244 -3.45889e-20)
(1.12896 0.445178 5.71899e-20)
(1.12293 0.425959 -2.43137e-20)
(0.156782 0.0760762 7.24275e-20)
(0.422302 0.21152 2.17962e-19)
(0.643827 0.331686 8.437e-20)
(0.820279 0.428956 -1.63403e-20)
(0.952129 0.500365 -8.81898e-20)
(1.04333 0.546199 -1.87662e-20)
(1.10064 0.569518 -2.32354e-20)
(1.13218 0.57508 -7.25363e-21)
(1.1459 0.568066 -2.77015e-20)
(1.1485 0.553107 -8.85954e-20)
(1.14495 0.533789 -7.05062e-20)
(1.13855 0.512555 4.9615e-20)
(1.13126 0.490881 -6.65189e-20)
(1.12412 0.469563 -2.79713e-21)
(1.11765 0.448979 1.66598e-20)
(0.158271 0.0805208 7.05041e-21)
(0.42443 0.222155 1.39966e-20)
(0.644764 0.345826 1.93345e-19)
(0.818754 0.444423 -1.07043e-19)
(0.94756 0.515527 2.46847e-19)
(1.03576 0.560036 1.08878e-19)
(1.09056 0.581567 -1.44387e-19)
(1.12031 0.585291 -1.29273e-20)
(1.13297 0.576627 -1.09865e-19)
(1.13513 0.560302 -2.55962e-20)
(1.1316 0.5399 2.80965e-20)
(1.1255 0.517809 3.63587e-20)
(1.11866 0.495446 6.88467e-20)
(1.11204 0.473553 8.10201e-21)
(0.159457 0.0849487 5.76987e-20)
(0.425793 0.232661 -2.60857e-19)
(0.644629 0.359679 -5.74972e-20)
(0.816003 0.459451 -4.22307e-20)
(0.941746 0.530135 -1.5463e-19)
(1.02703 0.573258 -1.48155e-19)
(1.07948 0.592992 -4.46051e-20)
(1.1076 0.594905 -5.52208e-20)
(1.11936 0.58464 1.53273e-19)
(1.12121 0.567003 5.70049e-21)
(1.1178 0.545565 -9.03344e-20)
(1.11208 0.522659 -1.20818e-19)
(1.10575 0.499641 5.31335e-20)
(0.160337 0.0893425 4.57012e-21)
(0.426391 0.242998 3.88529e-20)
(0.643433 0.373196 -1.16515e-19)
(0.812051 0.473989 6.70183e-20)
(0.934728 0.544144 7.32192e-21)
(1.01719 0.58583 1.84857e-19)
(1.06743 0.603765 7.08446e-20)
(1.09409 0.603901 1.08403e-19)
(1.1051 0.592085 -6.86084e-20)
(1.10677 0.573191 1.18641e-19)
(1.10357 0.550767 7.60586e-20)
(1.0983 0.527089 1.54904e-20)
(0.160908 0.0936849 -1.16436e-19)
(0.426226 0.253126 2.63996e-19)
(0.641192 0.386329 1.36125e-19)
(0.806928 0.487988 4.92855e-20)
(0.926545 0.557511 -2.56205e-20)
(1.00629 0.597715 -1.52484e-19)
(1.05447 0.613857 2.22062e-20)
(1.07982 0.612253 -2.03978e-20)
(1.09023 0.598943 -7.0458e-20)
(1.09184 0.578848 -8.16959e-20)
(1.08894 0.55549 4.23641e-20)
(0.161169 0.0979587 -2.43825e-20)
(0.425305 0.263008 -6.98064e-20)
(0.637925 0.399029 -1.56671e-19)
(0.800667 0.501401 -7.89304e-20)
(0.917243 0.570195 -9.03374e-20)
(0.994378 0.608879 7.75568e-20)
(1.04064 0.623242 -3.03055e-20)
(1.06484 0.619942 1.8172e-20)
(1.07478 0.605193 -1.06569e-20)
(1.07644 0.583957 -3.65312e-20)
(0.16112 0.102147 2.35024e-19)
(0.423638 0.272605 7.85095e-21)
(0.633654 0.411252 -6.87189e-20)
(0.793304 0.514185 6.42189e-20)
(0.906868 0.582157 -1.02469e-20)
(0.981497 0.619293 -2.84769e-20)
(1.02598 0.631893 -6.42637e-20)
(1.04919 0.626947 8.81028e-21)
(1.0588 0.610819 7.20902e-20)
(0.160764 0.106234 -5.24564e-20)
(0.421234 0.281881 5.70075e-20)
(0.628405 0.422952 1.55988e-20)
(0.784878 0.526294 1.34963e-19)
(0.895469 0.593362 -1.77741e-20)
(0.967693 0.628923 -8.19591e-20)
(1.01055 0.639786 1.42733e-19)
(1.03292 0.633245 4.45385e-21)
(0.160103 0.110203 -2.15937e-19)
(0.418108 0.2908 -6.5787e-21)
(0.622206 0.434088 1.2869e-19)
(0.775434 0.537688 -1.52653e-20)
(0.883086 0.603774 1.91163e-19)
(0.953019 0.637746 7.28352e-22)
(0.994407 0.646899 -1.49718e-19)
(0.15914 0.114041 1.2901e-19)
(0.414275 0.299329 -1.00914e-19)
(0.615092 0.444617 -1.50418e-19)
(0.765015 0.548334 -2.41578e-20)
(0.86976 0.613353 -1.25479e-19)
(0.937535 0.645732 5.48768e-20)
(0.157882 0.117732 -5.01533e-20)
(0.409757 0.307433 6.46938e-20)
(0.607099 0.4545 -1.83603e-20)
(0.753654 0.558191 -2.37674e-20)
(0.855555 0.622079 4.75375e-21)
(0.156332 0.121262 -7.85482e-20)
(0.404572 0.31508 -7.5241e-20)
(0.598257 0.463701 1.61206e-19)
(0.741394 0.567218 4.53166e-20)
(0.840533 0.629921 1.12328e-20)
(0.154496 0.124616 9.63794e-20)
(0.398745 0.32224 1.44208e-19)
(0.588601 0.472182 -3.73011e-20)
(0.728298 0.575391 -3.47452e-20)
(0.152375 0.127772 -6.42022e-20)
(0.392309 0.328889 -1.11986e-19)
(0.578176 0.479913 -5.19281e-20)
(0.149977 0.1307 6.33382e-20)
(0.385305 0.334998 1.12222e-19)
(0.567026 0.486867 4.62874e-20)
(0.147336 0.133384 -3.26515e-20)
(0.377753 0.340523 -6.02234e-22)
(0.144472 0.135839 2.84131e-20)
(0.141381 0.138052 4.20183e-21)
(0.146345 -0.142877 -5.28805e-20)
(0.14955 -0.140588 9.13472e-21)
(0.152528 -0.138053 -6.48351e-20)
(0.390572 -0.352006 -1.25565e-19)
(0.155277 -0.135284 1.14262e-19)
(0.398427 -0.346305 7.90546e-20)
(0.58558 -0.502566 -1.73404e-20)
(0.157783 -0.132271 -7.72415e-20)
(0.405727 -0.340009 -2.02156e-19)
(0.597181 -0.495377 -7.74853e-20)
(0.16001 -0.129025 1.16371e-19)
(0.412454 -0.333163 1.68874e-19)
(0.608053 -0.487403 -1.5384e-20)
(0.751267 -0.592927 -3.6181e-20)
(0.161948 -0.125574 -1.35929e-19)
(0.418567 -0.325798 -5.03313e-20)
(0.618152 -0.478668 8.79087e-20)
(0.764915 -0.584479 6.82816e-20)
(0.865872 -0.64793 4.17858e-20)
(0.163594 -0.121942 3.48256e-20)
(0.424033 -0.317938 -2.93837e-20)
(0.627431 -0.469201 7.64617e-20)
(0.777725 -0.575166 -1.00934e-19)
(0.881511 -0.639795 -7.30222e-21)
(0.947798 -0.67025 5.54581e-20)
(0.164945 -0.118146 2.54238e-19)
(0.428825 -0.309611 -1.40673e-19)
(0.635853 -0.459042 -1.86599e-19)
(0.789639 -0.565019 -7.64708e-20)
(0.896334 -0.630765 -1.03433e-19)
(0.964676 -0.66281 -4.65626e-21)
(0.165994 -0.1142 -1.34656e-19)
(0.432923 -0.300852 -5.37331e-21)
(0.643389 -0.448227 9.74949e-20)
(0.800603 -0.554069 1.26543e-20)
(0.910282 -0.62087 2.06729e-19)
(0.980795 -0.654495 -1.7695e-20)
(1.02191 -0.662745 1.49844e-20)
(0.166736 -0.110119 -5.39043e-20)
(0.436305 -0.291693 2.34662e-20)
(0.650001 -0.436794 4.07527e-20)
(0.810579 -0.542357 9.32341e-20)
(0.923275 -0.610123 -5.74809e-20)
(0.996121 -0.645341 1.91055e-20)
(1.03869 -0.655296 1.37379e-19)
(1.06032 -0.647571 -1.35405e-20)
(0.167168 -0.105917 2.74631e-19)
(0.438954 -0.282168 -6.71826e-20)
(0.655656 -0.424783 -8.61353e-20)
(0.819536 -0.529913 4.60022e-20)
(0.935274 -0.598577 2.44547e-20)
(1.01058 -0.635384 -4.67251e-20)
(1.05476 -0.647051 -9.63818e-21)
(1.0772 -0.640906 -2.39435e-20)
(1.08586 -0.623568 2.3856e-20)
(0.167286 -0.101611 -1.22389e-19)
(0.440856 -0.272314 1.39864e-20)
(0.660322 -0.412238 -1.31279e-19)
(0.827427 -0.516785 -1.65906e-19)
(0.946259 -0.586274 -6.34075e-20)
(1.02411 -0.624626 -4.3659e-21)
(1.07006 -0.638039 7.31717e-20)
(1.09346 -0.633528 -5.08345e-20)
(1.10241 -0.617553 1.44342e-20)
(1.10309 -0.595186 9.10377e-20)
(0.167088 -0.0972167 -1.27836e-19)
(0.441998 -0.262166 2.62888e-19)
(0.663972 -0.399205 1.5272e-19)
(0.834209 -0.503017 6.44878e-20)
(0.956172 -0.573239 -2.30093e-20)
(1.03666 -0.613104 -1.31313e-19)
(1.08453 -0.628288 -7.39405e-20)
(1.10905 -0.625459 -3.26173e-20)
(1.11843 -0.610906 -3.92461e-20)
(1.11901 -0.589666 -1.32202e-19)
(1.11515 -0.565292 6.80543e-20)
(0.166574 -0.0927501 2.3204e-20)
(0.44237 -0.251763 -3.63135e-20)
(0.666582 -0.385728 2.71012e-20)
(0.839841 -0.488653 -6.38165e-20)
(0.96496 -0.559509 1.26604e-19)
(1.04821 -0.600855 2.03747e-19)
(1.09814 -0.617823 5.83739e-20)
(1.12394 -0.616722 1.39982e-19)
(1.13387 -0.603646 -6.87729e-20)
(1.13447 -0.583591 1.46518e-19)
(1.13027 -0.560141 3.0282e-20)
(1.12409 -0.53556 1.17278e-19)
(0.165743 -0.088229 -8.18999e-20)
(0.441966 -0.241143 -1.75332e-19)
(0.668132 -0.371856 -1.30552e-19)
(0.844291 -0.473738 3.79162e-20)
(0.972577 -0.545126 -1.89031e-19)
(1.05869 -0.587911 -2.11022e-19)
(1.11084 -0.606672 -2.28253e-20)
(1.13807 -0.607335 -5.10696e-20)
(1.14871 -0.595792 1.61582e-19)
(1.14943 -0.576979 -3.48057e-20)
(1.14498 -0.554503 -9.27049e-20)
(1.13832 -0.530689 -1.40404e-19)
(1.13112 -0.506857 -8.04414e-20)
(0.164598 -0.0836707 -6.52139e-20)
(0.44078 -0.230346 -4.85329e-20)
(0.668604 -0.357636 2.00033e-19)
(0.847527 -0.458322 -1.17096e-19)
(0.978984 -0.530133 2.80637e-19)
(1.06806 -0.574309 1.0759e-19)
(1.12258 -0.594863 -6.34874e-20)
(1.15141 -0.597324 -9.71643e-20)
(1.1629 -0.587366 -1.33466e-19)
(1.16388 -0.569848 5.27843e-20)
(1.15927 -0.548397 8.42113e-21)
(1.15219 -0.52539 4.49601e-20)
(1.14446 -0.502213 8.86659e-20)
(1.137 -0.479576 1.76322e-20)
(0.163141 -0.0790929 1.29045e-19)
(0.438812 -0.219412 1.94685e-19)
(0.667984 -0.343119 8.92662e-21)
(0.849522 -0.442456 1.07805e-19)
(0.984138 -0.514577 -2.44932e-19)
(1.07628 -0.560084 5.58289e-20)
(1.13331 -0.582424 -3.48749e-20)
(1.16391 -0.586714 -7.15489e-21)
(1.17641 -0.578387 -5.08301e-20)
(1.17778 -0.562218 -9.42679e-20)
(1.1731 -0.541839 -2.18774e-20)
(1.16569 -0.519681 4.52906e-20)
(1.15748 -0.497192 -1.27131e-19)
(1.14948 -0.475131 3.01438e-20)
(1.14219 -0.453854 -5.50823e-20)
(0.161378 -0.0745129 -2.30986e-20)
(0.436063 -0.208381 -2.98452e-19)
(0.666264 -0.328356 -2.20749e-19)
(0.850251 -0.426189 -1.31192e-20)
(0.988004 -0.498502 4.46729e-20)
(1.08329 -0.545276 -7.85225e-20)
(1.14299 -0.569388 -1.8663e-21)
(1.17552 -0.575528 1.98751e-20)
(1.18921 -0.568878 2.65773e-20)
(1.1911 -0.554108 1.42457e-19)
(1.18647 -0.534848 5.24654e-20)
(1.17879 -0.513579 -1.08464e-20)
(1.17016 -0.491809 1.19633e-20)
(1.16167 -0.470351 -1.4454e-20)
(1.15387 -0.449595 6.05545e-20)
(1.14703 -0.429721 2.41294e-20)
(0.159315 -0.0699482 4.27075e-20)
(0.432538 -0.197293 1.59535e-19)
(0.663438 -0.313397 9.40762e-20)
(0.849693 -0.409577 -1.70268e-19)
(0.990545 -0.481958 3.35801e-20)
(1.08905 -0.529925 1.87316e-19)
(1.15157 -0.555785 9.3366e-20)
(1.18622 -0.563793 1.0474e-20)
(1.20125 -0.55886 9.19092e-20)
(1.20381 -0.545538 -1.68307e-19)
(1.19933 -0.527443 -4.23411e-20)
(1.19148 -0.507102 -1.60917e-20)
(1.18248 -0.486083 8.74712e-20)
(1.17355 -0.465251 -2.52721e-20)
(1.16528 -0.445036 -1.4916e-21)
(1.15797 -0.425639 -3.6709e-20)
(1.15171 -0.407151 -1.1871e-20)
(1.14651 -0.389469 -5.8433e-20)
(0.156959 -0.0654156 -3.98251e-20)
(0.428245 -0.18619 -2.30807e-20)
(0.659502 -0.298296 -5.73971e-20)
(0.84783 -0.392673 1.76979e-19)
(0.99173 -0.464995 1.1365e-19)
(1.09353 -0.514072 -3.20467e-20)
(1.159 -0.54165 -5.18187e-21)