/*--------------------------------*- C++ -*----------------------------------*\
  =========                 |
  \\      /  F ield         | OpenFOAM: The Open Source CFD Toolbox
   \\    /   O peration     | Website:  https://openfoam.org
    \\  /    A nd           | Version:  7
     \\/     M anipulation  |
\*---------------------------------------------------------------------------*/
FoamFile
{
    version     2.0;
    format      ascii;
    class       surfaceScalarField;
    location    "140";
    object      phi;
}
// * * * * * * * * * * * * * * * * * * * * * * * * * * * * * * * * * * * * * //

dimensions      [0 3 -1 0 0 0 0];

internalField   nonuniform List<scalar> 
13926
(
-8.15462e-07
-2.57444e-05
2.65598e-05
-3.07734e-06
-6.62602e-05
6.85221e-05
-6.66989e-06
-9.7962e-05
0.000101555
-0.00012146
0.000126274
-8.32688e-07
-2.49117e-05
-3.1317e-06
-6.39612e-05
-6.76967e-06
-9.4324e-05
-0.0001166
-8.45566e-07
-2.40661e-05
-3.17065e-06
-6.16361e-05
-6.83748e-06
-9.06572e-05
-0.000111718
-8.54258e-07
-2.32119e-05
-3.19488e-06
-5.92955e-05
-6.87482e-06
-8.69773e-05
-0.000106833
-8.5905e-07
-2.23528e-05
-3.20531e-06
-5.69492e-05
-6.88357e-06
-8.3299e-05
-0.000101964
-8.6021e-07
-2.14926e-05
-3.20292e-06
-5.46065e-05
-6.86582e-06
-7.96361e-05
-9.71281e-05
-8.58075e-07
-2.06345e-05
-3.18889e-06
-5.22757e-05
-6.82399e-06
-7.6001e-05
-9.23416e-05
-8.52998e-07
-1.97815e-05
-3.16447e-06
-4.99642e-05
-6.76067e-06
-7.24048e-05
-8.76186e-05
-8.45364e-07
-1.89362e-05
-3.13103e-06
-4.76785e-05
-6.67868e-06
-6.88571e-05
-8.29712e-05
-8.35595e-07
-1.81006e-05
-3.09004e-06
-4.54241e-05
-6.58105e-06
-6.53661e-05
-7.84098e-05
-8.2415e-07
-1.72764e-05
-3.0431e-06
-4.32052e-05
-6.47105e-06
-6.19382e-05
-7.39427e-05
-8.11493e-07
-1.64649e-05
-2.99185e-06
-4.10248e-05
-6.35202e-06
-5.8578e-05
-6.95763e-05
-7.98033e-07
-1.56669e-05
-2.93778e-06
-3.88851e-05
-6.22724e-06
-5.52885e-05
-6.53147e-05
-7.84117e-07
-1.48828e-05
-2.88222e-06
-3.6787e-05
-6.09958e-06
-5.20712e-05
-1.02548e-05
-6.11595e-05
-6.45798e-05
-7.70056e-07
-1.41127e-05
-2.82639e-06
-3.47306e-05
-5.97171e-06
-4.89259e-05
-1.0021e-05
-5.71102e-05
-5.97943e-05
-7.56204e-07
-1.33565e-05
-2.77154e-06
-3.27153e-05
-5.8464e-06
-4.5851e-05
-9.79204e-06
-5.31646e-05
-5.51498e-05
-7.42977e-07
-1.26135e-05
-2.71908e-06
-3.07392e-05
-5.72625e-06
-4.28438e-05
-9.57254e-06
-4.93183e-05
-5.0641e-05
-7.30794e-07
-1.18828e-05
-2.67043e-06
-2.87995e-05
-5.61421e-06
-3.99001e-05
-9.36664e-06
-4.55659e-05
-4.62608e-05
-7.20028e-07
-1.11627e-05
-2.62685e-06
-2.68927e-05
-5.51283e-06
-3.70141e-05
-9.17859e-06
-4.19001e-05
-4.20009e-05
-7.10976e-07
-1.04518e-05
-2.58935e-06
-2.50143e-05
-5.42421e-06
-3.41792e-05
-9.0119e-06
-3.83124e-05
-3.78512e-05
-7.03845e-07
-9.74791e-06
-2.55867e-06
-2.31595e-05
-5.34982e-06
-3.13881e-05
-8.86912e-06
-3.47931e-05
-1.29202e-05
-3.38002e-05
-2.88932e-05
-6.98776e-07
-9.04913e-06
-2.53527e-06
-2.1323e-05
-5.29069e-06
-2.86327e-05
-8.75191e-06
-3.13319e-05
-1.27169e-05
-2.98352e-05
-2.46107e-05
-6.95859e-07
-8.35327e-06
-2.51948e-06
-1.94994e-05
-5.24738e-06
-2.59048e-05
-8.66147e-06
-2.79178e-05
-1.25537e-05
-2.59429e-05
-2.04327e-05
-6.95139e-07
-7.65813e-06
-2.51143e-06
-1.76831e-05
-5.22018e-06
-2.3196e-05
-8.59794e-06
-2.45401e-05
-1.24311e-05
-2.21098e-05
-1.63436e-05
-6.96603e-07
-6.96153e-06
-2.51105e-06
-1.58687e-05
-5.20891e-06
-2.04981e-05
-8.56109e-06
-2.11879e-05
-1.23482e-05
-1.83227e-05
-1.63645e-05
-1.23272e-05
-3.66128e-06
-7.00169e-07
-6.26136e-06
-2.518e-06
-1.40508e-05
-5.21282e-06
-1.78033e-05
-8.54965e-06
-1.78511e-05
-1.23031e-05
-1.45693e-05
-1.62612e-05
-8.36913e-06
3.06063e-07
-7.05683e-07
-5.55568e-06
-2.53171e-06
-1.22248e-05
-5.23067e-06
-1.51044e-05
-8.56137e-06
-1.45204e-05
-1.22926e-05
-1.08381e-05
-1.62058e-05
-4.45589e-06
4.1996e-06
-7.1293e-07
-4.84275e-06
-2.55138e-06
-1.03864e-05
-5.26072e-06
-1.2395e-05
-8.59332e-06
-1.11878e-05
-1.23119e-05
-7.11948e-06
-1.61921e-05
-5.75683e-07
8.03261e-06
-7.21623e-07
-4.12112e-06
-2.57596e-06
-8.53202e-06
-5.30078e-06
-9.67019e-06
-8.64176e-06
-7.84678e-06
-1.23555e-05
-3.40573e-06
-1.62118e-05
3.28059e-06
-1.99954e-05
1.18163e-05
2.17835e-05
-7.31414e-07
-3.38971e-06
-2.60419e-06
-6.65924e-06
-5.34815e-06
-6.92623e-06
-8.7021e-06
-4.49283e-06
-1.24165e-05
3.08683e-07
-1.62551e-05
7.11918e-06
-1.99966e-05
1.55578e-05
2.52224e-05
-7.41892e-07
-2.64782e-06
-2.63459e-06
-4.76654e-06
-5.3997e-06
-4.16112e-06
-8.76901e-06
-1.12352e-06
-1.24867e-05
4.02641e-06
-1.63108e-05
1.09433e-05
-2.00137e-05
1.92606e-05
2.85924e-05
-7.52597e-07
-1.89522e-06
-2.66551e-06
-2.85363e-06
-5.45195e-06
-1.37469e-06
-8.83657e-06
2.2611e-06
-1.25573e-05
7.74712e-06
-1.63661e-05
1.47521e-05
-2.00295e-05
2.2924e-05
3.18916e-05
-7.63023e-07
-1.1322e-06
-2.69514e-06
-9.21514e-07
-5.50108e-06
1.43125e-06
-8.89832e-06
5.65835e-06
-1.26184e-05
1.14672e-05
-1.64072e-05
1.85409e-05
-2.00253e-05
2.65421e-05
-2.32473e-05
3.51136e-05
4.38792e-05
-7.72633e-07
-3.59563e-07
-2.72155e-06
1.02741e-06
-5.54305e-06
4.25275e-06
-8.9474e-06
9.0627e-06
-1.26596e-05
1.51794e-05
-1.64197e-05
2.2301e-05
-1.99816e-05
3.01039e-05
-2.3113e-05
3.82451e-05
4.6361e-05
-7.80867e-07
4.21304e-07
-2.74276e-06
2.9893e-06
-5.57365e-06
7.08364e-06
-8.97666e-06
1.24657e-05
-1.26703e-05
1.8873e-05
-1.6388e-05
2.60188e-05
-1.98776e-05
3.35935e-05
-2.2899e-05
4.12665e-05
4.86868e-05
-7.87158e-07
1.20846e-06
-2.75674e-06
4.95888e-06
-5.58864e-06
9.91554e-06
-8.97885e-06
1.58559e-05
-1.26392e-05
2.25334e-05
-1.62967e-05
2.96763e-05
-1.9692e-05
3.69888e-05
-2.25776e-05
4.41521e-05
-2.47164e-05
5.08256e-05
5.66452e-05
-7.90946e-07
1.99941e-06
-2.7615e-06
6.92944e-06
-5.58378e-06
1.27378e-05
-8.94679e-06
1.92189e-05
-1.25556e-05
2.61422e-05
-1.61303e-05
3.3251e-05
-1.9404e-05
4.02625e-05
-2.21209e-05
4.6869e-05
-2.40338e-05
5.27385e-05
5.7514e-05
-7.91694e-07
2.7911e-06
-2.75511e-06
8.89285e-06
-5.55502e-06
1.55377e-05
-8.87352e-06
2.25374e-05
-1.24088e-05
2.96774e-05
-1.58736e-05
3.67158e-05
-1.89932e-05
4.33821e-05
-2.15023e-05
4.93781e-05
-2.31428e-05
5.43789e-05
5.80327e-05
-7.889e-07
3.58e-06
-2.73577e-06
1.08397e-05
-5.49852e-06
1.83005e-05
-8.75251e-06
2.57914e-05
-1.21888e-05
3.31138e-05
-1.55126e-05
4.00396e-05
-1.84402e-05
4.63096e-05
-2.06962e-05
5.16342e-05
-2.20107e-05
5.56934e-05
-2.21156e-05
5.81377e-05
5.85869e-05
-7.82113e-07
4.36212e-06
-2.70185e-06
1.27595e-05
-5.41082e-06
2.10095e-05
-8.57777e-06
2.89584e-05
-1.18866e-05
3.64226e-05
-1.50341e-05
4.31871e-05
-1.77272e-05
4.90027e-05
-1.96794e-05
5.35864e-05
-2.06072e-05
5.66212e-05
-2.0227e-05
5.77574e-05
5.66111e-05
-7.70949e-07
5.13306e-06
-2.65195e-06
1.46405e-05
-5.28886e-06
2.36464e-05
-8.34402e-06
3.20135e-05
-1.14939e-05
3.95724e-05
-1.44265e-05
4.61197e-05
-1.68384e-05
5.14147e-05
-1.84308e-05
5.51788e-05
-1.89059e-05
5.70962e-05
-1.79622e-05
5.68137e-05
-1.5292e-05
5.3941e-05
4.80495e-05
-7.55096e-07
5.88816e-06
-2.5849e-06
1.64703e-05
-5.13014e-06
2.61916e-05
-8.04685e-06
3.49302e-05
-1.10038e-05
4.25294e-05
-1.36798e-05
4.87957e-05
-1.57601e-05
5.3495e-05
-1.69327e-05
5.63513e-05
-1.68835e-05
5.7047e-05
-1.52925e-05
5.52228e-05
-1.18298e-05
5.04782e-05
4.23707e-05
-7.34329e-07
6.62249e-06
-2.49983e-06
1.82358e-05
-4.93269e-06
2.86245e-05
-7.68278e-06
3.76803e-05
-1.04109e-05
4.52575e-05
-1.27861e-05
5.11709e-05
-1.44815e-05
5.51904e-05
-1.51704e-05
5.70402e-05
-1.45217e-05
5.63983e-05
-1.21951e-05
5.28963e-05
-7.83704e-06
4.61201e-05
-1.07657e-06
3.56102e-05
2.08626e-05
-7.08514e-07
7.331e-06
-2.39619e-06
1.99234e-05
-4.6952e-06
3.09235e-05
-7.24936e-06
4.02345e-05
-9.71135e-06
4.77195e-05
-1.17396e-05
5.31992e-05
-1.29944e-05
5.64452e-05
-1.31334e-05
5.71792e-05
-1.1807e-05
5.50719e-05
-8.65343e-06
4.97427e-05
-3.29428e-06
4.07609e-05
4.66936e-06
2.76466e-05
9.87192e-06
-6.77608e-07
8.00861e-06
-2.27372e-06
2.15196e-05
-4.41698e-06
3.30667e-05
-6.74523e-06
4.25627e-05
-8.90264e-06
4.98769e-05
-1.05366e-05
5.48332e-05
-1.12937e-05
5.72022e-05
-1.08148e-05
5.67004e-05
-8.73086e-06
5.29879e-05
-4.65735e-06
4.56692e-05
1.80982e-06
3.42938e-05
1.10984e-05
1.8358e-05
-2.69145e-06
-6.41666e-07
8.65028e-06
-2.13249e-06
2.30104e-05
-4.098e-06
3.50322e-05
-6.17006e-06
4.46348e-05
-7.98405e-06
5.16909e-05
-9.17578e-06
5.60249e-05
-9.37721e-06
5.74037e-05
-8.21183e-06
5.5535e-05
-5.28984e-06
5.00659e-05
-2.03295e-07
4.05827e-05
7.47835e-06
2.66121e-05
1.82117e-05
7.62471e-06
3.24809e-05
-1.69607e-05
-4.77703e-05
-6.0083e-07
9.25111e-06
-1.97288e-06
2.43824e-05
-3.73886e-06
3.67982e-05
-5.52459e-06
4.64205e-05
-6.95635e-06
5.31227e-05
-7.65781e-06
5.67264e-05
-7.24571e-06
5.69916e-05
-5.32525e-06
5.36145e-05
-1.48532e-06
4.6226e-05
4.70619e-06
3.43912e-05
1.37065e-05
1.76118e-05
2.60008e-05
-4.66962e-06
4.21032e-05
-3.30631e-05
-6.82217e-05
-5.55326e-07
9.80644e-06
-1.79555e-06
2.56227e-05
-3.34073e-06
3.83434e-05
-4.81052e-06
4.78903e-05
-5.82178e-06
5.4134e-05
-5.98552e-06
5.68901e-05
-4.90266e-06
5.59087e-05
-2.15955e-06
5.08714e-05
2.67677e-06
4.13896e-05
1.00628e-05
2.70051e-05
2.04824e-05
7.19225e-06
3.44484e-05
-1.86356e-05
5.2503e-05
-5.11177e-05
7.52138e-05
-9.09324e-05
-0.000138779
-5.05451e-07
1.03119e-05
-1.60142e-06
2.67186e-05
-2.9053e-06
3.96473e-05
-4.03041e-06
4.90154e-05
-4.58385e-06
5.46874e-05
-4.16349e-06
5.64697e-05
-2.354e-06
5.40992e-05
1.27763e-06
4.72398e-05
7.18642e-06
3.54809e-05
1.58533e-05
1.83382e-05
2.77878e-05
-4.74228e-06
4.35294e-05
-3.43772e-05
6.36454e-05
-7.12338e-05
8.87263e-05
-0.000116013
-0.000169428
-4.51559e-07
1.07634e-05
-1.39159e-06
2.76586e-05
-2.43468e-06
4.06904e-05
-3.18757e-06
4.97683e-05
-3.24718e-06
5.4747e-05
-2.19791e-06
5.54205e-05
3.92271e-07
5.1509e-05
4.97593e-06
4.26561e-05
1.20302e-05
2.84266e-05
2.20598e-05
8.30861e-06
3.55991e-05
-1.82817e-05
5.32119e-05
-5.19899e-05
7.54876e-05
-9.35095e-05
0.000103034
-0.00014356
0.000136466
-0.00020286
-0.000272088
-3.94119e-07
1.11576e-05
-1.16745e-06
2.8432e-05
-1.93149e-06
4.14544e-05
-2.28601e-06
5.01228e-05
-1.81744e-06
5.42784e-05
-9.63047e-08
5.36993e-05
3.32633e-06
4.80864e-05
8.92269e-06
3.70597e-05
1.71916e-05
2.01577e-05
2.86611e-05
-3.16083e-06
4.38886e-05
-3.35091e-05
6.34593e-05
-7.15607e-05
8.79808e-05
-0.000118031
0.000118073
-0.000173652
0.000154353
-0.000239139
0.000197413
-0.000315148
-0.00040222
-3.3343e-07
1.1491e-05
-9.30151e-07
2.90287e-05
-1.3981e-06
4.19224e-05
-1.32967e-06
5.00544e-05
-3.00391e-07
5.32491e-05
2.13333e-06
5.12656e-05
6.43754e-06
4.37822e-05
1.3104e-05
3.03933e-05
2.26526e-05
1.0609e-05
3.56334e-05
-1.61416e-05
5.26249e-05
-5.05006e-05
7.42305e-05
-9.31664e-05
0.000101071
-0.000144871
0.000133771
-0.000206352
0.00017294
-0.000278309
0.000219151
-0.000361359
-0.000455978
-2.6999e-07
1.1761e-05
-6.81217e-07
2.94399e-05
-8.37441e-07
4.20786e-05
-3.23167e-07
4.95401e-05
1.29733e-06
5.16286e-05
4.48206e-06
4.80809e-05
9.71412e-06
3.85501e-05
1.75044e-05
2.2603e-05
2.83935e-05
-2.80042e-07
4.29513e-05
-3.06994e-05
6.1775e-05
-6.93243e-05
8.54825e-05
-0.000116874
0.000114702
-0.000174091
0.000150054
-0.000241705
0.000192133
-0.000320388
0.000241476
-0.000410702
0.000298531
-0.000513033
-0.000627525
-2.04222e-07
1.19652e-05
-4.2204e-07
2.96577e-05
-2.52274e-07
4.19088e-05
7.29011e-07
4.85588e-05
2.96921e-06
4.93884e-05
6.9409e-06
4.41092e-05
1.31442e-05
3.23469e-05
2.21086e-05
1.36386e-05
3.43939e-05
-1.25653e-05
5.05885e-05
-4.6894e-05
7.13048e-05
-9.00407e-05
9.71707e-05
-0.00014274
0.000128815
-0.000205735
0.000166847
-0.000279737
0.000211833
-0.000365374
0.000264261
-0.000463129
0.000324504
-0.000573277
-0.000695812
-1.3652e-07
1.21017e-05
-1.53923e-07
2.96752e-05
3.54748e-07
4.14002e-05
1.82255e-06
4.7091e-05
4.70891e-06
4.65021e-05
9.50109e-06
3.9317e-05
1.67159e-05
2.5132e-05
2.6901e-05
3.45357e-06
4.06338e-05
-2.62981e-05
5.85187e-05
-6.4779e-05
8.11801e-05
-0.000112702
0.00010925
-0.00017081
0.000143352
-0.000239836
0.000184074
-0.000320459
0.000231941
-0.000413241
0.000287377
-0.000518566
0.000350666
-0.000636566
0.000421914
-0.000767059
-0.000909492
-6.72431e-08
1.2169e-05
1.21886e-07
2.9486e-05
9.81201e-07
4.05408e-05
2.95345e-06
4.51188e-05
6.51051e-06
4.2945e-05
1.21544e-05
3.36732e-05
2.04183e-05
1.68681e-05
3.18668e-05
-7.99492e-06
4.70936e-05
-4.15249e-05
6.67163e-05
-8.44017e-05
9.1367e-05
-0.000137353
0.000121677
-0.00020112
0.000158254
-0.000276414
0.000201657
-0.000363862
0.000252357
-0.000463941
0.000310699
-0.000576908
0.000376861
-0.000702727
0.000450807
-0.000841006
0.000532265
-0.00099095
-0.00115136
3.32824e-09
1.21656e-05
4.04403e-07
2.90849e-05
1.62498e-06
3.93203e-05
4.1182e-06
4.26256e-05
8.36871e-06
3.86945e-05
1.48932e-05
2.71486e-05
2.42409e-05
7.52039e-06
3.69922e-05
-2.07462e-05
5.37548e-05
-5.82876e-05
7.51566e-05
-0.000105803
0.000101833
-0.000164029
0.000134406
-0.000233693
0.000173463
-0.000315471
0.000219519
-0.000409918
0.000272981
-0.000517403
0.0003341
-0.000638027
0.00040293
-0.000771557
0.000479284
-0.00091736
0.000562707
-0.00107437
-0.00124111
7.49369e-08
1.20907e-05
6.92826e-07
2.84671e-05
2.28436e-06
3.77287e-05
5.31382e-06
3.95961e-05
1.0279e-05
3.37294e-05
1.77111e-05
1.97165e-05
2.81747e-05
-2.94319e-06
4.22646e-05
-3.4836e-05
6.06004e-05
-7.66234e-05
8.38162e-05
-0.000129019
0.000112545
-0.000192757
0.000147395
-0.000268543
0.000188921
-0.000356997
0.000237585
-0.000458583
0.000293715
-0.000573533
0.000357454
-0.000701767
0.00042872
-0.000842822
0.000507162
-0.000995802
0.00059214
-0.00115935
0.000682721
-0.0013317
-0.00151072
1.47453e-07
1.19433e-05
9.86537e-07
2.7628e-05
2.95803e-06
3.57572e-05
6.53801e-06
3.60161e-05
1.22376e-05
2.80298e-05
2.06026e-05
1.13515e-05
3.22118e-05
-1.45523e-05
4.76728e-05
-5.02971e-05
6.76144e-05
-9.65649e-05
9.2673e-05
-0.000154078
0.000123473
-0.000223558
0.000160602
-0.000305672
0.000204571
-0.000400966
0.000255778
-0.00050979
0.000314458
-0.000632212
0.000380634
-0.000767943
0.000454076
-0.000916264
0.000534263
-0.00107599
0.000620371
-0.00124546
0.000711281
-0.00142261
0.000805613
-0.00160506
-0.00179025
2.20785e-07
1.17225e-05
1.28519e-06
2.65636e-05
3.64513e-06
3.33973e-05
7.78914e-06
3.18721e-05
1.42419e-05
2.1577e-05
2.35633e-05
2.03011e-06
3.63454e-05
-2.73344e-05
5.32068e-05
-6.71585e-05
7.47822e-05
-0.00011814
0.000101706
-0.000181002
0.000134588
-0.00025644
0.000173984
-0.000345067
0.000220354
-0.000447336
0.000274018
-0.000563454
0.000335108
-0.000693302
0.000403513
-0.000836349
0.000478846
-0.000991598
0.000560415
-0.00115756
0.000647217
-0.00133226
0.000737969
-0.00151336
0.000831155
-0.00169824
0.000925096
-0.0018842
-0.00206895
2.9493e-07
1.14275e-05
1.58866e-06
2.52698e-05
4.34525e-06
3.06407e-05
9.06625e-06
2.71511e-05
1.629e-05
1.43532e-05
2.65899e-05
-8.26976e-06
4.05702e-05
-4.13147e-05
5.88581e-05
-8.54464e-05
8.20906e-05
-0.000141373
0.000110895
-0.000209805
0.000145859
-0.000291404
0.000187498
-0.000386707
0.000236211
-0.000496048
0.000292227
-0.000619471
0.000355562
-0.000756636
0.000425963
-0.00090675
0.00050288
-0.00106851
0.000585449
-0.00124013
0.000672504
-0.00141932
0.000762622
-0.00160348
0.000854191
-0.00178981
0.000945502
-0.00197551
-0.00215826
3.69957e-07
1.10576e-05
1.89706e-06
2.37427e-05
5.05841e-06
2.74794e-05
1.0369e-05
2.18405e-05
1.83808e-05
6.3414e-06
2.96801e-05
-1.9569e-05
4.48817e-05
-5.65163e-05
6.46188e-05
-0.000105184
8.95268e-05
-0.000166281
0.000120219
-0.000240498
0.000157255
-0.00032844
0.000201101
-0.000430553
0.00025208
-0.000547028
0.000310323
-0.000677714
0.000375715
-0.000822028
0.000447855
-0.000978889
0.000526028
-0.00114669
0.000609206
-0.0013233
0.000696075
-0.00150619
0.000785101
-0.0016925
0.000874618
-0.00187933
0.000962934
-0.00206382
0.0010484
-0.00224373
-0.00241618
4.46e-07
1.06116e-05
2.2107e-06
2.1978e-05
5.785e-06
2.39051e-05
1.16977e-05
1.59278e-05
2.0514e-05
-2.47499e-06
3.28324e-05
-3.18873e-05
4.92763e-05
-7.29602e-05
7.04819e-05
-0.000126389
9.70782e-05
-0.000192877
0.000129659
-0.000273079
0.000168747
-0.000367528
0.000214747
-0.000476553
0.000267899
-0.00060018
0.000328221
-0.000738035
0.000395461
-0.000889268
0.000469062
-0.00105249
0.000548147
-0.00122577
0.000631535
-0.00140669
0.000717787
-0.00159244
0.00080529
-0.00178001
0.000892363
-0.0019664
0.000977374
-0.00214883
0.00105882
-0.00232517
0.00113555
-0.00249291
-0.00265146
5.23248e-07
1.00883e-05
2.53008e-06
1.99712e-05
6.52573e-06
1.99094e-05
1.30529e-05
9.40067e-06
2.26899e-05
-1.2112e-05
3.60458e-05
-4.52432e-05
5.37507e-05
-9.06652e-05
7.64404e-05
-0.000149079
0.000104732
-0.000221169
0.000139194
-0.00030754
0.0001803
-0.000408635
0.000228389
-0.000524642
0.000283602
-0.000655392
0.000345834
-0.000800268
0.00041469
-0.000958124
0.000489457
-0.00112726
0.000569099
-0.00130542
0.000652298
-0.00148989
0.000737516
-0.00167766
0.000823097
-0.00186559
0.000907382
-0.00205069
0.000988838
-0.00223029
0.00106613
-0.00240246
0.00113833
-0.00256511
-0.00271817
0.00120504
6.01933e-07
9.4864e-06
2.85581e-06
1.77173e-05
7.28153e-06
1.54837e-05
1.44357e-05
2.24655e-06
2.49089e-05
-2.25852e-05
3.93196e-05
-5.9654e-05
5.8302e-05
-0.000109648
8.24871e-05
-0.000173264
0.000112475
-0.000251157
0.0001488
-0.000343864
0.000191881
-0.000451716
0.000241975
-0.000574736
0.000299117
-0.000712534
0.000363072
-0.000864223
0.000433295
-0.00102835
0.000508916
-0.00120288
0.000588754
-0.00138525
0.000671372
-0.00157251
0.000755162
-0.00176145
0.000838458
-0.00194888
0.000919663
-0.00213189
0.000997373
-0.002308
0.00107044
-0.00247553
0.00113817
-0.00263285
-0.00278034
0.00120034
6.82316e-07
8.80408e-06
3.18858e-06
1.52111e-05
8.05349e-06
1.06188e-05
1.58472e-05
-5.54712e-06
2.71717e-05
-3.39098e-05
4.26532e-05
-7.51354e-05
6.29266e-05
-0.000129921
8.8614e-05
-0.000198951
0.000120292
-0.000282836
0.000158453
-0.000382025
0.000203451
-0.000496715
0.000255452
-0.000626737
0.000314375
-0.000771457
0.000379846
-0.000929693
0.000451168
-0.00109967
0.000527321
-0.00127903
0.000606993
-0.00146493
0.000688651
-0.00165417
0.000770645
-0.00184344
0.000851337
-0.00202957
0.000929223
-0.00220978
0.00100305
-0.00238183
0.00107189
-0.00254437
0.00113524
-0.0026962
-0.00283816
0.00119307
7.64674e-07
8.03941e-06
3.52914e-06
1.24466e-05
8.84273e-06
5.30518e-06
1.72886e-05
-1.3993e-05
2.94791e-05
-4.61003e-05
4.60455e-05
-9.17018e-05
6.76206e-05
-0.000151496
9.48122e-05
-0.000226143
0.000128167
-0.00031619
0.000168126
-0.000421984
0.00021497
-0.000543558
0.000268762
-0.000680529
0.000329299
-0.000831993
0.000396061
-0.000996456
0.000468203
-0.00117181
0.000544561
-0.00135539
0.000623709
-0.00154407
0.000704045
-0.0017345
0.000783912
-0.00192331
0.000861728
-0.00210739
0.00093611
-0.00228416
0.00100598
-0.0024517
0.00107061
-0.002609
0.00112973
-0.00275532
-0.00289187
0.00118344
8.49284e-07
7.19012e-06
3.87823e-06
9.41766e-06
9.65036e-06
-4.66946e-07
1.8761e-05
-2.31036e-05
3.18311e-05
-5.91705e-05
4.9495e-05
-0.000109366
7.23788e-05
-0.00017438
0.000101071
-0.000254835
0.00013608
-0.0003512
0.000177789
-0.000463692
0.000226393
-0.000592162
0.000281846
-0.000735983
0.000343812
-0.000893959
0.000411627
-0.00106427
0.000484298
-0.00124448
0.000560533
-0.00143162
0.000638811
-0.00162235
0.000717489
-0.00181318
0.000794933
-0.00200075
0.000869648
-0.0021821
0.000940397
-0.00235491
0.00100629
-0.00251759
0.0010668
-0.00266951
0.00112185
-0.00281037
-0.0029417
0.00117168
9.36409e-07
6.25371e-06
4.23653e-06
6.11753e-06
1.04773e-05
-6.70773e-06
2.02651e-05
-3.28913e-05
3.42277e-05
-7.31331e-05
5.29991e-05
-0.000128137
7.71948e-05
-0.000198576
0.000107377
-0.000285017
0.000144011
-0.000387834
0.000187408
-0.00050709
0.000237673
-0.000642426
0.000294641
-0.000792951
0.000357837
-0.000957156
0.000426454
-0.00113289
0.000499358
-0.00131739
0.000575145
-0.00150741
0.000652222
-0.00169943
0.000728936
-0.00188989
0.000803703
-0.00207552
0.000875143
-0.00225354
0.000942179
-0.00242195
0.00100411
-0.00257952
0.00106061
-0.00272601
0.00111179
-0.00286155
-0.00298791
0.00115799
1.02629e-06
5.22743e-06
4.60463e-06
2.5392e-06
1.13244e-05
-1.34275e-05
2.18013e-05
-4.33683e-05
3.66679e-05
-8.79997e-05
5.65544e-05
-0.000148024
8.20606e-05
-0.000224082
0.000113717
-0.000316673
0.000151934
-0.000426051
0.000196949
-0.000552104
0.000248761
-0.000694238
0.000307082
-0.000851272
0.000371297
-0.00102137
0.000440454
-0.00120205
0.000513295
-0.00139023
0.000588317
-0.00158243
0.000663885
-0.001775
0.000738361
-0.00196437
0.000810242
-0.0021474
0.000878279
-0.00232158
0.000941571
-0.00248524
0.000999608
-0.00263756
0.00105225
-0.00277865
0.00109976
-0.00290906
-0.00303073
0.00114259
1.11912e-06
4.10831e-06
4.98297e-06
-1.32465e-06
1.21919e-05
-2.06364e-05
2.33695e-05
-5.45458e-05
3.91499e-05
-0.00010378
6.0156e-05
-0.00016903
8.69665e-05
-0.000250892
0.000120073
-0.000349779
0.000159824
-0.000465803
0.000206371
-0.000598651
0.000259604
-0.000747471
0.000319103
-0.000910771
0.000384113
-0.00108638
0.000453546
-0.00127148
0.000526028
-0.00146271
0.000599985
-0.00165639
0.000673761
-0.00184877
0.000745762
-0.00203637
0.000814588
-0.00221622
0.000879143
-0.00238614
0.000938703
-0.0025448
0.000992945
-0.0026918
0.0010419
-0.00282761
0.00108597
-0.00295312
-0.00307044
0.00112567
1.21507e-06
2.89324e-06
5.37186e-06
-5.48145e-06
1.30801e-05
-2.83446e-05
2.49688e-05
-6.64346e-05
4.16711e-05
-0.000120482
6.37978e-05
-0.000191156
9.19009e-05
-0.000278995
0.000126425
-0.000384304
0.000167651
-0.000507029
0.000215635
-0.000646635
0.000270148
-0.000801985
0.000330639
-0.000971262
0.000396213
-0.00115195
0.000465654
-0.00134092
0.000537491
-0.00153455
0.000610097
-0.00172899
0.000681827
-0.0019205
0.000751155
-0.0021057
0.000816803
-0.00228187
0.000877838
-0.00244717
0.000933717
-0.00260068
0.000984292
-0.00274238
0.00102975
-0.00287308
0.00107059
-0.00299396
-0.00310726
0.00110742
1.31423e-06
1.57901e-06
5.77141e-06
-9.93864e-06
1.39886e-05
-3.65618e-05
2.65979e-05
-7.90438e-05
4.42276e-05
-0.000138112
6.7472e-05
-0.000214401
9.68501e-05
-0.000308374
0.000132753
-0.000420207
0.000175384
-0.00054966
0.000224696
-0.000695947
0.000280339
-0.000857628
0.000341626
-0.00103255
0.000407526
-0.00121785
0.00047671
-0.0014101
0.000547626
-0.00160546
0.000618621
-0.00179999
0.000688082
-0.00198996
0.000754575
-0.00217219
0.000816963
-0.00234426
0.00087448
-0.00250469
0.000926761
-0.00265296
0.00097382
-0.00278944
0.00101598
-0.00291524
0.00105383
-0.00303181
-0.00314143
0.001088
1.41665e-06
1.62361e-07
6.18154e-06
-1.47035e-05
1.49168e-05
-4.5297e-05
2.82545e-05
-9.23816e-05
4.68146e-05
-0.000156672
7.11695e-05
-0.000238756
0.000101799
-0.000339003
0.000139033
-0.00045744
0.000182988
-0.000593616
0.00023351
-0.000746469
0.000290122
-0.000914239
0.000352
-0.00109443
0.000417988
-0.00128384
0.000486654
-0.00147877
0.000556388
-0.0016752
0.000625535
-0.00186914
0.000692538
-0.00205697
0.000756074
-0.00223573
0.000815158
-0.00240334
0.000869195
-0.00255872
0.000917988
-0.00270175
0.000961698
-0.00283315
0.00100076
-0.0029543
0.00103583
-0.00306688
-0.00317317
0.00106757
1.52234e-06
-1.35997e-06
6.60196e-06
-1.97832e-05
1.58634e-05
-5.45585e-05
2.99358e-05
-0.000106454
4.94261e-05
-0.000176162
7.48798e-05
-0.000264209
0.00010673
-0.000370853
0.000145238
-0.000495949
0.000190429
-0.000638807
0.000242033
-0.000798073
0.000299442
-0.000971649
0.000361702
-0.00115669
0.00042754
-0.00134968
0.000495437
-0.00154667
0.000563747
-0.00174351
0.000630836
-0.00193622
0.000695225
-0.00212136
0.000755719
-0.00229622
0.00081149
-0.00245912
0.000862114
-0.00260935
0.00090755
-0.00274719
0.000948089
-0.00287369
0.000984263
-0.00299048
0.00101676
-0.00309938
-0.00320268
0.00104627
1.63121e-06
-2.99118e-06
7.03217e-06
-2.51841e-05
1.6827e-05
-6.43534e-05
3.16383e-05
-0.000121265
5.20554e-05
-0.00019658
7.8591e-05
-0.000290745
0.000111625
-0.000403888
0.000151343
-0.000535667
0.00019767
-0.000685134
0.000250217
-0.000850619
0.000308246
-0.00102968
0.000370677
-0.00121912
0.00043613
-0.00141513
0.00050302
-0.00161356
0.000569685
-0.00181017
0.000634534
-0.00200107
0.000696187
-0.00218301
0.000753588
-0.00235362
0.00080607
-0.0025116
0.000853372
-0.00265665
0.000895598
-0.00278941
0.000933151
-0.00291124
0.000966633
-0.00302396
0.000996767
-0.00312951
-0.00323014
0.00102423
1.74315e-06
-4.73433e-06
7.47148e-06
-3.09125e-05
1.78056e-05
-7.46875e-05
3.33575e-05
-0.000136817
5.46943e-05
-0.000217916
8.22898e-05
-0.00031834
0.000116464
-0.000438062
0.000157319
-0.000576522
0.000204675
-0.000732489
0.000258019
-0.000903963
0.000316486
-0.00108814
0.000378875
-0.00128151
0.000443716
-0.00147997
0.000509375
-0.00167922
0.000574197
-0.00187499
0.000636654
-0.00206353
0.000695481
-0.00224184
0.00074977
-0.00240791
0.000799014
-0.00256084
0.000843106
-0.00270074
0.000882279
-0.00282859
0.00091703
-0.00294599
0.000948015
-0.00305494
0.000975966
-0.00315746
-0.00325572
0.00100155
1.85798e-06
-6.59231e-06
7.91901e-06
-3.69735e-05
1.87968e-05
-8.55652e-05
3.50885e-05
-0.000153109
5.73342e-05
-0.000240162
8.5962e-05
-0.000346968
0.000121226
-0.000473326
0.000163137
-0.000618433
0.000211406
-0.000780757
0.000265395
-0.000957952
0.000324114
-0.00114686
0.000386252
-0.00134365
0.000450263
-0.00154399
0.000514484
-0.00174344
0.000577289
-0.0019378
0.000637232
-0.00212347
0.000693174
-0.00229778
0.00074436
-0.0024591
0.00079044
-0.00260692
0.000831449
-0.00274175
0.000867734
-0.00286487
0.000899866
-0.00297812
0.000928537
-0.00308361
0.000954477
-0.0031834
-0.00327957
0.000978328
1.97546e-06
-8.56777e-06
8.37369e-06
-4.33717e-05
1.97978e-05
-9.69893e-05
3.6826e-05
-0.000170137
5.99653e-05
-0.000263301
8.95926e-05
-0.000376596
0.000125888
-0.000509622
0.000168768
-0.000661313
0.000217827
-0.000829816
0.000272303
-0.00101243
0.000331088
-0.00120565
0.000392771
-0.00140533
0.000455745
-0.00160696
0.000518342
-0.00180603
0.00057898
-0.00199844
0.000636315
-0.00218081
0.000689342
-0.00235081
0.000737459
-0.00250721
0.000780469
-0.00264993
0.000818533
-0.00277981
0.000852096
-0.00289844
0.000881786
-0.00300781
0.000908315
-0.00311014
0.000932401
-0.00320749
-0.00330183
0.000954655
2.09534e-06
-1.06631e-05
8.83429e-06
-5.01106e-05
2.08055e-05
-0.000108961
3.85637e-05
-0.000187895
6.25774e-05
-0.000287315
9.31657e-05
-0.000407184
0.000130429
-0.000546885
0.000174183
-0.000705067
0.000223903
-0.000879536
0.000278706
-0.00106723
0.00033737
-0.00126431
0.0003984
-0.00146636
0.000460146
-0.00166871
0.00052095
-0.00186684
0.000579299
-0.00205679
0.000633959
-0.00223547
0.000684067
-0.00240091
0.000729172
-0.00255232
0.000769218
-0.00268998
0.000804483
-0.00281508
0.000835489
-0.00292944
0.000862907
-0.00303523
0.000887454
-0.00313469
0.000909828
-0.00322986
-0.0033226
0.000930602
2.21729e-06
-1.28804e-05
9.29944e-06
-5.71928e-05
2.18167e-05
-0.000121478
4.02953e-05
-0.000206374
6.51597e-05
-0.000312179
9.6665e-05
-0.000438689
0.000134826
-0.000585046
0.000179352
-0.000749592
0.0002296
-0.000929784
0.000284568
-0.0011222
0.000342929
-0.00132267
0.000403117
-0.00152655
0.000463458
-0.00172905
0.000522325
-0.0019257
0.000578285
-0.00211275
0.000630228
-0.00228741
0.000677436
-0.00244812
0.000719604
-0.00259449
0.000756805
-0.00272718
0.000789418
-0.00284769
0.000818029
-0.00295805
0.000843335
-0.00306053
0.000866048
-0.0031574
0.000886835
-0.00325065
-0.003342
0.000906231
2.34097e-06
-1.52214e-05
9.76764e-06
-6.46195e-05
2.28277e-05
-0.000134538
4.20139e-05
-0.00022556
6.77009e-05
-0.000337866
0.000100074
-0.000471062
0.000139056
-0.000624029
0.000184247
-0.000794784
0.000234887
-0.000980424
0.000289857
-0.00117717
0.000347737
-0.00138055
0.000406905
-0.00158571
0.000465681
-0.00178782
0.000522486
-0.00198251
0.000575984
-0.00216624
0.000625192
-0.00233662
0.000669539
-0.00249247
0.000708858
-0.00263381
0.000743342
-0.00276166
0.000773452
-0.0028778
0.000799823
-0.00298442
0.000823166
-0.00308388
0.000844179
-0.00317842
0.000863491
-0.00326996
-0.00336011
0.000881598
2.46598e-06
-1.76874e-05
1.02373e-05
-7.23908e-05
2.38347e-05
-0.000148135
4.37125e-05
-0.000245438
7.01897e-05
-0.000364343
0.000103376