/*--------------------------------*- C++ -*----------------------------------*\
  =========                 |
  \\      /  F ield         | OpenFOAM: The Open Source CFD Toolbox
   \\    /   O peration     | Website:  https://openfoam.org
    \\  /    A nd           | Version:  7
     \\/     M anipulation  |
\*---------------------------------------------------------------------------*/
FoamFile
{
    version     2.0;
    format      ascii;
    class       volVectorField;
    location    "140";
    object      U;
}
// * * * * * * * * * * * * * * * * * * * * * * * * * * * * * * * * * * * * * //

dimensions      [0 1 -1 0 0 0 0];

internalField   nonuniform List<vector> 
7156
(
(-0.000133578 -0.0189013 -3.16612e-21)
(-0.00158657 -0.0473291 -1.58684e-21)
(-0.00494543 -0.0680855 2.54398e-21)
(-0.00960753 -0.0821598 -2.03797e-21)
(0.000141725 -0.0183052 6.86867e-21)
(-0.000920247 -0.0457466 3.05925e-21)
(-0.0040251 -0.065689 -6.25413e-21)
(-0.00853487 -0.079096 1.38838e-20)
(0.000399513 -0.0176944 1.17712e-21)
(-0.000294642 -0.0441331 -2.04747e-22)
(-0.00315528 -0.0632552 -2.30074e-20)
(-0.00751326 -0.0759965 -1.66328e-20)
(0.00063934 -0.0170723 1.49127e-20)
(0.00028906 -0.0424964 -2.1631e-21)
(-0.00233795 -0.060795 2.57879e-20)
(-0.00654553 -0.0728735 1.19034e-20)
(0.000860882 -0.0164423 -2.48241e-20)
(0.000829957 -0.0408448 -5.43329e-21)
(-0.0015748 -0.0583201 -9.26011e-21)
(-0.00563422 -0.0697415 2.77198e-20)
(0.00106401 -0.0158075 1.53256e-22)
(0.00132752 -0.0391857 2.90282e-20)
(-0.000867106 -0.0558408 -7.38167e-22)
(-0.00478153 -0.0666126 2.01955e-20)
(0.00124872 -0.0151707 3.26711e-20)
(0.00178148 -0.0375263 3.03541e-20)
(-0.000215841 -0.0533671 -2.20139e-20)
(-0.0039894 -0.0634988 1.51003e-20)
(0.00141513 -0.0145348 -2.32103e-20)
(0.00219186 -0.0358728 -2.20716e-20)
(0.000378303 -0.050908 3.21159e-20)
(-0.00325951 -0.0604108 -5.08174e-20)
(0.00156349 -0.013902 -2.33874e-20)
(0.00255887 -0.0342313 -5.16829e-20)
(0.00091485 -0.0484717 -7.43341e-21)
(-0.00259339 -0.0573585 -7.37136e-20)
(0.00169409 -0.0132744 5.19546e-20)
(0.00288288 -0.0326066 1.45127e-20)
(0.00139345 -0.0460655 -7.66984e-21)
(-0.00199244 -0.0543508 1.19793e-19)
(0.00180728 -0.0126539 1.65217e-20)
(0.0031643 -0.0310033 -3.77711e-20)
(0.00181377 -0.0436956 -1.45993e-20)
(-0.00145824 -0.0513952 -1.30052e-20)
(0.00190346 -0.0120418 3.61354e-21)
(0.00340365 -0.0294248 9.13882e-20)
(0.00217554 -0.0413672 -3.72506e-20)
(-0.000992077 -0.0484984 -2.6321e-20)
(0.00198302 -0.0114391 1.542e-20)
(0.00360159 -0.0278739 -6.63639e-20)
(0.00247874 -0.0390846 -7.20182e-21)
(-0.000595264 -0.0456655 1.90817e-20)
(0.00204644 -0.0108468 -1.30026e-20)
(0.00375884 -0.0263526 8.32386e-20)
(0.00272365 -0.0368503 -4.49e-20)
(-0.000268705 -0.0429014 -2.5316e-20)
(-0.00480966 -0.0451603 -3.87838e-20)
(0.00209415 -0.0102653 -7.4401e-20)
(0.0038762 -0.0248621 -5.51294e-20)
(0.0029106 -0.0346668 1.02511e-19)
(-1.30407e-05 -0.0402068 8.93876e-20)
(-0.00447883 -0.042109 2.12947e-20)
(0.00212653 -0.00969503 6.4997e-20)
(0.00395426 -0.0234033 4.00312e-21)
(0.00303966 -0.0325347 -7.80063e-20)
(0.000170948 -0.0375851 1.25714e-20)
(-0.00422979 -0.0391497 5.41603e-20)
(0.00214387 -0.00913595 -1.54146e-20)
(0.00399333 -0.0219763 1.05747e-20)
(0.00311065 -0.0304544 3.61962e-20)
(0.000282019 -0.0350347 -5.66269e-20)
(-0.00406471 -0.0362841 -5.87341e-20)
(0.00214634 -0.00858784 -1.19593e-19)
(0.0039935 -0.0205806 2.8233e-20)
(0.00312286 -0.0284255 -5.26025e-20)
(0.000318829 -0.0325562 1.60317e-19)
(-0.00398596 -0.0335105 4.60761e-20)
(0.00213404 -0.0080502 7.46429e-20)
(0.00395471 -0.019215 -2.19053e-20)
(0.00307556 -0.0264466 6.55738e-20)
(0.000279599 -0.0301479 1.1811e-19)
(-0.00399572 -0.0308282 4.82905e-20)
(0.00210695 -0.00752224 1.10729e-19)
(0.00387679 -0.0178778 -5.1235e-20)
(0.00296805 -0.0245154 5.76894e-20)
(0.00016296 -0.0278077 -8.39542e-20)
(-0.00409627 -0.0282348 5.24607e-21)
(0.00206501 -0.00700306 -7.9438e-20)
(0.00375945 -0.016567 -3.47977e-21)
(0.0027997 -0.0226292 1.78712e-20)
(-3.21109e-05 -0.0255319 -2.04861e-19)
(-0.0042892 -0.025728 6.56195e-20)
(-0.00956123 -0.0236703 8.01671e-20)
(0.00200803 -0.00649161 -1.80278e-20)
(0.00360232 -0.01528 8.69254e-20)
(0.0025699 -0.0207846 -1.35957e-19)
(-0.000306396 -0.0233173 -1.2138e-20)
(-0.00457557 -0.0233019 -4.83606e-20)
(-0.00982297 -0.0211647 1.10456e-19)
(0.00193575 -0.0059868 -1.22597e-19)
(0.00340485 -0.0140144 -1.78947e-19)
(0.002278 -0.0189781 1.66631e-19)
(-0.000660612 -0.0211589 -4.38573e-20)
(-0.00495606 -0.0209534 7.12654e-20)
(-0.0101901 -0.018757 -2.06448e-19)
(0.00184784 -0.00548751 5.48945e-20)
(0.00316638 -0.0127676 2.62435e-19)
(0.00192323 -0.0172061 -3.35211e-20)
(-0.00109525 -0.0190526 9.15342e-20)
(-0.00543104 -0.0186759 -5.18822e-20)
(-0.0106626 -0.0164427 7.87567e-20)
(0.00174387 -0.00499264 -1.419e-19)
(0.00288616 -0.0115369 -3.90839e-21)
(0.00150493 -0.0154648 -2.31733e-19)
(-0.00161076 -0.0169938 4.39137e-20)
(-0.00600002 -0.0164642 -2.29951e-20)
(-0.0112392 -0.0142148 5.89218e-20)
(-0.0169425 -0.0105769 -1.99626e-19)
(0.00162337 -0.00450113 -1.16702e-20)
(0.00256343 -0.0103198 -1.12165e-19)
(0.00102261 -0.0137506 1.5093e-19)
(-0.00220695 -0.0149777 7.70529e-20)
(-0.00666204 -0.014313 -1.68727e-19)
(-0.0119175 -0.0120658 -2.82696e-20)
(-0.0175857 -0.00854072 2.08253e-19)
(0.00148587 -0.00401204 1.83135e-19)
(0.00219747 -0.00911401 1.79853e-19)
(0.000476002 -0.0120601 1.35356e-20)
(-0.00288311 -0.0129999 -1.75362e-19)
(-0.00741505 -0.0122162 5.88539e-20)
(-0.0126938 -0.00999022 -8.3493e-20)
(-0.0183309 -0.00659641 -1.35265e-19)
(0.00133087 -0.00352456 1.13387e-19)
(0.00178767 -0.00791757 -1.2199e-19)
(-0.000134816 -0.0103902 -4.88738e-20)
(-0.00363796 -0.0110563 -3.04664e-22)
(-0.00825603 -0.0101688 -1.16887e-19)
(-0.0135633 -0.00798025 1.11454e-19)
(-0.019171 -0.00473682 -2.83148e-20)
(0.00115793 -0.00303807 -1.15427e-19)
(0.00133358 -0.00672889 -1.94559e-20)
(-0.000809363 -0.00873849 8.89742e-20)
(-0.00446951 -0.0091433 1.1554e-19)
(-0.00918111 -0.00816605 2.92755e-19)
(-0.0145193 -0.00602986 -1.30286e-19)
(-0.0200968 -0.00295341 4.29625e-20)
(-0.0255782 0.000844721 -1.53245e-19)
(0.000966658 -0.00255218 -5.16295e-20)
(0.00083502 -0.00554691 -2.44611e-20)
(-0.00154663 -0.00710295 -2.61642e-19)
(-0.0053749 -0.00725794 2.18277e-20)
(-0.010185 -0.0062035 6.29943e-20)
(-0.0155541 -0.00413345 -5.39174e-20)
(-0.0210967 -0.00123762 1.39411e-19)
(-0.026479 0.00229006 1.27712e-19)
(0.000756781 -0.00206674 -1.3004e-21)
(0.000292138 -0.00437114 1.77621e-19)
(-0.00234499 -0.00548238 1.89708e-19)
(-0.00635032 -0.00539795 -2.6462e-19)
(-0.0112612 -0.00427759 -1.55149e-19)
(-0.0166577 -0.00228527 1.78999e-21)
(-0.0221574 0.000416773 -6.67089e-20)
(-0.0274285 0.00366232 -6.22743e-20)
(0.000528159 -0.00158189 -2.4141e-21)
(-0.000294516 -0.00320171 -4.11045e-20)
(-0.00320211 -0.00387639 -1.53559e-20)
(-0.00739099 -0.00356199 -2.76565e-20)
(-0.0124019 -0.00238563 3.40985e-20)
(-0.0178188 -0.00048104 -2.62304e-20)
(-0.0232632 0.0020175 -9.91877e-21)
(-0.0284066 0.00496969 1.04122e-19)
(0.000280829 -0.00109809 1.11266e-19)
(-0.00092391 -0.00203945 -1.15308e-19)
(-0.00411491 -0.00228546 -1.25345e-19)
(-0.00849104 -0.00174965 1.33051e-19)
(-0.0135978 -0.000525884 8.02818e-20)
(-0.0190242 0.0012827 9.7865e-21)
(-0.0243966 0.00357002 -4.75212e-20)
(-0.0293906 0.00622102 1.22818e-19)
(-0.0337252 0.00911574 -3.10891e-19)
(1.50392e-05 -0.000616103 2.03264e-20)
(-0.00159446 -0.000885912 1.31896e-19)
(-0.00507941 -0.00071103 -9.81149e-21)
(-0.00964344 3.84015e-05 7.55759e-21)
(-0.0148383 0.00130233 -1.56909e-20)
(-0.0202591 0.00300851 -3.52929e-21)
(-0.025538 0.00507883 2.73479e-20)
(-0.0303552 0.0074244 -1.93069e-19)
(-0.0344327 0.00994721 2.0969e-19)
(-0.000268725 -0.000137005 -7.44162e-20)
(-0.002304 0.00025664 8.53447e-20)
(-0.00609076 0.000844526 1.19409e-20)
(-0.01084 0.00180042 4.09533e-20)
(-0.0161112 0.00309852 -3.49879e-20)
(-0.0215068 0.0046977 7.5133e-20)
(-0.0266656 0.00654795 -1.33624e-19)
(-0.0312728 0.00858516 -1.5372e-20)
(-0.035054 0.0107361 -9.59038e-20)
(-0.000569709 0.000337806 -2.14605e-20)
(-0.00304967 0.00138521 4.99263e-20)
(-0.00714316 0.00237784 1.45879e-19)
(-0.0120714 0.00353352 -9.97359e-20)
(-0.0174031 0.00486097 1.05571e-19)
(-0.0227492 0.0063503 -3.62448e-20)
(-0.0277557 0.00797953 -5.29701e-20)
(-0.0321137 0.00970962 1.00485e-19)
(-0.0355526 0.0114893 4.01077e-20)
(-0.0378364 0.0132582 6.23592e-20)
(-0.00088687 0.000806634 -2.26559e-20)
(-0.00382796 0.00249612 -5.42351e-20)
(-0.00822984 0.0038846 -1.30301e-19)
(-0.0133271 0.00523368 1.73362e-19)
(-0.0186991 0.00658671 -9.60548e-20)
(-0.0239666 0.00796496 -5.97453e-20)
(-0.0287833 0.0093744 -5.07589e-20)
(-0.0328466 0.0108006 2.33131e-19)
(-0.0358897 0.0122152 1.08723e-19)
(-0.0376782 0.0135769 -2.01387e-19)
(-0.00121886 0.00126751 -4.68206e-20)
(-0.00463464 0.00358503 1.5013e-20)
(-0.00934309 0.00535958 -9.12768e-20)
(-0.0145955 0.00689579 -2.2506e-19)
(-0.0199833 0.0082715 -3.11858e-20)
(-0.0251379 0.00953898 2.18671e-19)
(-0.0297218 0.0107319 -1.83369e-19)
(-0.0334385 0.0118603 9.88914e-20)
(-0.0360253 0.0129175 -6.35365e-20)
(-0.0372491 0.0138835 1.8277e-20)
(-0.00156404 0.00171824 -6.28026e-20)
(-0.00546476 0.00464704 3.03635e-20)
(-0.0104742 0.00679674 1.71221e-19)
(-0.0158637 0.00851369 1.2167e-19)
(-0.0212383 0.00990988 -5.78403e-20)
(-0.026241 0.0110682 -6.50916e-20)
(-0.0305434 0.0120498 2.84047e-19)
(-0.0338554 0.0128888 -2.41272e-19)
(-0.0359183 0.0136001 9.35954e-20)
(-0.0365 0.014183 -3.03347e-20)
(-0.0353918 0.014625 3.27643e-19)
(-0.00192043 0.00215641 2.93672e-20)
(-0.0063127 0.00567675 -7.45102e-20)
(-0.0116138 0.00818927 -6.94594e-20)
(-0.0171182 0.0100803 8.48889e-20)
(-0.0224461 0.0114953 -9.35272e-20)
(-0.0272528 0.0125473 -1.69554e-20)
(-0.0312194 0.0133243 -3.12325e-19)
(-0.0340625 0.0138844 3.54413e-19)
(-0.0355269 0.0142636 -1.59561e-19)
(-0.0353811 0.0144807 1.20512e-19)
(-0.033414 0.0145403 4.02468e-20)
(-0.00228579 0.00257947 -1.56042e-19)
(-0.00717217 0.00666839 3.40738e-19)
(-0.0127513 0.00952977 7.60763e-20)
(-0.0183444 0.0115876 -7.88159e-20)
(-0.0235876 0.01302 1.96211e-21)
(-0.0281493 0.0139694 1.28696e-19)
(-0.0317207 0.0145502 2.25011e-19)
(-0.0340247 0.0148438 -5.38479e-20)
(-0.0348094 0.014907 -1.02744e-19)
(-0.0338434 0.0147773 -2.66679e-19)
(-0.0309126 0.0144775 -2.94558e-19)
(-0.0258174 0.0140184 6.57607e-21)
(-0.00265758 0.0029848 9.61138e-20)
(-0.00803625 0.0076159 -2.01793e-19)
(-0.0138757 0.0108104 -6.47602e-20)
(-0.0195268 0.0130269 1.10116e-19)
(-0.024643 0.0144754 7.35308e-20)
(-0.0289062 0.0153268 -3.0436e-19)
(-0.0320177 0.0157207 6.36153e-20)
(-0.0337068 0.0157618 -3.08405e-19)
(-0.0337244 0.0155272 4.20982e-20)
(-0.0318387 0.0150729 3.1831e-19)
(-0.0278319 0.0144387 2.03866e-19)
(-0.0214982 0.0136512 -6.37164e-20)
(-0.003033 0.00336972 -4.53747e-20)
(-0.00889749 0.00851311 -1.59369e-19)
(-0.0149751 0.0120228 1.17328e-19)
(-0.0206497 0.0143892 -2.37559e-19)
(-0.0255922 0.0158522 2.40031e-20)
(-0.0294987 0.0166103 4.10743e-19)
(-0.0320807 0.016828 1.1169e-19)
(-0.0330738 0.0166319 -5.74433e-20)
(-0.0322312 0.0161193 -2.90754e-19)
(-0.0293201 0.0153643 -3.2357e-19)
(-0.0241187 0.0144232 3.76941e-21)
(-0.0164144 0.0133389 8.02685e-21)
(-0.00600193 0.0121443 -8.775e-20)
(-0.00340906 0.00373159 7.94742e-20)
(-0.00974796 0.00935381 8.64898e-20)
(-0.0160374 0.0131588 -1.33884e-19)
(-0.0216965 0.0156648 2.30371e-19)
(-0.0264145 0.0171404 -5.18332e-20)
(-0.0299019 0.0178104 -3.31992e-19)
(-0.0318804 0.0178628 -3.24985e-19)
(-0.0320915 0.017446 -7.97524e-20)
(-0.0302904 0.0166766 4.03125e-19)
(-0.0262429 0.0156465 -1.05973e-19)
(-0.0197228 0.0144283 2.99182e-20)
(-0.0105103 0.0130802 -7.01306e-20)
(0.00160814 0.0116497 3.707e-19)
(-0.00378258 0.00406786 1.52555e-19)
(-0.0105794 0.0101319 1.24439e-19)
(-0.0170498 0.01421 1.90702e-19)
(-0.0226503 0.0168441 -1.3556e-19)
(-0.0270892 0.0183298 1.68506e-19)
(-0.0300911 0.0189166 4.84197e-21)
(-0.0313878 0.0188153 2.18504e-19)
(-0.0307266 0.0181949 2.70206e-19)
(-0.0278643 0.017191 -2.46801e-20)
(-0.0225649 0.0159127 1.67262e-19)
(-0.0145974 0.0144484 -2.2345e-20)
(-0.00373533 0.0128715 1.34389e-19)
(0.010243 0.0112444 -8.56963e-20)
(-0.00415024 0.00437614 5.56737e-20)
(-0.0113831 0.0108417 -1.65377e-19)
(-0.0179992 0.0151683 -2.03836e-19)
(-0.0234943 0.0179175 7.4176e-20)
(-0.0275955 0.0194098 5.96592e-20)
(-0.0300416 0.0199183 -1.39615e-19)
(-0.0305745 0.019675 2.12502e-19)
(-0.0289468 0.0188687 5.35468e-20)
(-0.0249168 0.0176532 -1.64681e-19)
(-0.0182463 0.0161545 1.91368e-20)
(-0.00869964 0.0144766 5.1588e-21)
(0.00395591 0.0127074 -2.32669e-19)
(0.019949 0.0109233 -1.10894e-19)
(0.0395006 0.00919268 4.7638e-20)
(-0.00450864 0.00465425 -2.20674e-19)
(-0.0121503 0.0114776 -6.93333e-20)
(-0.0188725 0.0160259 3.97015e-20)
(-0.0242114 0.0188756 -1.62199e-19)
(-0.0279126 0.0203703 -1.91399e-19)
(-0.0297292 0.0208047 2.84071e-19)
(-0.0294129 0.020431 -1.57796e-19)
(-0.0267213 0.0194567 -1.69626e-19)
(-0.0214138 0.0180533 9.73914e-20)
(-0.0132503 0.0163629 1.6334e-19)
(-0.00199068 0.0145047 -1.16585e-19)
(0.0126033 0.0125807 3.86486e-19)
(0.0307656 0.0106811 -1.7704e-19)
(0.0527209 0.00888737 -2.19289e-19)
(-0.00485436 0.00490024 -2.95953e-20)
(-0.0128722 0.0120349 6.46806e-20)
(-0.0196564 0.0167757 1.54025e-19)
(-0.0247843 0.0197096 1.26027e-19)
(-0.02802 0.0212012 1.66067e-19)
(-0.0291303 0.0215651 -3.35546e-19)
(-0.0278762 0.0210725 -1.84453e-19)
(-0.0240203 0.0199485 7.09191e-20)
(-0.0173232 0.0183812 1.02821e-19)
(-0.00754276 0.0165284 -8.20514e-20)
(0.00556453 0.0145239 -1.56434e-19)
(0.0222414 0.0124834 -1.9715e-19)
(0.042725 0.0105102 2.60435e-19)
(0.0672404 0.00869894 2.12782e-19)
(0.0959902 0.00713822 2.88066e-19)
(-0.00518396 0.00511247 1.37664e-19)
(-0.0135399 0.0125092 1.03954e-19)
(-0.0203377 0.0174112 -8.79853e-20)
(-0.0251964 0.0204115 -1.51777e-19)
(-0.0278976 0.0218933 -2.11512e-21)
(-0.0282215 0.0221898 1.19873e-19)
(-0.0259384 0.0215892 2.42988e-20)
(-0.0208155 0.0203336 2.81448e-20)
(-0.0126147 0.0186268 -2.49876e-19)
(-0.00109251 0.0166415 -2.21856e-19)
(0.0139972 0.0145255 1.5541e-19)
(0.0328997 0.0124078 9.67041e-20)
(0.0558526 0.0104042 -7.797e-20)
(0.0830773 0.00862108 -2.09747e-19)
(0.114767 0.00715895 -3.32026e-20)
(-0.00549411 0.00528965 -2.31163e-19)
(-0.0141446 0.012897 -1.24981e-19)
(-0.0209034 0.017927 1.31843e-19)
(-0.0254307 0.0209741 2.07863e-21)
(-0.0275254 0.0224383 3.74104e-20)
(-0.0269803 0.0226694 -6.20607e-20)
(-0.0235745 0.0219716 2.78899e-19)
(-0.01708 0.0206024 -1.46783e-20)
(-0.00726003 0.0187807 1.06174e-20)
(0.0061292 0.0166934 -1.0339e-20)
(0.0233351 0.0145015 1.86147e-19)
(0.044603 0.0123468 -2.15145e-19)
(0.0701675 0.0103567 -4.55514e-20)
(0.100242 0.00864862 7.9492e-20)
(0.135004 0.00733348 3.15716e-19)
(0.174575 0.00651824 6.60649e-20)
(-0.00578154 0.00543081 5.15845e-20)
(-0.0146778 0.0131954 2.05251e-19)
(-0.0213405 0.0183183 -4.56975e-20)
(-0.025471 0.0213913 -9.78536e-20)
(-0.026884 0.0228289 -4.62932e-20)
(-0.0253845 0.022996 2.2208e-19)
(-0.0207602 0.0222113 -1.63668e-19)
(-0.0127877 0.0207467 -2.93665e-19)
(-0.00123252 0.018835 2.02548e-19)
(0.0141487 0.0166766 3.17659e-19)
(0.0336026 0.0144453 -9.13632e-20)
(0.0573716 0.0122948 9.0533e-20)
(0.0856833 0.0103633 1.29465e-19)
(0.118737 0.00877824 -1.99213e-19)
(0.156687 0.00765914 -2.13367e-19)
(0.199622 0.00712021 1.6081e-19)
(0.247542 0.00727341 -1.06194e-19)
(-0.00604314 0.00553536 -1.74669e-19)
(-0.015131 0.0134026 -3.10062e-20)
(-0.0216367 0.0185819 6.43934e-20)
(-0.0253011 0.0216584 1.9617e-20)
(-0.0259542 0.0230594 2.50593e-19)
(-0.0234124 0.0231632 -1.35325e-19)
(-0.0174718 0.0223015 7.85669e-20)
(-0.00791391 0.0207595 2.21392e-19)
(0.00549307 0.0187833 -3.68047e-19)
(0.0229903 0.0165856 -4.24723e-20)
(0.0448212 0.0143524 1.3468e-19)
(0.0712219 0.0122485 -8.23502e-20)
(0.102408 0.0104221 1.35727e-20)
(0.138559 0.00900927 7.37792e-20)
(0.179797 0.00813637 1.10872e-19)
(0.226167 0.00792249 -1.03961e-19)
(0.27761 0.00848083 2.96677e-19)
(-0.00627592 0.00560304 2.24009e-20)
(-0.0154962 0.0135173 -3.53607e-21)
(-0.0217795 0.0187153 2.413e-20)
(-0.0249052 0.021772 -3.83139e-20)
(-0.0247172 0.0231256 8.91285e-20)
(-0.0210429 0.0231662 -4.48599e-21)
(-0.0136863 0.0222372 -2.66913e-19)
(-0.00243448 0.0206362 6.2009e-20)
(0.0129407 0.0186213 -1.35814e-19)
(0.0326765 0.0164171 7.28595e-20)
(0.0570101 0.0142208 -1.27876e-19)
(0.086167 0.0122074 -5.02428e-20)
(0.120345 0.0105342 -1.77659e-19)
(0.159696 0.00934445 -2.52781e-19)
(0.204303 0.00876942 -5.80783e-20)
(0.254154 0.00892994 -2.58045e-19)
(0.30912 0.00993704 2.09462e-20)
(0.368926 0.011893 -3.40103e-19)
(-0.00647709 0.00563396 1.46454e-19)
(-0.0157656 0.0135392 -1.86403e-19)
(-0.0217571 0.0187176 1.42061e-19)
(-0.0242678 0.0217303 -7.37955e-20)
(-0.0231546 0.0230251 1.97899e-20)
(-0.018255 0.0230022 -2.79224e-19)
(-0.00938126 0.0220158 3.77633e-19)
(0.00367392 0.0203746 2.70969e-19)
(0.0211334 0.0183477 1.38553e-19)
(0.0432282 0.016171 -2.23411e-19)
(0.070186 0.0140518 2.53614e-19)
(0.102217 0.0121746 -1.7473e-19)
(0.139494 0.0107045 2.76717e-19)
(0.182134 0.00979046 1.02693e-19)
(0.230168 0.00956646 5.30295e-21)
(0.28352 0.0101521 4.19023e-19)
(0.341974 0.0116519 -2.67977e-19)
(0.405155 0.0141544 5.19923e-19)
(-0.00664402 0.00562857 5.5355e-21)
(-0.0159317 0.0134691 5.12084e-20)
(-0.0215579 0.018589 -1.6049e-19)
(-0.0233739 0.0215332 1.81903e-19)
(-0.0212483 0.0227572 -1.0048e-19)
(-0.0150283 0.0226708 2.00312e-19)
(-0.00453436 0.0216371 -2.1223e-19)
(0.0104342 0.019975 -4.10771e-19)
(0.0300934 0.0179641 1.60837e-19)
(0.0546652 0.0158502 -2.92982e-20)
(0.0843637 0.0138503 -2.11482e-20)
(0.119378 0.012157 3.25455e-19)
(0.15985 0.010942 -2.18136e-20)
(0.20585 0.0103582 4.11876e-20)
(0.257349 0.0105399 9.30438e-21)
(0.314191 0.0116024 -9.81683e-20)
(0.376063 0.0136394 6.23098e-20)
(0.442475 0.0167207 -1.61861e-20)
(0.51275 0.0208887 -3.74223e-21)
(-0.00677427 0.00558762 1.44158e-21)
(-0.0159874 0.0133082 1.01197e-19)
(-0.0211706 0.0183309 -4.91182e-20)
(-0.0222083 0.021182 -2.80427e-19)
(-0.01898 0.0223237 2.27755e-20)
(-0.0113422 0.0221737 -3.64295e-20)
(0.000876403 0.0211035 8.66908e-20)
(0.0178687 0.019441 3.11925e-19)
(0.039842 0.0174754 -4.28318e-20)
(0.067006 0.0154616 2.00302e-19)
(0.0995565 0.013625 -3.13299e-19)
(0.137655 0.0121656 -8.28744e-20)
(0.181403 0.0112599 1.06769e-19)
(0.230817 0.0110628 -3.73313e-20)
(0.285795 0.0117063 -1.29293e-19)
(0.346087 0.0132979 1.67831e-19)
(0.411269 0.0159166 -9.96703e-20)
(0.480724 0.0196087 -2.08379e-19)
(0.553637 0.0243821 1.17885e-19)
(0.62901 0.0302056 -3.76025e-19)
(-0.00686556 0.00551212 -1.13499e-19)
(-0.0159258 0.0130587 -1.03425e-19)
(-0.0205842 0.0179462 1.51819e-19)
(-0.0207566 0.0206799 7.02544e-20)
(-0.0163321 0.0217281 1.15461e-19)
(-0.00717643 0.0215154 4.00883e-19)
(0.00687288 0.0204204 -3.59754e-19)
(0.0259998 0.0187794 -2.5214e-19)
(0.0504004 0.0168901 -8.5236e-23)
(0.0802681 0.0150156 2.76498e-20)
(0.115775 0.0133889 2.08087e-19)
(0.157048 0.0122156 -2.20381e-19)
(0.204141 0.0116756 2.41911e-20)
(0.257003 0.0119233 -2.13219e-19)
(0.315446 0.0130857 -2.16251e-20)
(0.379116 0.0152588 -2.56468e-20)
(0.447465 0.0185025 1.13737e-20)
(0.519735 0.0228355 2.3269e-19)
(0.594965 0.0282277 1.02813e-19)
(0.672012 0.0345993 2.45678e-20)
(-0.00691576 0.00540335 -4.62356e-20)
(-0.0157404 0.0127235 8.94159e-20)
(-0.0197879 0.0174387 -1.10818e-19)
(-0.0190039 0.0200318 6.10974e-20)
(-0.0132868 0.0209763 -2.4138e-19)
(-0.00251075 0.0207027 -2.77948e-19)
(0.0134768 0.0195961 1.00606e-19)
(0.0348493 0.0180003 3.24663e-19)
(0.0617886 0.0162204 -3.54849e-19)
(0.0944677 0.0145269 8.63869e-20)
(0.133029 0.013159 1.02068e-19)
(0.177557 0.0123265 1.67037e-19)
(0.228045 0.0122106 1.34783e-19)
(0.284367 0.0129627 8.35237e-20)
(0.346237 0.0147012 -1.89813e-19)
(0.41318 0.0175068 2.40122e-19)
(0.484513 0.0214164 3.79043e-20)
(0.559331 0.0264168 -1.50513e-19)
(0.636522 0.0324373 -4.96247e-19)
(0.714799 0.0393495 1.157e-19)
(0.792739 0.0469202 -3.08235e-19)
(-0.00692284 0.00526275 6.07984e-20)
(-0.0154246 0.0123061 6.40959e-20)
(-0.0187711 0.0168135 3.80043e-20)
(-0.016936 0.0192441 -1.07254e-19)
(-0.00982614 0.0200759 9.15892e-20)
(0.00267508 0.019745 1.44497e-19)
(0.0207099 0.018642 1.05799e-19)
(0.0444388 0.0171171 -1.93275e-19)
(0.0740261 0.0154821 5.21522e-19)
(0.109619 0.0140139 2.20837e-20)
(0.151324 0.0129563 -1.3533e-19)
(0.199173 0.0125216 -3.04554e-20)
(0.253092 0.0128899 6.24503e-20)
(0.312864 0.0142064 9.814e-20)
(0.37809 0.0165776 -1.45067e-19)
(0.448168 0.0200645 -1.17134e-19)
(0.522266 0.0246768 -9.18601e-20)
(0.599328 0.0303655 -2.36474e-19)
(0.678089 0.0370174 2.17669e-19)
(0.757132 0.0444565 -3.43647e-20)
(0.834933 0.0524028 4.48989e-19)
(0.910082 0.0606796 1.89431e-19)
(-0.00688484 0.00509194 -1.34404e-19)
(-0.0149722 0.0118106 2.29352e-19)
(-0.0175233 0.0160767 -2.57208e-19)
(-0.0145384 0.0183247 2.66928e-19)
(-0.00593257 0.019037 -1.58021e-19)
(0.00840126 0.0186544 -3.32239e-21)
(0.0285935 0.0175723 1.04764e-19)
(0.0547893 0.0161466 1.5773e-19)
(0.0871312 0.0146949 -2.439e-19)
(0.125736 0.0134989 -2.82902e-20)
(0.170664 0.0128057 2.87036e-19)
(0.221888 0.0128279 -2.78495e-20)
(0.279252 0.0137415 1.53165e-19)
(0.342437 0.0156825 -2.24615e-19)
(0.410922 0.018741 -9.26367e-20)
(0.48396 0.0229542 1.84507e-19)
(0.560569 0.0282999 -6.6256e-20)
(0.639534 0.0346904 -3.09352e-20)
(0.719449 0.0419682 -1.1209e-19)
(0.798781 0.0499119 -6.44603e-20)
(0.87593 0.0582015 1.69111e-19)
(0.949448 0.0666174 -2.1984e-19)
(1.01764 0.074125 -1.33132e-19)
(-0.00679988 0.00489265 -1.27834e-19)
(-0.0143771 0.0112415 6.77794e-20)
(-0.016034 0.0152353 1.5869e-19)
(-0.0117967 0.0172831 9.30346e-20)
(-0.00158835 0.0178714 -1.06762e-19)
(0.0146878 0.0174453 -2.82178e-19)
(0.0371486 0.0164042 -1.68194e-20)
(0.0659209 0.0151088 -2.1517e-19)
(0.101121 0.0138816 6.06713e-20)
(0.142827 0.0130076 -1.07894e-19)
(0.191048 0.0127353 -2.82841e-21)
(0.245684 0.0132749 -9.62013e-20)
(0.306488 0.0147956 -1.60291e-19)
(0.373024 0.0174199 -5.25977e-20)
(0.444636 0.0212172 1.51204e-19)
(0.520427 0.0261961 -3.81951e-21)
(0.599254 0.0322986 1.01333e-19)
(0.679753 0.039395 1.03155e-19)
(0.760385 0.0472833 3.29603e-19)
(0.839521 0.0556989 -2.5826e-19)
(0.915524 0.0642892 -4.39456e-19)
(0.986944 0.0728013 4.25083e-19)
(1.05222 0.0802811 -1.02853e-20)
(-0.00666605 0.00466671 2.16642e-20)
(-0.0136329 0.0106037 -2.26429e-20)
(-0.0142928 0.0142973 -7.07689e-20)
(-0.00869647 0.0161302 -3.70467e-19)
(0.00322413 0.0165928 1.45551e-19)
(0.0215546 0.0161342 1.66617e-19)
(0.0463959 0.0151573 -4.56887e-20)
(0.0778527 0.0140267 -8.39602e-20)
(0.11601 0.0130682 -3.71835e-19)
(0.160901 0.0125688 3.10268e-20)
(0.212472 0.012776 -2.47517e-20)
(0.27054 0.0138949 -2.41947e-19)
(0.334754 0.016084 -2.51489e-20)
(0.404551 0.019448 7.05177e-20)
(0.479127 0.0240308 1.47139e-19)
(0.557428 0.029808 1.95479e-20)
(0.638151 0.0366814 -2.19458e-19)
(0.719786 0.0444773 4.42985e-20)
(0.800683 0.0529494 6.37879e-22)
(0.879144 0.0617934 -1.96711e-19)
(0.953527 0.0706317 1.94784e-19)
(1.02243 0.0791873 -1.58199e-19)
(1.08445 0.0865932 1.88074e-19)
(1.13964 0.0944177 -2.61921e-19)
(-0.00648142 0.004416 -1.27884e-20)
(-0.0127336 0.00990268 7.40623e-20)
(-0.0122892 0.0132713 1.04964e-19)
(-0.00522346 0.0148778 2.44022e-19)
(0.00852235 0.0152166 -1.58571e-19)
(0.029021 0.0147401 -1.66693e-20)
(0.0563548 0.0138541 -2.72796e-19)
(0.0906024 0.0129259 3.525e-19)
(0.13181 0.0122836 2.88766e-19)
(0.17996 0.0122139 -1.29737e-19)
(0.234924 0.0129609 -2.33849e-19)
(0.296426 0.0147213 8.21208e-20)
(0.363997 0.0176386 -4.87448e-20)
(0.436933 0.0217951 -2.526e-19)
(0.514278 0.0272043 1.96365e-19)
(0.594813 0.0338038 -2.04824e-19)
(0.677079 0.0414519 -2.16734e-20)
(0.759434 0.0499294 -1.69428e-20)
(0.840137 0.0589469 -9.24707e-20)
(0.917456 0.0681654 5.69945e-19)
(0.98978 0.0771894 -2.26083e-19)
(1.05579 0.0857281 -1.18811e-19)
(1.11429 0.0930041 -1.01146e-19)
(1.16536 0.100366 2.23427e-19)
(1.20517 0.101875 -1.34156e-19)
(-0.00624401 0.00414244 2.01628e-20)
(-0.0116727 0.00914395 -1.0807e-19)
(-0.0100126 0.0121667 -5.0594e-20)
(-0.00136329 0.0135392 -2.07016e-19)
(0.0143235 0.0137597 1.67026e-19)
(0.0371057 0.0132836 2.88032e-20)
(0.0670439 0.0125187 -5.66965e-21)
(0.104185 0.0118344 -1.64049e-19)
(0.148532 0.0115587 -1.45758e-19)
(0.200003 0.0119763 -1.23956e-19)
(0.258387 0.0133247 2.41267e-19)
(0.323304 0.0157883 6.24083e-20)
(0.394151 0.019491 3.56853e-19)
(0.470078 0.0244879 9.76907e-20)
(0.549964 0.0307567 -9.85245e-21)
(0.632425 0.0381927 2.42432e-19)
(0.715856 0.0466079 -1.59626e-20)
(0.798501 0.0557371 7.01631e-20)
(0.878553 0.0652505 -2.77198e-19)
(0.954282 0.0747798 -2.6768e-19)
(1.02415 0.08392 3.42278e-19)
(1.08696 0.0923759 1.37217e-19)
(1.14173 0.0994607 2.54253e-19)
(1.18864 0.106335 -1.00579e-19)
(1.22475 0.107862 2.05181e-19)
(-0.00595172 0.00384797 6.02417e-20)
(-0.0104439 0.0083334 -4.7749e-20)
(-0.00745246 0.0109935 -4.94229e-20)
(0.00289824 0.0121285 1.0978e-19)
(0.0206445 0.0122403 -1.82842e-19)
(0.0458268 0.0117871 2.21687e-20)
(0.07848 0.0111777 1.56835e-19)
(0.118615 0.0107819 2.30903e-19)
(0.16618 0.0109264 -1.72776e-19)
(0.221023 0.0118909 4.23607e-19)
(0.282839 0.0139027 -2.46168e-19)
(0.351127 0.0171298 -1.41456e-19)
(0.425145 0.0216716 -1.67208e-19)
(0.503881 0.0275503 5.33052e-20)
(0.586047 0.0347031 -2.72219e-19)
(0.6701 0.0429791 -2.82134e-19)
(0.7543 0.0521418 4.12321e-19)
(0.836796 0.0618808 1.91199e-20)
(0.915752 0.07183 4.09843e-19)
(0.989472 0.0815984 -1.75652e-19)
(1.05652 0.0907798 -2.4629e-19)
(1.11588 0.0990847 1.86517e-19)
(1.16679 0.105915 -5.709e-19)
(1.20954 0.112278 -2.52188e-20)
(1.24199 0.113746 7.11072e-20)
(-0.00560237 0.00353454 6.74802e-20)
(-0.00904059 0.00747709 7.67071e-20)
(-0.00459806 0.0097621 1.14257e-19)
(0.00757515 0.0106605 -8.36609e-20)
(0.0275014 0.0106778 7.16064e-20)
(0.0552009 0.0102743 -1.79398e-20)
(0.0906781 0.00985876 -1.27285e-20)
(0.1339 0.00980001 -2.83338e-19)
(0.184755 0.0104209 1.08771e-19)
(0.243008 0.0119931 -2.71451e-19)
(0.308247 0.0147302 9.22821e-20)
(0.37984 0.0187787 5.89868e-20)
(0.456893 0.0242082 8.67836e-20)
(0.538226 0.0310028 1.33859e-19)
(0.622384 0.0390541 1.00889e-19)
(0.707672 0.0481618 1.13866e-19)
(0.792228 0.0580403 -2.95226e-19)
(0.874139 0.068336 -1.9757e-19)
(0.95157 0.0786516 6.93091e-20)
(1.0229 0.0885812 -5.9778e-20)
(1.08683 0.0977259 1.09845e-19)
(1.14254 0.105811 -2.78057e-20)
(1.1895 0.112327 1.99722e-19)
(1.22816 0.118155 6.32466e-20)
(1.25705 0.119495 -5.14599e-19)
(-0.00519362 0.00320412 -5.02034e-20)
(-0.00745598 0.00658127 -1.43611e-19)
(-0.00143874 0.00848347 -8.18294e-20)
(0.0126812 0.00915105 1.17818e-19)
(0.0349099 0.00909269 -7.48809e-20)
(0.0652433 0.00877016 1.13752e-19)
(0.103651 0.00859101 4.02776e-21)
(0.150048 0.00892113 2.17376e-19)
(0.204253 0.010077 -2.38452e-19)
(0.265937 0.0123189 5.86675e-20)
(0.334571 0.0158419 2.69316e-19)
(0.409378 0.0207661 1.16477e-19)
(0.489301 0.0271259 -1.65089e-19)
(0.572991 0.0348615 -1.58689e-19)
(0.658826 0.0438151 -1.54778e-20)
(0.74497 0.0537344 1.94887e-19)
(0.829465 0.0642851 1.37049e-21)
(0.910363 0.0750739 -2.16132e-22)
(0.985865 0.085679 2.52513e-20)
(1.05446 0.0956878 7.32409e-21)
(1.11503 0.104717 7.67259e-20)
(1.16695 0.112517 -1.88622e-19)
(1.20995 0.118662 2.82645e-19)
(1.24463 0.123936 -2.18513e-20)
(1.27007 0.125086 6.0833e-20)
(-0.00472302 0.00285868 -7.88925e-20)
(-0.00568321 0.00565238 1.13045e-19)
(0.00203609 0.00716892 -3.51829e-20)
(0.0182297 0.00761637 1.39847e-19)
(0.0428843 0.00750619 -8.83292e-21)
(0.0759676 0.00730058 -2.42917e-19)
(0.117407 0.00740439 -3.26952e-20)
(0.16706 0.00817843 -1.19686e-19)
(0.224664 0.00992984 4.47659e-19)
(0.289785 0.0129033 -3.13332e-19)
(0.361762 0.0172709 -2.45847e-19)
(0.439665 0.0231205 -2.9979e-19)
(0.522267 0.0304457 5.00498e-21)
(0.608045 0.039138 3.15242e-20)
(0.695219 0.0489862 3.19192e-21)
(0.781827 0.0596849 -1.14687e-19)
(0.865843 0.070853 9.34619e-20)
(0.945316 0.0820626 1.90328e-19)
(1.01852 0.0928745 -1.48822e-19)
(1.08409 0.102879 3.34643e-19)
(1.1411 0.111716 -1.18454e-19)
(1.18915 0.119168 9.15695e-20)
(1.22822 0.124892 -4.46261e-19)
(1.25907 0.129599 1.08951e-19)
(1.28123 0.130506 5.53883e-20)
(-0.00418797 0.00250024 -1.85963e-20)
(-0.00371532 0.00469703 3.8982e-20)
(0.00583693 0.00583011 5.80016e-20)
(0.0242333 0.00607335 -1.50907e-19)
(0.0514379 0.00594019 1.07716e-19)
(0.087385 0.0058921 4.47848e-20)
(0.131954 0.00632942 -4.32837e-20)
(0.184934 0.00760532 2.75544e-20)
(0.245972 0.0100141 -7.65955e-20)
(0.314516 0.0137805 2.28625e-19)
(0.389762 0.0190482 2.21619e-19)
(0.470617 0.0258675 4.89667e-20)
(0.555678 0.034185 3.59421e-19)
(0.643251 0.043839 -2.49678e-20)
(0.731407 0.0545625 4.44061e-20)
(0.818081 0.0659968 -6.02526e-20)
(0.901206 0.0777174 -2.05471e-19)
(0.978864 0.0892679 -9.20086e-20)
(1.04944 0.1002 -6.02586e-20)
(1.11173 0.110116 -5.2923e-20)
(1.16505 0.118689 -1.24223e-19)
(1.2092 0.125737 2.15033e-19)
(1.24443 0.130998 2.94708e-19)
(1.27161 0.13513 -1.11723e-20)
(1.29068 0.135752 -4.58453e-21)
(-0.00358578 0.00213084 2.08927e-19)
(-0.00154523 0.003722 -2.1597e-19)
(0.00997403 0.00447908 -8.48653e-20)
(0.0307041 0.00453932 1.99598e-19)
(0.0605824 0.00441711 -1.34391e-19)
(0.0995045 0.00457173 1.33444e-20)
(0.147294 0.00539686 1.296e-19)
(0.203662 0.00723502 1.73964e-19)