/*--------------------------------*- C++ -*----------------------------------*\
  =========                 |
  \\      /  F ield         | OpenFOAM: The Open Source CFD Toolbox
   \\    /   O peration     | Website:  https://openfoam.org
    \\  /    A nd           | Version:  7
     \\/     M anipulation  |
\*---------------------------------------------------------------------------*/
FoamFile
{
    version     2.0;
    format      ascii;
    class       surfaceScalarField;
    location    "20";
    object      phi;
}
// * * * * * * * * * * * * * * * * * * * * * * * * * * * * * * * * * * * * * //

dimensions      [0 3 -1 0 0 0 0];

internalField   nonuniform List<scalar> 
13975
(
2.49425e-06
-2.02105e-05
-7.88239e-05
2.61562e-06
-2.28261e-05
1.07232e-05
-8.69315e-05
2.47353e-05
-0.000171307
-0.00027617
2.73699e-06
-2.55631e-05
1.11687e-05
-9.53632e-05
2.56702e-05
-0.000185809
4.65254e-05
-0.000297025
7.38532e-05
-0.000428535
0.000107535
-0.000579099
-0.000746617
2.85792e-06
-2.8421e-05
1.16088e-05
-0.000104114
2.65858e-05
-0.000200786
4.80185e-05
-0.000318458
7.59548e-05
-0.000456471
0.000110189
-0.000613333
0.000150205
-0.000786634
0.000195153
-0.000973039
0.000243866
-0.0011684
-0.00136803
2.97795e-06
-3.1399e-05
1.20416e-05
-0.000113178
2.74781e-05
-0.000216222
4.94578e-05
-0.000340438
7.79537e-05
-0.000484967
0.000112669
-0.000648048
0.000152986
-0.000826951
0.000197953
-0.00101801
0.000246315
-0.00121677
0.000296594
-0.0014183
0.000347217
-0.00161762
0.000396656
-0.00181012
-0.00199197
3.09659e-06
-3.44956e-05
1.24652e-05
-0.000122546
2.83429e-05
-0.0002321
5.08365e-05
-0.000362931
7.98394e-05
-0.00051397
0.000114961
-0.00068317
0.000155483
-0.000867473
0.000200355
-0.00106288
0.000248239
-0.00126465
0.000297609
-0.00146767
0.000346883
-0.0016669
0.00039457
-0.0018578
0.000439413
-0.00203682
0.000480487
-0.00220158
0.000517248
-0.00235106
0.000549534
-0.00248547
-0.00260603
3.21338e-06
-3.7709e-05
1.28779e-05
-0.000132211
2.91763e-05
-0.000248398
5.21475e-05
-0.000385902
8.16021e-05
-0.000543425
0.000117054
-0.000718622
0.000157683
-0.000908102
0.000202346
-0.00110754
0.000249631
-0.00131194
0.000297975
-0.00151602
0.000345799
-0.00171472
0.000391662
-0.00190367
0.00043439
-0.00207955
0.000473168
-0.00224036
0.000507568
-0.00238547
0.000537533
-0.00251543
0.00056331
-0.00263181
0.000585369
-0.00273677
0.000604306
-0.00283283
0.000620753
-0.0029225
-0.0030081
3.32782e-06
-4.10368e-05
1.32777e-05
-0.000142161
2.99741e-05
-0.000265095
5.33842e-05
-0.000409313
8.32324e-05
-0.000573273
0.000118935
-0.000754325
0.000159575
-0.000948742
0.000203917
-0.00115188
0.000250488
-0.00135851
0.000297697
-0.00156323
0.000343982
-0.00176101
0.000387961
-0.00194765
0.000428554
-0.00212014
0.000465053
-0.00227686
0.000497143
-0.00241755
0.000524864
-0.00254315
0.00054854
-0.00265548
0.000568686
-0.00275692
0.000585915
-0.00285006
0.000600853
-0.00293743
0.000614084
-0.00302133
0.000626105
-0.00310365
0.000637307
-0.00318586
0.00064798
-0.00326895
-0.00335355
0.000658317
3.43942e-06
-4.44762e-05
1.36629e-05
-0.000152384
3.07326e-05
-0.000282164
5.45404e-05
-0.00043312
8.47218e-05
-0.000603454
0.000120596
-0.000790199
0.000161147
-0.000989293
0.000205061
-0.0011958
0.000250808
-0.00140426
0.000296783
-0.0016092
0.000341453
-0.00180568
0.000383503
-0.0019897
0.00042195
-0.00215859
0.000456197
-0.00231111
0.000486035
-0.00244739
0.000511595
-0.00256871
0.000533265
-0.00267715
0.000551596
-0.00277525
0.00056721
-0.00286567
0.000580722
-0.00295095
0.000592689
-0.0030333
0.000603572
-0.00311453
0.00061373
-0.00319601
0.000623419
-0.00327864
-0.00336294
0.000632803
3.54768e-06
-4.80239e-05
1.40315e-05
-0.000162868
3.1448e-05
-0.000299581
5.56101e-05
-0.000457283
8.60623e-05
-0.000633906
0.000122026
-0.000826163
0.000162394
-0.00102966
0.000205774
-0.00123918
0.000250595
-0.00144908
0.000295246
-0.00165385
0.000338235
-0.00184866
0.000378322
-0.00202978
0.000414626
-0.00219489
0.000446657
-0.00234314
0.000474307
-0.00247504
0.000497789
-0.0025922
0.000517546
-0.00269691
0.000534155
-0.00279186
0.000548241
-0.00287975
0.000560401
-0.00296311
0.000571164
-0.00304406
0.000580957
-0.00312433
0.000590102
-0.00320516
0.000598828
-0.00328737
-0.00337138
0.000607273
3.65212e-06
-5.1676e-05
1.43819e-05
-0.000173598
3.21166e-05
-0.000317316
5.65876e-05
-0.000481754
8.72467e-05
-0.000664565
0.000123219
-0.000862135
0.000163308
-0.00106975
0.000206055
-0.00128192
0.000249854
-0.00149287
0.000293102
-0.0016971
0.000334355
-0.00188992
0.000372458
-0.00206789
0.00040663
-0.00222906
0.000436488
-0.002373
0.000462018
-0.00250057
0.000483506
-0.00261368
0.000501439
-0.00271484
0.000516415
-0.00280683
0.000529052
-0.00289239
0.000539928
-0.00297398
0.00054954
-0.00305367
0.000558281
-0.00313307
0.000566442
-0.00321332
0.000574222
-0.00329515
-0.0033789
0.000581738
3.75224e-06
-5.54282e-05
1.47124e-05
-0.000184558
3.27352e-05
-0.000335338
5.74679e-05
-0.000506486
8.82689e-05
-0.000695366
0.000124169
-0.000898035
0.000163887
-0.00110947
0.000205904
-0.00132394
0.000248593
-0.00153556
0.000290368
-0.00173888
0.000329843
-0.00192939
0.00036595
-0.00210399
0.000398011
-0.00226112
0.000425745
-0.00240073
0.000449225
-0.00252405
0.000468802
-0.00263326
0.000484999
-0.00273104
0.000498423
-0.00282026
0.000509685
-0.00290365
0.000519336
-0.00298363
0.000527842
-0.00306218
0.000535565
-0.00314079
0.000542765
-0.00322052
0.000549614
-0.003302
-0.0033855
0.00055621
3.8476e-06
-5.92758e-05
1.50212e-05
-0.000195732
3.33005e-05
-0.000353618
5.82464e-05
-0.000531432
8.91234e-05
-0.000726243
0.00012487
-0.000933782
0.000164127
-0.00114872
0.000205326
-0.00136514
0.000246824
-0.00157706
0.000287066
-0.00177912
0.000324729
-0.00196706
0.000358838
-0.0021381
0.000388816
-0.0022911
0.00041448
-0.00242639
0.000435983
-0.00254556
0.000453729
-0.00265101
0.000468272
-0.00274558
0.000480221
-0.00283221
0.000490173
-0.0029136
0.000498653
-0.00299212
0.000506095
-0.00306962
0.000512829
-0.00314753
0.000519086
-0.00322678
0.000525015
-0.00330792
-0.00339118
0.000530697
3.93771e-06
-6.32135e-05
1.5307e-05
-0.000207101
3.38097e-05
-0.00037212
5.89187e-05
-0.000556541
8.98056e-05
-0.00075713
0.00012532
-0.000969296
0.00016403
-0.00118743
0.000204325
-0.00140543
0.00024456
-0.0016173
0.000283217
-0.00181778
0.000319045
-0.00200288
0.000351163
-0.00217022
0.000379093
-0.00231903
0.000402744
-0.00245004
0.000422342
-0.00256516
0.000438336
-0.002667
0.000451302
-0.00275855
0.000461848
-0.00284275
0.00047055
-0.00292231
0.000477906
-0.00299947
0.000484319
-0.00307603
0.000490088
-0.00315329
0.000495417
-0.00323211
0.000500437
-0.00331294
-0.00339595
0.00050521
4.02215e-06
-6.72357e-05
1.55681e-05
-0.000218647
3.42599e-05
-0.000390812
5.94815e-05
-0.000581763
9.03119e-05
-0.000787961
0.000125515
-0.0010045
0.000163596
-0.00122551
0.000202909
-0.00144475
0.000241817
-0.00165621
0.000278847
-0.00185481
0.000312825
-0.00203686
0.000342965
-0.00220036
0.000368887
-0.00234495
0.000390585
-0.00247174
0.00040835
-0.00258292
0.000422669
-0.00268132
0.000434131
-0.00277001
0.000443338
-0.00285196
0.000450843
-0.00292981
0.000457117
-0.00300575
0.000462531
-0.00308145
0.000467355
-0.00315812
0.000471771
-0.00323652
0.000475888
-0.00331706
-0.00339982
0.000479757
4.10103e-06
-7.13367e-05
1.58045e-05
-0.00023035
3.46506e-05
-0.000409658
5.99339e-05
-0.000607046
9.06427e-05
-0.000818669
0.00012546
-0.00103932
0.000162833
-0.00126289
0.000201093
-0.00148301
0.000238617
-0.00169373
0.000273986
-0.00189017
0.000306108
-0.00206899
0.000334291
-0.00222854
0.000358249
-0.00236891
0.000378056
-0.00249155
0.000394057
-0.00259892
0.000406774
-0.00269404
0.000416801
-0.00278004
0.000424727
-0.00285989
0.000431084
-0.00293617
0.000436312
-0.00301097
0.000440752
-0.00308589
0.000444649
-0.00316202
0.000448162
-0.00324004
0.000451383
-0.00332028
-0.00340279
0.00045435
4.17296e-06
-7.55097e-05
1.60127e-05
-0.00024219
3.49764e-05
-0.000428622
6.0269e-05
-0.000632339
9.07904e-05
-0.000849191
0.000125148
-0.00107368
0.000161738
-0.00129948
0.000198878
-0.00152015
0.000234969
-0.00172982
0.000268651
-0.00192386
0.000298917
-0.00209925
0.000325169
-0.0022548
0.00034721
-0.00239095
0.000365187
-0.00250953
0.000379495
-0.00261323
0.000390678
-0.00270522
0.000399332
-0.00278869
0.000406032
-0.00286659
0.000411284
-0.00294142
0.000415498
-0.00301519
0.000418987
-0.00308938
0.000421971
-0.003165
0.000424589
-0.00324265
0.000426918
-0.00332261
-0.00340486
0.000428986
4.23808e-06
-7.97478e-05
1.61927e-05
-0.000254145
3.5237e-05
-0.000447666
6.04871e-05
-0.000657589
9.0757e-05
-0.000879461
0.000124584
-0.0011075
0.000160322
-0.00133521
0.000196282
-0.00155611
0.000230898
-0.00176444
0.000262874
-0.00195583
0.000291291
-0.00212767
0.000315643
-0.00227915
0.000335817
-0.00241113
0.000352026
-0.00252573
0.000364707
-0.00262591
0.000374422
-0.00271493
0.000381762
-0.00279603
0.000387284
-0.00287211
0.000391468
-0.0029456
0.000394696
-0.00301842
0.000397253
-0.00309193
0.000399336
-0.00316708
0.000401067
-0.00324438
0.000402508
-0.00332405
-0.00340603
0.000403679
4.29604e-06
-8.40438e-05
1.63435e-05
-0.000266192
3.5431e-05
-0.000466754
6.05867e-05
-0.000682745
9.05425e-05
-0.000909416
0.000123772
-0.00114073
0.000158592
-0.00137004
0.000193318
-0.00159083
0.000226424
-0.00179754
0.000256684
-0.00198609
0.000283265
-0.00215425
0.000305751
-0.00230163
0.000324109
-0.00242948
0.000338612
-0.00254024
0.00034973
-0.00263703
0.000358036
-0.00272324
0.000364116
-0.00280211
0.000368505
-0.0028765
0.000371655
-0.00294875
0.000373921
-0.00302068
0.000375562
-0.00309358
0.000376754
-0.00316827
0.000377602
-0.00324523
0.000378159
-0.00332461
-0.0034063
0.000378435
4.34654e-06
-8.83903e-05
1.64642e-05
-0.00027831
3.55573e-05
-0.000485847
6.05673e-05
-0.000707755
9.01478e-05
-0.000938997
0.000122714
-0.0011733
0.000156558
-0.00140388
0.000190003
-0.00162428
0.00022157
-0.00182911
0.000250107
-0.00201463
0.00027487
-0.00217901
0.000295528
-0.00232229
0.000312123
-0.00244608
0.000324979
-0.00255309
0.000334595
-0.00264665
0.000341551
-0.0027302
0.000346419
-0.00280698
0.000349714
-0.00287979
0.00035186
-0.0029509
0.000353184
-0.00302201
0.000353923
-0.00309431
0.000354232
-0.00316858
0.000354203
-0.0032452
0.000353878
-0.00332428
-0.00340568
0.00035326
4.38931e-06
-9.27797e-05
1.65542e-05
-0.000290474
3.56148e-05
-0.000504908
6.04284e-05
-0.000732568
8.95745e-05
-0.000968143
0.000121417
-0.00120514
0.000154228
-0.00143669
0.000186351
-0.0016564
0.000216357
-0.00185912
0.000243173
-0.00204145
0.000266139
-0.00220198
0.00028501
-0.00234116
0.000299894
-0.00246096
0.000311161
-0.00256436
0.000319334
-0.00265482
0.000324992
-0.00273585
0.000328694
-0.00281068
0.00033093
-0.00288203
0.000332098
-0.00295207
0.000332499
-0.00302241
0.000332346
-0.00309416
0.000331779
-0.00316802
0.000330876
-0.0032443
0.000329671
-0.00332308
-0.00340417
0.000328161
4.42409e-06
-9.72038e-05
1.66129e-05
-0.000302663
3.56032e-05
-0.000523898
6.01704e-05
-0.000757135
8.8825e-05
-0.000996798
0.000119886
-0.0012362
0.000151614
-0.00146842
0.000182379
-0.00168716
0.000210809
-0.00188755
0.000235908
-0.00206655
0.000257104
-0.00222317
0.000274229
-0.00235829
0.000287455
-0.00247419
0.00029719
-0.00257409
0.000303974
-0.0026616
0.000308383
-0.00274026
0.00031096
-0.00281326
0.000312169
-0.00288324
0.000312381
-0.00295228
0.000311874
-0.0030219
0.000310839
-0.00309313
0.000309402
-0.00316658
0.000307628
-0.00324253
0.000305545
-0.003321
-0.00340177
0.000303144
4.45069e-06
-0.000101654
1.66398e-05
-0.000314852
3.55221e-05
-0.00054278
5.97942e-05
-0.000781408
8.79025e-05
-0.00102491
0.000118128
-0.00126643
0.000148729
-0.00149902
0.000178104
-0.00171654
0.000204947
-0.00191439
0.00022834
-0.00208994
0.000247794
-0.00224263
0.000263217
-0.00237371
0.000274836
-0.00248581
0.000283093
-0.00258235
0.00028854
-0.00266705
0.000291746
-0.00274347
0.000293234
-0.00281475
0.000293444
-0.00288345
0.000292722
-0.00295156
0.000291319
-0.0030205
0.000289411
-0.00309122
0.000287107
-0.00316428
0.000284465
-0.00323988
0.000281505
-0.00331804
-0.00339848
0.000278214
4.46892e-06
-0.000106123
1.66346e-05
-0.000327018
3.53715e-05
-0.000561517
5.9301e-05
-0.000805337
8.68107e-05
-0.00105242
0.000116151
-0.00129577
0.000145583
-0.00152845
0.000173545
-0.0017445
0.000198795
-0.00193964
0.000220495
-0.00211164
0.000238239
-0.00226037
0.000252003
-0.00238748
0.000262066
-0.00249587
0.000268898
-0.00258918
0.000273056
-0.00267121
0.0002751
-0.00274551
0.000275533
-0.00281518
0.00027477
-0.00288269
0.000273129
-0.00294992
0.000270843
-0.00301821
0.000268068
-0.00308844
0.000264901
-0.00316111
0.000261393
-0.00323638
0.000257558
-0.0033142
-0.0033943
0.000253379
4.47866e-06
-0.000110602
1.65972e-05
-0.000339137
3.51519e-05
-0.000580072
5.86926e-05
-0.000828878
8.5554e-05
-0.00107928
0.000113963
-0.00132418
0.00014219
-0.00155668
0.000168719
-0.00177103
0.000192374
-0.00196329
0.0002124
-0.00213166
0.000228466
-0.00227644
0.000240616
-0.00239963
0.000249173
-0.00250443
0.000254628
-0.00259464
0.000257542
-0.00267412
0.000258463
-0.00274643
0.000257872
-0.00281459
0.000256157
-0.00288097
0.000253614
-0.00294737
0.000250453
-0.00301505
0.000246817
-0.00308481
0.00024279
-0.00315708
0.000238418
-0.003232
0.000233708
-0.00330949
-0.00338924
0.000228642
4.47981e-06
-0.000115082
1.65276e-05
-0.000351184
3.48638e-05
-0.000598408
5.79711e-05
-0.000851985
8.41373e-05
-0.00110544
0.000111572
-0.00135161
0.000138564
-0.00158367
0.000163643
-0.00179611
0.000185707
-0.00198536
0.000204078
-0.00215004
0.000218502
-0.00229086
0.000229082
-0.00241021
0.00023618
-0.00251153
0.000240305
-0.00259876
0.000242019
-0.00267584
0.000241852
-0.00274627
0.000240262
-0.002813
0.000237616
-0.00287832
0.000234183
-0.00294394
0.000230157
-0.00301102
0.000225664
-0.00308031
0.00022078
-0.0031522
0.000215544
-0.00322677
0.000209961
-0.00330391
-0.00338329
0.00020401
4.47229e-06
-0.000119554
1.64258e-05
-0.000363138
3.4508e-05
-0.00061649
5.71392e-05
-0.000874616
8.2566e-05
-0.00113087
0.000108987
-0.00137803
0.000134716
-0.0016094
0.000158336
-0.00181973
0.000178815
-0.00200583
0.000195555
-0.00216678
0.000208372
-0.00230368
0.000217425
-0.00241926
0.00022311
-0.00251721
0.000225951
-0.0026016
0.000226502
-0.00267639
0.000225279
-0.00274504
0.000222717
-0.00281044
0.000219156
-0.00287476
0.000214847
-0.00293963
0.000209961
-0.00300614
0.000204615
-0.00307497
0.000198876
-0.00314646
0.000192778
-0.00322067
0.000186322
-0.00329745
-0.00337645
0.000179488
4.45608e-06
-0.00012401
1.6292e-05
-0.000374974
3.40858e-05
-0.000634284
5.61997e-05
-0.00089673
8.08458e-05
-0.00115552
0.000106219
-0.0014034
0.000130663
-0.00163384
0.000152816
-0.00184188
0.00017172
-0.00202474
0.000186853
-0.00218191
0.0001981
-0.00231493
0.000205669
-0.00242683
0.000209986
-0.00252153
0.000211584
-0.0026032
0.000211009
-0.00267581
0.000208759
-0.00274279
0.000205247
-0.00280692
0.000200787
-0.0028703
0.00019561
-0.00293445
0.000189872
-0.0030004
0.000183676
-0.00306877
0.000177084
-0.00313987
0.000170124
-0.00321371
0.000162797
-0.00329012
-0.00336874
0.000155081
4.43117e-06
-0.000128441
1.61266e-05
-0.000386669
3.35983e-05
-0.000651756
5.51559e-05
-0.000918288
7.89828e-05
-0.00117934
0.000103277
-0.0014277
0.000126416
-0.00165698
0.000147099
-0.00186257
0.00016444
-0.00204208
0.000177994
-0.00219546
0.000187707
-0.00232464
0.000193835
-0.00243296
0.000196826
-0.00252452
0.00019722
-0.0026036
0.000195553
-0.00267415
0.000192304
-0.00273954
0.000187861
-0.00280248
0.000182517
-0.00286496
0.000176481
-0.00292842
0.000169895
-0.00299381
0.000162853
-0.00306173
0.000155409
-0.00313242
0.000147588
-0.00320589
0.000139389
-0.00328193
-0.00336014
0.000130794
4.39761e-06
-0.000132839
1.593e-05
-0.000398202
3.30473e-05
-0.000668873
5.40114e-05
-0.000939252
7.69835e-05
-0.00120232
0.000100171
-0.00145089
0.00012199
-0.0016788
0.000141202
-0.00188178
0.000156997
-0.00205788
0.000168999
-0.00220746
0.000177216
-0.00233286
0.000181942
-0.00243768
0.000183649
-0.00252623
0.000182876
-0.00260282
0.000180148
-0.00267142
0.000175923
-0.00273532
0.000170567
-0.00279712
0.000164351
-0.00285874
0.000157465
-0.00292153
0.000150037
-0.00298639
0.00014215
-0.00305384
0.000133855
-0.00312413
0.000125173
-0.00319721
0.000116104
-0.00327286
-0.00335067
0.00010663
4.35545e-06
-0.000137194
1.57028e-05
-0.000409549
3.24343e-05
-0.000685604
5.27698e-05
-0.000959587
7.48546e-05
-0.0012244
9.69106e-05
-0.00147294
0.000117398
-0.00169929
0.000135143
-0.00189952
0.000149409
-0.00207214
0.000159888
-0.00221794
0.000166645
-0.00233961
0.00017001
-0.00244105
0.000170471
-0.00252669
0.000168565
-0.00260092
0.000164805
-0.00266766
0.000159628
-0.00273014
0.000153375
-0.00279087
0.000146298
-0.00285167
0.000138569
-0.0029138
0.000130302
-0.00297812
0.000121573
-0.00304511
0.000112428
-0.00311498
0.000102886
-0.00318766
9.29459e-05
-0.00326291
-0.00334032
8.25942e-05
4.30479e-06
-0.000141499
1.54456e-05
-0.00042069
3.17613e-05
-0.00070192
5.14352e-05
-0.000979261
7.26027e-05
-0.00124557
9.35062e-05
-0.00149385
0.000112654
-0.00171844
0.000128938
-0.00191581
0.000141693
-0.0020849
0.00015068
-0.00222693
0.000156013
-0.00234495
0.000158056
-0.00244309
0.000157307
-0.00252594
0.000154301
-0.00259791
0.000149536
-0.00266289
0.000143426
-0.00272403
0.000136292
-0.00278374
0.000128364
-0.00284374
0.000119797
-0.00290524
0.000110696
-0.00296902
0.000101128
-0.00303554
9.11328e-05
-0.00310499
8.07302e-05
-0.00317726
6.99202e-05
-0.0032521
-0.00332908
5.86874e-05
4.24576e-06
-0.000145745
1.51592e-05
-0.000431603
3.10303e-05
-0.000717791
5.00118e-05
-0.000998243
7.02349e-05
-0.00126579
8.9968e-05
-0.00151358
0.00010777
-0.00173624
0.000122602
-0.00193064
0.000133868
-0.00209616
0.000141393
-0.00223446
0.000145338
-0.00234889
0.000146094
-0.00244385
0.000144171
-0.00252401
0.000140096
-0.00259384
0.000134349
-0.00265714
0.000127325
-0.00271701
0.000119323
-0.00277573
0.000110553
-0.00283497
0.000101156
-0.00289584
9.12243e-05
-0.00295909
8.08181e-05
-0.00302514
6.99754e-05
-0.00309415
5.87124e-05
-0.003166
4.70291e-05
-0.00324042
-0.00331696
3.49071e-05
4.1785e-06
-0.000149923
1.48443e-05
-0.000442269
3.02436e-05
-0.000733191
4.85038e-05
-0.0010165
6.77582e-05
-0.00128505
8.63058e-05
-0.00153213
0.00010276
-0.00175269
0.00011615
-0.00194403
0.00012595
-0.00210596
0.000132043
-0.00224055
0.000134635
-0.00235148
0.000134141
-0.00244335
0.000131076
-0.00252095
0.000125959
-0.00258872
0.000119254
-0.00265044
0.000111334
-0.00270909
0.000102476
-0.00276688
9.28725e-05
-0.00282537
8.26502e-05
-0.00288562
7.1891e-05
-0.00294833
6.06497e-05
-0.0030139
4.89625e-05
-0.00308246
3.6846e-05
-0.00315388
2.4274e-05
-0.00322785
-0.00330388
1.11908e-05
4.10318e-06
-0.000154027
1.45019e-05
-0.000452668
2.94033e-05
-0.000748092
4.69157e-05
-0.00103402
6.51797e-05
-0.00130331
8.25298e-05
-0.00154948
9.76366e-05
-0.0017678
0.000109597
-0.00195599
0.000117953
-0.00211432
0.000122645
-0.00224524
0.000123919
-0.00235276
0.000122209
-0.00244164
0.000118033
-0.00251677
0.000111902
-0.00258259
0.000104259
-0.0026428
9.54574e-05
-0.00270029
8.57552e-05
-0.00275717
7.53265e-05
-0.00281494
6.42841e-05
-0.00287458
5.27009e-05
-0.00293674
4.06266e-05
-0.00300182
2.80966e-05
-0.00306993
1.51415e-05
-0.00314093
1.80831e-06
-0.00321452
-0.00328984
-1.22343e-05
4.01999e-06
-0.000158047
1.41328e-05
-0.00046278
2.85119e-05
-0.000762471
4.52519e-05
-0.00105076
6.25065e-05
-0.00132056
7.86495e-05
-0.00156562
9.24113e-05
-0.00178156
0.000102957
-0.00196654
0.000109893
-0.00212125
0.000113215
-0.00224856
0.000113203
-0.00235274
0.00011031
-0.00243875
0.000105054
-0.00251152
9.79314e-05
-0.00257547
8.93704e-05
-0.00263424
7.9703e-05
-0.00269062
6.91667e-05
-0.00274664
5.79198e-05
-0.00280369
4.60624e-05
-0.00286272
3.36585e-05
-0.00292434
2.07532e-05
-0.00298892
7.38176e-06
-0.00305656
-6.43143e-06
-0.00312711
-2.07135e-05
-0.00320023
-0.00327514
-3.54086e-05
3.92916e-06
-0.000161976
1.37381e-05
-0.000472589
2.75719e-05
-0.000776305
4.3517e-05
-0.0010667
5.97454e-05
-0.00133679
7.46747e-05
-0.00158055
8.70959e-05
-0.00179398
9.62421e-05
-0.00197568
0.000101784
-0.0021268
0.000103767
-0.00225054
0.000102502
-0.00235148
9.84567e-05
-0.00243471
9.21465e-05
-0.00250521
8.40569e-05
-0.00256738
7.45959e-05
-0.00262477
6.40756e-05
-0.0026801
5.27151e-05
-0.00273528
4.0657e-05
-0.00279163
2.79894e-05
-0.00285005
1.47681e-05
-0.00291112
1.03419e-06
-0.00297518
-1.31773e-05
-0.00304235
-2.78417e-05
-0.00311245
-4.29645e-05
-0.00318511
-0.00325959
-5.85162e-05
3.83091e-06
-0.000165807
1.33189e-05
-0.000482077
2.65857e-05
-0.000789572
4.17155e-05
-0.00108183
5.69036e-05
-0.00135198
7.06144e-05
-0.00159426
8.17019e-05
-0.00180507
8.94661e-05
-0.00198345
9.36392e-05
-0.00213097
9.43118e-05
-0.00225122
9.18257e-05
-0.00234899
8.66582e-05
-0.00242954
7.93208e-05
-0.00249787
7.02853e-05
-0.00255834
5.9941e-05
-0.00261443
4.85805e-05
-0.00266874
3.64049e-05
-0.0027231
2.35422e-05
-0.00277877
1.00692e-05
-0.00283658
-3.96597e-06
-0.00289708
-1.85261e-05
-0.00296062
-3.35765e-05
-0.0030273
-4.90892e-05
-0.00309694
-6.5056e-05
-0.00316914
-0.00324317
-8.14737e-05
3.7255e-06
-0.000169532
1.28762e-05
-0.000491228
2.5556e-05
-0.000802252
3.9852e-05
-0.00109613
5.39878e-05
-0.00136612
6.64779e-05
-0.00160675
7.62401e-05
-0.00181483
8.26406e-05
-0.00198985
8.547e-05
-0.0021338
8.48627e-05
-0.00225061
8.11857e-05
-0.00234532
7.49244e-05
-0.00242328
6.65845e-05
-0.00248953
5.66233e-05
-0.00254838
4.54113e-05
-0.00260322
3.32223e-05
-0.00265655
2.02404e-05
-0.00271012
6.57951e-06
-0.00276511
-7.69404e-06
-0.0028223
-2.25394e-05
-0.00288224
-3.79235e-05
-0.00294524
-5.38113e-05
-0.00301141
-7.01707e-05
-0.00308058
-8.69857e-05
-0.00315233
-0.000104265
3.61318e-06
-0.000173145
1.24111e-05
-0.000500026
2.44852e-05
-0.000814326
3.7931e-05
-0.00110957
5.10048e-05
-0.00137919
6.2274e-05
-0.00161802
7.07208e-05
-0.00182328
7.57768e-05
-0.0019949
7.72885e-05
-0.00213531
7.54303e-05
-0.00224875
7.05918e-05
-0.00234048
6.32638e-05
-0.00241595
5.39449e-05
-0.00248021
4.30768e-05
-0.00253751
3.10119e-05
-0.00259115
1.80053e-05
-0.00264354
4.22528e-06
-0.00269634
-1.02273e-05
-0.00275066
-2.52964e-05
-0.00280723
-4.09483e-05
-0.00286659
-5.71536e-05
-0.00292903
-7.38773e-05
-0.00299468
-9.10825e-05
3.49423e-06
-0.00017664
1.19249e-05
-0.000508457
2.33761e-05
-0.000825777
3.59571e-05
-0.00112215
4.79611e-05
-0.00139119
5.80109e-05
-0.00162807
6.51539e-05
-0.00183042
6.88854e-05
-0.00199863
6.91052e-05
-0.00213553
6.6025e-05
-0.00224567
6.00533e-05
-0.00233451
5.16846e-05
-0.00240758
4.14085e-05
-0.00246993
2.96514e-05
-0.00252575
1.67472e-05
-0.00257825
2.93346e-06
-0.00262973
-1.16366e-05
-0.00268177
-2.68746e-05
-0.00273542
-4.27342e-05
-0.00279137
-5.91885e-05
-0.00285013
-7.6212e-05
-0.00291201
3.36894e-06
-0.000180009
1.14186e-05
-0.000516506
2.22312e-05
-0.00083659
3.39347e-05
-0.00113386
4.48631e-05
-0.00140212
5.36971e-05
-0.0016369
5.9549e-05
-0.00183627
6.19767e-05
-0.00200106
6.09304e-05
-0.00213448
5.66559e-05
-0.0022414
4.95786e-05
-0.00232743
4.01937e-05
-0.0023982
2.89814e-05
-0.00245872
1.63519e-05
-0.00251312
2.62131e-06
-0.00256452
-1.19895e-05
-0.00261512
-2.73419e-05
-0.00266642
-4.33591e-05
-0.0027194
-6.00036e-05
-0.00277473
-7.72558e-05
-0.00283288
3.2376e-06
-0.000183246
1.08934e-05
-0.000524162
2.10531e-05
-0.000846749
3.18682e-05
-0.00114467
4.17171e-05
-0.00141197
4.93401e-05
-0.00164453
5.3915e-05
-0.00184085
5.50599e-05
-0.00200221
5.27733e-05
-0.0021322
4.7332e-05
-0.00223596
3.91752e-05
-0.00231927
2.87978e-05
-0.00238782
1.66689e-05
-0.00244659
3.18287e-06
-0.00249964
-1.13617e-05
-0.00254997
-2.67603e-05
-0.00259972
-4.28874e-05
-0.00265029
-5.96772e-05
-0.00270261
-7.71011e-05
-0.00275731
3.10052e-06
-0.000186347
1.03506e-05
-0.000531412
1.98444e-05
-0.000856243
2.97618e-05
-0.00115459
3.8529e-05
-0.00142074
4.49477e-05
-0.00165095
4.82604e-05
-0.00184416
4.81441e-05
-0.00200209
4.46426e-05
-0.0021287
3.80612e-05
-0.00222937
2.88504e-05
-0.00231006
1.75029e-05
-0.00237647
4.4762e-06
-0.00243357
-9.85156e-06
-0.00248531
-2.51987e-05
-0.00253463
-4.13758e-05
-0.00258354
-5.82702e-05
-0.0026334
-7.58261e-05
2.958e-06
-0.000189305
9.79126e-06
-0.000538245
1.86076e-05
-0.000865059
2.76197e-05
-0.0011636
3.53047e-05
-0.00142842
4.0527e-05
-0.00165617
4.25933e-05
-0.00184623
4.12376e-05
-0.00200073
3.65465e-05
-0.00212401
2.88508e-05
-0.00222168
1.86106e-05
-0.00229982
6.31431e-06
-0.00236417
-7.59241e-06
-0.00241966
-2.27477e-05
-0.00247016
-3.88863e-05
-0.00251849
-5.58331e-05
-0.0025666
2.81035e-06
-0.000192115
9.21667e-06
-0.000544652
1.73454e-05
-0.000873188
2.5446e-05
-0.0011717
3.20498e-05
-0.00143503
3.60847e-05
-0.0016602
3.69212e-05
-0.00184706
3.43482e-05
-0.00199816
2.84924e-05
-0.00211815
1.97079e-05
-0.00221289
8.46156e-06
-0.00228857
-4.76289e-06
-0.00235095
-1.95328e-05
-0.00240489
-3.55022e-05
-0.00245419
-5.24216e-05
-0.00250157
2.65789e-06
-0.000194773
8.62795e-06
-0.000550622
1.606e-05
-0.00088062
2.32447e-05
-0.00117889
2.87698e-05
-0.00144055
3.16274e-05
-0.00166306
3.12513e-05
-0.00184669
2.74831e-05
-0.00199439
2.04874e-05
-0.00211115
1.06385e-05
-0.00220304
-1.59117e-06
-0.00227634
-1.57243e-05
-0.00233682
-3.13413e-05
-0.00238927
-4.8112e-05
-0.00243741
2.50093e-06
-0.000197274
8.0263e-06
-0.000556147
1.4754e-05
-0.000887348
2.10196e-05
-0.00118515
2.54697e-05
-0.001445
2.71614e-05
-0.00166475
2.55904e-05
-0.00184512
2.06493e-05
-0.00198945
1.25378e-05
-0.00210304
1.64853e-06
-0.00219216
-1.15428e-05
-0.00226315
-2.65658e-05
-0.00232179
-4.30146e-05
-0.00237282
2.33979e-06
-0.000199614
7.41285e-06
-0.00056122
1.34297e-05
-0.000893365
1.87744e-05
-0.0011905
2.21545e-05
-0.00144838
2.26925e-05
-0.00166529
1.99449e-05
-0.00184237
1.3853e-05
-0.00198336
4.64954e-06
-0.00209384
-7.25707e-06
-0.00218025
-2.13888e-05
-0.00224902
-3.72838e-05
-0.0023059
2.17477e-06
-0.000201788
6.78875e-06
-0.000565834
1.20894e-05
-0.000898665
1.65127e-05
-0.00119492
1.88289e-05
-0.0014507
1.82262e-05
-0.00166469
1.43207e-05
-0.00183846
7.10004e-06
-0.00197614
-3.17178e-06
-0.00208357
-1.60731e-05
-0.00216735
-3.11251e-05
-0.00223397
2.00621e-06
-0.000203795
6.15513e-06
-0.000569983
1.07354e-05
-0.000903246
1.4238e-05
-0.00119842
1.54975e-05
-0.00145196
1.37678e-05
-0.00166296
8.72352e-06
-0.00183342
3.9879e-07
-0.00196782
-1.09211e-05
-0.00207225
-2.47954e-05
-0.00215347
-0.00221802
1.83441e-06
-0.000205629
5.51307e-06
-0.000573662
9.36979e-06
-0.000907102
1.19535e-05
-0.00120101
1.21646e-05
-0.00145217
9.32233e-06
-0.00166011
3.15821e-06
-0.00182725
-6.25371e-06
-0.0019584
-1.85944e-05
-0.00205991
-3.34198e-05
-0.00213865
1.65971e-06
-0.000207289
4.86368e-06
-0.000576866
7.99478e-06
-0.000910233
9.66255e-06
-0.00120267
8.83442e-06
-0.00145134
4.89418e-06
-0.00165617
-2.37003e-06
-0.00181999
-1.28446e-05
-0.00194793
-2.61866e-05
-0.00204656
1.48244e-06
-0.000208771
4.20802e-06
-0.000579591
6.61237e-06
-0.000912638
7.36811e-06
-0.00120343
5.51097e-06
-0.00144948
4.91935e-07
-0.00165116
-7.85705e-06
-0.00181164
-1.93727e-05
-0.00193641
1.30302e-06
-0.000210074
3.54713e-06
-0.000581835
5.22452e-06
-0.000914315
5.07312e-06
-0.00120328
2.19731e-06
-0.00144661
-3.8917e-06
-0.00164507
-1.32986e-05
-0.00180223
1.12186e-06
-0.000211196
2.88207e-06
-0.000583596
3.83321e-06
-0.000915266
2.78034e-06
-0.00120223
-1.10193e-06
-0.00144273
-8.24144e-06
-0.00163793
9.3915e-07
-0.000212135
2.21375e-06
-0.00058487
2.44035e-06
-0.000915493
4.94412e-07
-0.00120028
-4.38634e-06
-0.00143785
-0.00162976
7.55183e-07
-0.00021289
1.54314e-06
-0.000585658
1.04718e-06
-0.000914997
-1.78812e-06
-0.00119744
-7.64974e-06
-0.00143198
5.70162e-07
-0.000213461
8.71092e-07
-0.000585959
-3.43782e-07
-0.000913782
-4.05915e-06
-0.00119373
3.83876e-07
-0.000213844
1.96625e-07
-0.000585772
-1.733e-06
-0.000911852
-0.00118914
1.93332e-07
-0.000214038
-4.75491e-07
-0.000585103
-3.11658e-06