/*--------------------------------*- C++ -*----------------------------------*\
  =========                 |
  \\      /  F ield         | OpenFOAM: The Open Source CFD Toolbox
   \\    /   O peration     | Website:  https://openfoam.org
    \\  /    A nd           | Version:  7
     \\/     M anipulation  |
\*---------------------------------------------------------------------------*/
FoamFile
{
    version     2.0;
    format      ascii;
    class       volScalarField;
    location    "80";
    object      p;
}
// * * * * * * * * * * * * * * * * * * * * * * * * * * * * * * * * * * * * * //

dimensions      [0 2 -2 0 0 0 0];

internalField   nonuniform List<scalar> 
36600
(
-0.372532
-0.373304
-0.373761
-0.37413
-0.374451
-0.374765
-0.375129
-0.375588
-0.376178
-0.376927
-0.377858
-0.378988
-0.380339
-0.381935
-0.383808
-0.385996
-0.38855
-0.391544
-0.394981
-0.398915
-0.374357
-0.374976
-0.375353
-0.375659
-0.375933
-0.376217
-0.376564
-0.377022
-0.37763
-0.378416
-0.379407
-0.380623
-0.382088
-0.38383
-0.385886
-0.3883
-0.391128
-0.394453
-0.398288
-0.402686
-0.376171
-0.376638
-0.376933
-0.377176
-0.3774
-0.37765
-0.377978
-0.378432
-0.379053
-0.379871
-0.380915
-0.382209
-0.383779
-0.385657
-0.387883
-0.390507
-0.393591
-0.397225
-0.401432
-0.406256
-0.377963
-0.378278
-0.378491
-0.378669
-0.378843
-0.379057
-0.379362
-0.379808
-0.380436
-0.38128
-0.38237
-0.383732
-0.385397
-0.387398
-0.38978
-0.392596
-0.395916
-0.399835
-0.404385
-0.409596
-0.379723
-0.379889
-0.380018
-0.380131
-0.380253
-0.380427
-0.380706
-0.381139
-0.381769
-0.382632
-0.38376
-0.385181
-0.386928
-0.389039
-0.391561
-0.394552
-0.398084
-0.402261
-0.407123
-0.412678
-0.381441
-0.381459
-0.381507
-0.381553
-0.381621
-0.381753
-0.382003
-0.382418
-0.383043
-0.383917
-0.385073
-0.386543
-0.388361
-0.390567
-0.393211
-0.396355
-0.400076
-0.404484
-0.409625
-0.415475
-0.383108
-0.382984
-0.38295
-0.382929
-0.382941
-0.383029
-0.383244
-0.383635
-0.38425
-0.385127
-0.386301
-0.387808
-0.389683
-0.391968
-0.394717
-0.397993
-0.401877
-0.406485
-0.411874
-0.417963
-0.384717
-0.384454
-0.384339
-0.384252
-0.384206
-0.384247
-0.384423
-0.384785
-0.385381
-0.386252
-0.387435
-0.388966
-0.390884
-0.393232
-0.396065
-0.399451
-0.403473
-0.408251
-0.413854
-0.420143
-0.386259
-0.385864
-0.385671
-0.385516
-0.385412
-0.385402
-0.385535
-0.385862
-0.386431
-0.387286
-0.388467
-0.390009
-0.391955
-0.394348
-0.397247
-0.40072
-0.404851
-0.409768
-0.415538
-0.422021
-0.387729
-0.387208
-0.386939
-0.386717
-0.386553
-0.38649
-0.386575
-0.38686
-0.387395
-0.388224
-0.38939
-0.390931
-0.392888
-0.39531
-0.398253
-0.401789
-0.406004
-0.411029
-0.416934
-0.423551
-0.389121
-0.388483
-0.388141
-0.387853
-0.387628
-0.387508
-0.38754
-0.387776
-0.388268
-0.389062
-0.390201
-0.391726
-0.39368
-0.396111
-0.399079
-0.402654
-0.406925
-0.412026
-0.418033
-0.424733
-0.390432
-0.389685
-0.389273
-0.38892
-0.388633
-0.388453
-0.388428
-0.388608
-0.389048
-0.389796
-0.390896
-0.392391
-0.394326
-0.396749
-0.39972
-0.403311
-0.407611
-0.412758
-0.418834
-0.425573
-0.391659
-0.390813
-0.390334
-0.389918
-0.389567
-0.389326
-0.389237
-0.389356
-0.389735
-0.390426
-0.391474
-0.392925
-0.394824
-0.39722
-0.400175
-0.403759
-0.408062
-0.413226
-0.419338
-0.426076
-0.392799
-0.391865
-0.391323
-0.390846
-0.390432
-0.390125
-0.389969
-0.390018
-0.390328
-0.390951
-0.391935
-0.393328
-0.395175
-0.397527
-0.400445
-0.404
-0.408281
-0.413432
-0.41955
-0.426252
-0.393853
-0.392841
-0.392242
-0.391704
-0.391227
-0.390852
-0.390623
-0.390596
-0.390828
-0.391373
-0.392281
-0.393601
-0.395381
-0.397672
-0.400533
-0.404038
-0.408273
-0.413384
-0.41948
-0.426111
-0.39482
-0.393742
-0.39309
-0.392495
-0.391954
-0.391509
-0.391204
-0.391094
-0.391239
-0.391695
-0.392515
-0.393749
-0.395447
-0.397659
-0.400447
-0.403881
-0.408047
-0.413091
-0.419139
-0.425669
-0.395704
-0.394571
-0.393872
-0.393222
-0.392617
-0.3921
-0.391713
-0.391514
-0.391564
-0.391921
-0.392642
-0.393778
-0.395378
-0.397497
-0.400192
-0.403536
-0.407613
-0.412567
-0.418541
-0.424941
-0.396505
-0.395331
-0.394589
-0.393887
-0.393219
-0.392628
-0.392156
-0.391862
-0.391809
-0.392058
-0.392668
-0.393693
-0.395183
-0.397193
-0.399781
-0.403017
-0.406984
-0.411826
-0.417705
-0.423945
-0.39723
-0.396026
-0.395248
-0.394496
-0.393766
-0.393099
-0.392538
-0.392143
-0.39198
-0.392112
-0.392601
-0.393503
-0.394871
-0.396759
-0.399224
-0.402337
-0.406177
-0.410886
-0.416647
-0.422699
-0.397882
-0.396662
-0.395852
-0.395054
-0.394262
-0.393518
-0.392864
-0.392364
-0.392083
-0.392091
-0.39245
-0.393219
-0.394454
-0.396207
-0.398537
-0.401512
-0.405208
-0.409765
-0.41539
-0.421222
-0.398468
-0.397244
-0.396408
-0.395568
-0.394714
-0.393891
-0.393143
-0.392532
-0.392128
-0.392004
-0.392225
-0.392852
-0.393944
-0.395553
-0.397736
-0.40056
-0.404098
-0.408484
-0.413956
-0.419531
-0.398995
-0.397779
-0.396923
-0.396043
-0.39513
-0.394227
-0.393381
-0.392655
-0.392124
-0.391861
-0.391937
-0.392415
-0.393355
-0.39481
-0.396838
-0.399501
-0.402869
-0.407067
-0.412367
-0.417641
-0.399472
-0.398276
-0.397406
-0.396488
-0.395516
-0.394533
-0.393586
-0.392743
-0.39208
-0.391673
-0.391598
-0.39192
-0.392702
-0.393998
-0.395862
-0.398356
-0.401543
-0.405537
-0.41065
-0.415568
-0.399909
-0.398744
-0.397863
-0.396911
-0.395881
-0.394817
-0.393769
-0.392805
-0.392006
-0.391452
-0.391221
-0.391383
-0.392002
-0.393133
-0.394829
-0.397147
-0.400145
-0.403919
-0.408831
-0.413325
-0.400316
-0.399191
-0.398305
-0.397321
-0.396234
-0.395089
-0.393938
-0.392852
-0.391914
-0.39121
-0.39082
-0.390819
-0.391272
-0.392235
-0.393759
-0.395898
-0.3987
-0.40224
-0.406938
-0.410923
-0.400704
-0.39963
-0.398741
-0.397727
-0.396585
-0.395358
-0.394103
-0.392893
-0.391816
-0.39096
-0.39041
-0.390244
-0.390529
-0.391323
-0.392675
-0.394631
-0.397234
-0.400525
-0.405
-0.408377
-0.401086
-0.40007
-0.399183
-0.39814
-0.396942
-0.395634
-0.394275
-0.392941
-0.391723
-0.390715
-0.390005
-0.389673
-0.389791
-0.390417
-0.391597
-0.393372
-0.395773
-0.398801
-0.403046
-0.405698
-0.401475
-0.400523
-0.39964
-0.398569
-0.397317
-0.395928
-0.394464
-0.393006
-0.391649
-0.390489
-0.389619
-0.389125
-0.389078
-0.389538
-0.390548
-0.392142
-0.394341
-0.397094
-0.401105
-0.402904
-0.401887
-0.401003
-0.400125
-0.399027
-0.39772
-0.39625
-0.394682
-0.393102
-0.391606
-0.390296
-0.38927
-0.388615
-0.388407
-0.388704
-0.389549
-0.390966
-0.392964
-0.395427
-0.399204
-0.400013
-0.402335
-0.401522
-0.400649
-0.399524
-0.398162
-0.396611
-0.394941
-0.393239
-0.391608
-0.390151
-0.388972
-0.388161
-0.387796
-0.387937
-0.38862
-0.389863
-0.391661
-0.393823
-0.397367
-0.397053
-0.402835
-0.402094
-0.401225
-0.400072
-0.398654
-0.397023
-0.395251
-0.393431
-0.391667
-0.390069
-0.388741
-0.38778
-0.387264
-0.387253
-0.38778
-0.388853
-0.390453
-0.392302
-0.395611
-0.394054
-0.403404
-0.402732
-0.401865
-0.400683
-0.399209
-0.397498
-0.395626
-0.39369
-0.391798
-0.390062
-0.388593
-0.387487
-0.386827
-0.386671
-0.387048
-0.387954
-0.389355
-0.390881
-0.393949
-0.391056
-0.404057
-0.40345
-0.402583
-0.401369
-0.399837
-0.398046
-0.396076
-0.394028
-0.392012
-0.390147
-0.388542
-0.387299
-0.386502
-0.386207
-0.386438
-0.387181
-0.388381
-0.389578
-0.392382
-0.388108
-0.404811
-0.404262
-0.40339
-0.402141
-0.400551
-0.39868
-0.396615
-0.394458
-0.392325
-0.390334
-0.388602
-0.38723
-0.386302
-0.385875
-0.385965
-0.386547
-0.387542
-0.388412
-0.390907
-0.385268
-0.405683
-0.405182
-0.4043
-0.403012
-0.40136
-0.399411
-0.397252
-0.394991
-0.392746
-0.390639
-0.388786
-0.387292
-0.386241
-0.385687
-0.385641
-0.386063
-0.386845
-0.387404
-0.389521
-0.382628
-0.406687
-0.406222
-0.405323
-0.403992
-0.402277
-0.400249
-0.397999
-0.395638
-0.393287
-0.39107
-0.389105
-0.387498
-0.38633
-0.385654
-0.385473
-0.385738
-0.386297
-0.386577
-0.388222
-0.380307
-0.407839
-0.407396
-0.406472
-0.405093
-0.403312
-0.401204
-0.398866
-0.39641
-0.393959
-0.39164
-0.38957
-0.387855
-0.386576
-0.385782
-0.385468
-0.38558
-0.385906
-0.385955
-0.386968
-0.378319
-0.409152
-0.408714
-0.407757
-0.406323
-0.404473
-0.402286
-0.399861
-0.397315
-0.39477
-0.392355
-0.390187
-0.38837
-0.386985
-0.386075
-0.38563
-0.385593
-0.38569
-0.3856
-0.385685
-0.376359
-0.41064
-0.410189
-0.409189
-0.407693
-0.405771
-0.403503
-0.400994
-0.39836
-0.395727
-0.393221
-0.390961
-0.389047
-0.387557
-0.386532
-0.385955
-0.38578
-0.385687
-0.385646
-0.384572
-0.374748
-0.412314
-0.411828
-0.410775
-0.409211
-0.407211
-0.404862
-0.402269
-0.399551
-0.396834
-0.394243
-0.391894
-0.389887
-0.388292
-0.387148
-0.386436
-0.386126
-0.385895
-0.386138
-0.38443
-0.378135
-0.414183
-0.413642
-0.412524
-0.410884
-0.408801
-0.406368
-0.403692
-0.400893
-0.398096
-0.395423
-0.392988
-0.390886
-0.389184
-0.387913
-0.387054
-0.386596
-0.386234
-0.386735
-0.38544
-0.393828
-0.416256
-0.415637
-0.414443
-0.412718
-0.410547
-0.408027
-0.405268
-0.402389
-0.399513
-0.39676
-0.39424
-0.392041
-0.390223
-0.388813
-0.387787
-0.387147
-0.386614
-0.387177
-0.385996
-0.395991
-0.41854
-0.41782
-0.416536
-0.414717
-0.412452
-0.409842
-0.406998
-0.404039
-0.401085
-0.398253
-0.395646
-0.393344
-0.3914
-0.389831
-0.388609
-0.38774
-0.386963
-0.387299
-0.385842
-0.394639
-0.421039
-0.420195
-0.41881
-0.416887
-0.414521
-0.411816
-0.408885
-0.405844
-0.402812
-0.399898
-0.397199
-0.394786
-0.392701
-0.390949
-0.389495
-0.38834
-0.387232
-0.387117
-0.385184
-0.392161
-0.423757
-0.422767
-0.421267
-0.41923
-0.416755
-0.413951
-0.410929
-0.407805
-0.404691
-0.401692
-0.398893
-0.396357
-0.39411
-0.392148
-0.390421
-0.388918
-0.387393
-0.386666
-0.384123
-0.388981
-0.426696
-0.425537
-0.42391
-0.421749
-0.419157
-0.416247
-0.41313
-0.409919
-0.406719
-0.403628
-0.400721
-0.398044
-0.395613
-0.393407
-0.391361
-0.389449
-0.387429
-0.385975
-0.382732
-0.38545
-0.429857
-0.428509
-0.426741
-0.424446
-0.421728
-0.418706
-0.415489
-0.412185
-0.408894
-0.405702
-0.402672
-0.399837
-0.397194
-0.394706
-0.392295
-0.389915
-0.38733
-0.385078
-0.381083
-0.38179
-0.433241
-0.431683
-0.429763
-0.427322
-0.424471
-0.421329
-0.418005
-0.414602
-0.411212
-0.407908
-0.40474
-0.401722
-0.398836
-0.396025
-0.393201
-0.390299
-0.387091
-0.384001
-0.379235
-0.378125
-0.436848
-0.43506
-0.432975
-0.43038
-0.427385
-0.424117
-0.420679
-0.417169
-0.413669
-0.41024
-0.406914
-0.403687
-0.400522
-0.397347
-0.394061
-0.390588
-0.386714
-0.382772
-0.377235
-0.374521
-0.440677
-0.438641
-0.43638
-0.433619
-0.430473
-0.42707
-0.423511
-0.419885
-0.416264
-0.412693
-0.409185
-0.405718
-0.402236
-0.398653
-0.394859
-0.390773
-0.386201
-0.381411
-0.37512
-0.371007
-0.444726
-0.442425
-0.439978
-0.437042
-0.433735
-0.43019
-0.426501
-0.422749
-0.418993
-0.415259
-0.411543
-0.407802
-0.403962
-0.399926
-0.395581
-0.390846
-0.385555
-0.379935
-0.372916
-0.367592
-0.448994
-0.446413
-0.443769
-0.44065
-0.437175
-0.433479
-0.429651
-0.425761
-0.421852
-0.417934
-0.413979
-0.409926
-0.405685
-0.401151
-0.396214
-0.390803
-0.384782
-0.378356
-0.370643
-0.364273
-0.453479
-0.450605
-0.447755
-0.444444
-0.440792
-0.436938
-0.432961
-0.428919
-0.424839
-0.420709
-0.416481
-0.412075
-0.407387
-0.402312
-0.396748
-0.390639
-0.383887
-0.376686
-0.368313
-0.361038
-0.458181
-0.454998
-0.451935
-0.448425
-0.44459
-0.440568
-0.436431
-0.432222
-0.427948
-0.423577
-0.419038
-0.414234
-0.409055
-0.403396
-0.397173
-0.390353
-0.382873
-0.374931
-0.365936
-0.357873
-0.463096
-0.459594
-0.456309
-0.452593
-0.448569
-0.444371
-0.440062
-0.435668
-0.431175
-0.426527
-0.421635
-0.416388
-0.410671
-0.404391
-0.397483
-0.389941
-0.381745
-0.373096
-0.363516
-0.354765
-0.468222
-0.464389
-0.460878
-0.456951
-0.452729
-0.448347
-0.443852
-0.439252
-0.434511
-0.42955
-0.424261
-0.418522
-0.412222
-0.405283
-0.397669
-0.389404
-0.380506
-0.371186
-0.361056
-0.351696
-0.473556
-0.469382
-0.465638
-0.461496
-0.457071
-0.452496
-0.447799
-0.44297
-0.437948
-0.432632
-0.426897
-0.420618
-0.413692
-0.406063
-0.397727
-0.388741
-0.379159
-0.369203
-0.358555
-0.348653
-0.479093
-0.47457
-0.47059
-0.466227
-0.461594
-0.456814
-0.451899
-0.446814
-0.441475
-0.435759
-0.429529
-0.422661
-0.415068
-0.406721
-0.397652
-0.387951
-0.377707
-0.367146
-0.356012
-0.34562
-0.484829
-0.479948
-0.475729
-0.471143
-0.466295
-0.461299
-0.456145
-0.450774
-0.445078
-0.438914
-0.432138
-0.424633
-0.416334
-0.407247
-0.397439
-0.387034
-0.376149
-0.365016
-0.353424
-0.342586
-0.490757
-0.485512
-0.481051
-0.476239
-0.471169
-0.465944
-0.460529
-0.454839
-0.448741
-0.442079
-0.434705
-0.426517
-0.417479
-0.407633
-0.397085
-0.385988
-0.374487
-0.36281
-0.350786
-0.339536
-0.496868
-0.491253
-0.486549
-0.481509
-0.47621
-0.47074
-0.465039
-0.458993
-0.452448
-0.445234
-0.43721
-0.428295
-0.418488
-0.407871
-0.396586
-0.384814
-0.372718
-0.360526
-0.348095
-0.336462
-0.503152
-0.497163
-0.492217
-0.486945
-0.48141
-0.475679
-0.469662
-0.46322
-0.456176
-0.448357
-0.439633
-0.429951
-0.41935
-0.407953
-0.395938
-0.383508
-0.370843
-0.35816
-0.345344
-0.33335
-0.509596
-0.503231
-0.498042
-0.492538
-0.486756
-0.480744
-0.474381
-0.467498
-0.459904
-0.451426
-0.441952
-0.431467
-0.420052
-0.407872
-0.395137
-0.382069
-0.368857
-0.355708
-0.342527
-0.330193
-0.516188
-0.509445
-0.504015
-0.498275
-0.492236
-0.485921
-0.479176
-0.471805
-0.463607
-0.454416
-0.444147
-0.432827
-0.420583
-0.407621
-0.39418
-0.380494
-0.366758
-0.353166
-0.339638
-0.326979
-0.522909
-0.515788
-0.510119
-0.50414
-0.497833
-0.49119
-0.484023
-0.476116
-0.467259
-0.457302
-0.446196
-0.434014
-0.420932
-0.407193
-0.39306
-0.378779
-0.364542
-0.350527
-0.33667
-0.323701
-0.52974
-0.522244
-0.516338
-0.510117
-0.503526
-0.496528
-0.488899
-0.480403
-0.470832
-0.460058
-0.448078
-0.435013
-0.421088
-0.406581
-0.391775
-0.376918
-0.362202
-0.347785
-0.333616
-0.320349
-0.536659
-0.528793
-0.522652
-0.516184
-0.509294
-0.501909
-0.493774
-0.484636
-0.474296
-0.462659
-0.449771
-0.435807
-0.42104
-0.405777
-0.390317
-0.374908
-0.359733
-0.344934
-0.330467
-0.316916
-0.543642
-0.535411
-0.529039
-0.52232
-0.515112
-0.507306
-0.498618
-0.488784
-0.477622
-0.465078
-0.451254
-0.436382
-0.420777
-0.404774
-0.388681
-0.372741
-0.35713
-0.341966
-0.327217
-0.313392
-0.550661
-0.542073
-0.535474
-0.528496
-0.52095
-0.512689
-0.503399
-0.492814
-0.480779
-0.46729
-0.452508
-0.436722
-0.420288
-0.403564
-0.38686
-0.370413
-0.354384
-0.338874
-0.323857
-0.30977
-0.557686
-0.548751
-0.541928
-0.534685
-0.526778
-0.518022
-0.50808
-0.496692
-0.483737
-0.469269
-0.453513
-0.436814
-0.419564
-0.402139
-0.384847
-0.367914
-0.351489
-0.33565
-0.32038
-0.306041
-0.564685
-0.555415
-0.548372
-0.540854
-0.532561
-0.523271
-0.512626
-0.500382
-0.486463
-0.470988
-0.454248
-0.436642
-0.418594
-0.400489
-0.382634
-0.365239
-0.348437
-0.332287
-0.316777
-0.302199
-0.571623
-0.562032
-0.554771
-0.546969
-0.538262
-0.528395
-0.516997
-0.503848
-0.488927
-0.472423
-0.454696
-0.436193
-0.417366
-0.398607
-0.380213
-0.362378
-0.345219
-0.328776
-0.31304
-0.298234
-0.578464
-0.568566
-0.561092
-0.552993
-0.543844
-0.533357
-0.521156
-0.507056
-0.491099
-0.473551
-0.454837
-0.435452
-0.415871
-0.396484
-0.377575
-0.359324
-0.341827
-0.325108
-0.309162
-0.29414
-0.585167
-0.574981
-0.567295
-0.558886
-0.549265
-0.538114
-0.525062
-0.509968
-0.492949
-0.474346
-0.454654
-0.434408
-0.414097
-0.394109
-0.374713
-0.356069
-0.338254
-0.321277
-0.305134
-0.289909
-0.591691
-0.581235
-0.573341
-0.564609
-0.554484
-0.542624
-0.528675
-0.512551
-0.494447
-0.474788
-0.45413
-0.433046
-0.412034
-0.391474
-0.371616
-0.352602
-0.33449
-0.317273
-0.300949
-0.285534
-0.597995
-0.587289
-0.579189
-0.570117
-0.559455
-0.546845
-0.531956
-0.514769
-0.495566
-0.474854
-0.453249
-0.431354
-0.409671
-0.388568
-0.368277
-0.348916
-0.330528
-0.313089
-0.296599
-0.281008
-0.604033
-0.593099
-0.584794
-0.575365
-0.564134
-0.550731
-0.534864
-0.516589
-0.496279
-0.474524
-0.451995
-0.429319
-0.406998
-0.385383
-0.364685
-0.345002
-0.326358
-0.308717
-0.292076
-0.276324
-0.609759
-0.598619
-0.590111
-0.580308
-0.568475
-0.554241
-0.537361
-0.517977
-0.496559
-0.473778
-0.450353
-0.426929
-0.404003
-0.381909
-0.360832
-0.340852
-0.321973
-0.304149
-0.287373
-0.271476
-0.615128
-0.603806
-0.595094
-0.584899
-0.572432
-0.55733
-0.539408
-0.518903
-0.496383
-0.472597
-0.448308
-0.424172
-0.400678
-0.378135
-0.356709
-0.336456
-0.317364
-0.299377
-0.282484
-0.266458
-0.620092
-0.608611
-0.599696
-0.589092
-0.575959
-0.559956
-0.540969
-0.519336
-0.495727
-0.470963
-0.445846
-0.421037
-0.397011
-0.374054
-0.352307
-0.331806
-0.312524
-0.294395
-0.277401
-0.261264
-0.624603
-0.61299
-0.603871
-0.592838
-0.579011
-0.562078
-0.542009
-0.519249
-0.49457
-0.468861
-0.442954
-0.417514
-0.392993
-0.369656
-0.347617
-0.326895
-0.307446
-0.289196
-0.272119
-0.255888
-0.628614
-0.616893
-0.607569
-0.596091
-0.581542
-0.563656
-0.542493
-0.518615
-0.492891
-0.466274
-0.439621
-0.41359
-0.388615
-0.364931
-0.342632
-0.321715
-0.302122
-0.283773
-0.266632
-0.250326
-0.632077
-0.620274
-0.610745
-0.598803
-0.58351
-0.56465
-0.54239
-0.517409
-0.490671
-0.463188
-0.435834
-0.409257
-0.383867
-0.359873
-0.337344
-0.316259
-0.296547
-0.278121
-0.260935
-0.244573
-0.634947
-0.623087
-0.613352
-0.60093
-0.584871
-0.565025
-0.541671
-0.515607
-0.487893
-0.45959
-0.431583
-0.404506
-0.378742
-0.354473
-0.331744
-0.31052
-0.290713
-0.272233
-0.255022
-0.238624
-0.637177
-0.625287
-0.615344
-0.602428
-0.585586
-0.564746
-0.540307
-0.51319
-0.484543
-0.455468
-0.426859
-0.399328
-0.373231
-0.348723
-0.325828
-0.304492
-0.284616
-0.266105
-0.248889
-0.232476
-0.638723
-0.626828
-0.616677
-0.603255
-0.585617
-0.563781
-0.538275
-0.510139
-0.480605
-0.450812
-0.421651
-0.393714
-0.367327
-0.342618
-0.319588
-0.298169
-0.27825
-0.259732
-0.242532
-0.226126
-0.639544
-0.627669
-0.617309
-0.603369
-0.584927
-0.5621
-0.53555
-0.506436
-0.476067
-0.445612
-0.415954
-0.387659
-0.361025
-0.336152
-0.31302
-0.291546
-0.27161
-0.25311
-0.235947
-0.21957
-0.639597
-0.627768
-0.617199
-0.602734
-0.583484
-0.559677
-0.532113
-0.502068
-0.470919
-0.439859
-0.409759
-0.381157
-0.354318
-0.329318
-0.306118
-0.284619
-0.264693
-0.246235
-0.229132
-0.212806
-0.638846
-0.627087
-0.616309
-0.601313
-0.581257
-0.556488
-0.527945
-0.49702
-0.465152
-0.433547
-0.403061
-0.374201
-0.347202
-0.322114
-0.298878
-0.277385
-0.257496
-0.239104
-0.222085
-0.205837
-0.637253
-0.625588
-0.614604
-0.599074
-0.578219
-0.552511
-0.523033
-0.491284
-0.458758
-0.426671
-0.395855
-0.366788
-0.339673
-0.314535
-0.291298
-0.26984
-0.250014
-0.231712
-0.214802
-0.19866
-0.634787
-0.623239
-0.61205
-0.595988
-0.574345
-0.547728
-0.517363
-0.484851
-0.451733
-0.419226
-0.388139
-0.358915
-0.331728
-0.306578
-0.283375
-0.261982
-0.242245
-0.224054
-0.207274
-0.191255
-0.631415
-0.620008
-0.608618
-0.592028
-0.569614
-0.542124
-0.510925
-0.477714
-0.444071
-0.411209
-0.379909
-0.350581
-0.323366
-0.298244
-0.275108
-0.253812
-0.23419
-0.216133
-0.199495
-0.183567
-0.627113
-0.615868
-0.604282
-0.587171
-0.564009
-0.535687
-0.503712
-0.469869
-0.435771
-0.40262
-0.371165
-0.341783
-0.314585
-0.28953
-0.266496
-0.245329
-0.225852
-0.207965
-0.191498
-0.175545
-0.621855
-0.610794
-0.599018
-0.581398
-0.557514
-0.528407
-0.495719
-0.461315
-0.426833
-0.393458
-0.361908
-0.332522
-0.305387
-0.280438
-0.257542
-0.236533
-0.217232
-0.199559
-0.183333
-0.167325
-0.615621
-0.604765
-0.592806
-0.574693
-0.55012
-0.520279
-0.486944
-0.452052
-0.417257
-0.383725
-0.352138
-0.322801
-0.295772
-0.270968
-0.248244
-0.227426
-0.208332
-0.190888
-0.174799
-0.15911
-0.608394
-0.597763
-0.585631
-0.567042
-0.541818
-0.5113
-0.477387
-0.442082
-0.407048
-0.373425
-0.341859
-0.312621
-0.285742
-0.261124
-0.238607
-0.218011
-0.199153
-0.181957
-0.166055
-0.150688
-0.600162
-0.589775
-0.577481
-0.558439
-0.532603
-0.501469
-0.467051
-0.43141
-0.396209
-0.362561
-0.331074
-0.301986
-0.275303
-0.250907
-0.228632
-0.208292
-0.189698
-0.172773
-0.157105
-0.142044
-0.590915
-0.58079
-0.568347
-0.548877
-0.522477
-0.490789
-0.455941
-0.42004
-0.384746
-0.35114
-0.31979
-0.290902
-0.264457
-0.240324
-0.218327
-0.198271
-0.17997
-0.163343
-0.147941
-0.133181
-0.580646
-0.570801
-0.558223
-0.538355
-0.511439
-0.479266
-0.444065
-0.407983
-0.372669
-0.339169
-0.308014
-0.279375
-0.253212
-0.229381
-0.207695
-0.187955
-0.169974
-0.153671
-0.138562
-0.124111
-0.569354
-0.559807
-0.54711
-0.526875
-0.499498
-0.466908
-0.431432
-0.395248
-0.359986
-0.326657
-0.295752
-0.267412
-0.241575
-0.218082
-0.196742
-0.177349
-0.159717
-0.143764
-0.128969
-0.114839
-0.557041
-0.547809
-0.535009
-0.514444
-0.48666
-0.453726
-0.418055
-0.381846
-0.34671
-0.313615
-0.283015
-0.255022
-0.229552
-0.206437
-0.185475
-0.16646
-0.149203
-0.133627
-0.119166
-0.105375
-0.543713
-0.53481
-0.521928
-0.501069
-0.472938
-0.439734
-0.403948
-0.367793
-0.332852
-0.300055
-0.269815
-0.242215
-0.217155
-0.194453
-0.173904
-0.155296
-0.138442
-0.123266
-0.109159
-0.0957242
-0.529377
-0.520819
-0.507876
-0.486764
-0.458347
-0.424949
-0.389128
-0.353103
-0.318428
-0.285989
-0.256162
-0.229003
-0.204392
-0.182141
-0.162038
-0.143865
-0.127442
-0.112689
-0.0989564
-0.0858945
-0.514048
-0.50585
-0.492866
-0.471544
-0.442905
-0.409389
-0.373613
-0.337795
-0.303454
-0.271433
-0.242071
-0.215397
-0.191277
-0.169511
-0.149885
-0.132179
-0.116211
-0.101905
-0.0885652
-0.075894
-0.497742
-0.489916
-0.476916
-0.455429
-0.426633
-0.393074
-0.357424
-0.321887
-0.287946
-0.256401
-0.227555
-0.20141
-0.17782
-0.156576
-0.137459
-0.120246
-0.104759
-0.0909229
-0.0779951
-0.0657316
-0.480478
-0.473038
-0.460046
-0.438441
-0.409552
-0.37603
-0.340583
-0.305399
-0.271924
-0.240912
-0.21263
-0.187059
-0.164036
-0.143347
-0.12477
-0.108079
-0.0930993
-0.0797542
-0.0672564
-0.0554172
-0.462279
-0.455238
-0.44228
-0.420603
-0.391691
-0.358284
-0.323109
-0.288354
-0.255408
-0.224984
-0.197314
-0.172357
-0.149939
-0.129839
-0.111832
-0.0956904
-0.0812421
-0.0684101
-0.0563609
-0.0449625
-0.443173
-0.43654
-0.423643
-0.401945
-0.373078
-0.339863
-0.305027
-0.270775
-0.238421
-0.208636
-0.181623
-0.157321
-0.135544
-0.116066
-0.0986583
-0.0830927
-0.0692008
-0.0569034
-0.0453211
-0.0343809
-0.423187
-0.416975
-0.404165
-0.382497
-0.353744
-0.320777
-0.286383
-0.252689
-0.220983
-0.191889
-0.165578
-0.141969
-0.120867
-0.102042
-0.0852629
-0.0703
-0.0569891
-0.0452475
-0.0341515
-0.0236882
-0.402353
-0.396574
-0.383878
-0.362296
-0.33371
-0.301078
-0.26719
-0.234122
-0.20312
-0.174765
-0.149198
-0.126319
-0.105926
-0.0877843
-0.071661
-0.0573266
-0.0446212
-0.0334569
-0.0228676
-0.0129028
-0.380706
-0.375371
-0.36282
-0.341381
-0.313004
-0.280797
-0.247481
-0.2151
-0.184857
-0.157287
-0.132503
-0.110391
-0.0907377
-0.073308
-0.0578676
-0.0441873
-0.0321119
-0.0215466
-0.0114862
-0.00204638
-0.35828
-0.353405
-0.341029
-0.319748
-0.291701
-0.259967
-0.227286
-0.195654
-0.16622
-0.139479
-0.115516
-0.0942027
-0.0753202
-0.0586302
-0.0438984
-0.030897
-0.0194762
-0.00953167
-2.55538e-05
0.00885457
-0.335116
-0.330717
-0.318546
-0.297463
-0.269813
-0.238622
-0.206641
-0.175813
-0.147236
-0.121365
-0.0982595
-0.0777764
-0.0596925
-0.043768
-0.029769
-0.0174705
-0.00672886
0.00257275
0.0114942
0.0197641
-0.311249
-0.307346
-0.295379
-0.274601
-0.247382
-0.216799
-0.185579
-0.155609
-0.127934
-0.102972
-0.0807561
-0.0611327
-0.0438737
-0.0287387
-0.015495
-0.00392203
0.00611645
0.0147528
0.0230517
0.0306391
-0.286714
-0.283351
-0.271609
-0.251175
-0.224449
-0.194538
-0.164135
-0.135073
-0.108343
-0.0843248
-0.0630303
-0.0442937
-0.0278836
-0.01356
-0.00109185
0.00973453
0.0190468
0.0269971
0.0346314
0.0414456
-0.26155
-0.25879
-0.247284
-0.227229
-0.201057
-0.171878
-0.142346
-0.114238
-0.0884928
-0.0654521
-0.045107
-0.0272818
-0.0117425
0.00175021
0.013425
0.0234857
0.0320502
0.0392991
0.0462311
0.0521583
-0.235892
-0.233646
-0.222444
-0.202812
-0.17725
-0.148858
-0.120249
-0.0931387
-0.0684142
-0.0463814
-0.0270117
-0.0101204
0.00452862
0.0171738
0.0280403
0.0373185
0.0451174
0.0516626
0.0578512
0.0626788
-0.209767
-0.207976
-0.197135
-0.177972
-0.153071
-0.12552
-0.0978821
-0.0718094
-0.0481388
-0.0271418
-0.00877087
0.00716655
0.0209084
0.0326921
0.0427385
0.0512214
0.0582501
0.064112
0.069461
0.0727249
-0.183181
-0.181863
-0.171407
-0.152755
-0.128567
-0.101908
-0.0752834
-0.0502853
-0.0276988
-0.00776261
0.00958854
0.0245544
0.0373744
0.0482854
0.0575029
0.0651856
0.0714649
0.0766933
0.0810168
0.0820278
-0.156189
-0.155363
-0.14531
-0.127211
-0.103784
-0.078062
-0.0524924
-0.0286023
-0.00712727
0.0117259
0.0280388
0.0420177
0.0539034
0.0639321
0.0723142
0.0792011
0.0847738
0.0894141
0.0925305
0.0912609
-0.12885
-0.128526
-0.118898
-0.101391
-0.0787698
-0.0540273
-0.0295491
-0.00679702
0.0135426
0.0312932
0.0465516
0.0595301
0.0704708
0.0796091
0.0871508
0.0932502
0.0981454
0.10215
0.103912
0.103267
-0.101219
-0.101405
-0.0922216
-0.0753443
-0.0535706
-0.0298474
-0.00649361
0.0150938
0.0342768
0.0509079
0.0650981
0.0770649
0.0870514
0.0952919
0.101989
0.107305
0.111507
0.114816
0.115797
0.115919
-0.0733531
-0.0740541
-0.0653361
-0.049123
-0.0282352
-0.00556653
0.0166333
0.0370328
0.0550413
0.0705386
0.0836491
0.0945948
0.103619
0.110956
0.116806
0.121337
0.124826
0.127419
0.127785
0.128005
-0.0453092
-0.0465289
-0.0382957
-0.0227787
-0.00281179
0.0187706
0.0397907
0.0589826
0.0758015
0.0901534
0.102175
0.112092
0.120149
0.126577
0.131576
0.135319
0.138081
0.139965
0.139774
0.139788
-0.017145
-0.0188852
-0.0111548
0.00363645
0.0226511
0.0431193
0.0629376
0.0809056
0.0965228
0.109721
0.120646
0.12953
0.136614
0.14213
0.146275
0.149227
0.151252
0.152432
0.151682
0.151345
0.0110821
0.00882077
0.0160316
0.0300705
0.0481048
0.0674347
0.086033
0.102764
0.117171
0.129208
0.139033
0.146879
0.152989
0.157591
0.16088
0.163036
0.164319
0.164795
0.163468
0.162695
0.0393145
0.0365325
0.0432086
0.0564713
0.0735008
0.0916722
0.109036
0.12452
0.13771
0.148583
0.157306
0.164114
0.169248
0.172934
0.175367
0.176725
0.177262
0.177031
0.175113
0.173852
0.0674945
0.0641933
0.0703212
0.0827867
0.0987908
0.115787
0.131905
0.146137
0.158107
0.167815
0.175436
0.181205
0.185365
0.188137
0.189715
0.190274
0.190062
0.189123
0.186601
0.18482
0.0955646
0.0917469
0.0973148
0.108965
0.123927
0.139735
0.1546
0.167576
0.178327
0.186871
0.193392
0.198127
0.201314
0.203175
0.2039
0.203662
0.202701
0.201053
0.197921
0.195597
0.123468
0.119137
0.124135
0.134955
0.14886
0.163473
0.177081
0.188802
0.198336
0.205721
0.211147
0.214851
0.217072
0.218027
0.217901
0.216869
0.215162
0.212806
0.209061
0.206179
0.151147
0.146307
0.150728
0.160706
0.173545
0.186956
0.199308
0.209776
0.218099
0.224332
0.22867
0.231352
0.232613
0.232668
0.231699
0.229877
0.227426
0.224366
0.220009
0.21656
0.178546
0.173203
0.17704
0.186167
0.197934
0.210142
0.22124
0.230464
0.237585
0.242675
0.245935
0.247604
0.247914
0.247076
0.245271
0.242667
0.239479
0.23572
0.230755
0.226732
0.205609
0.19977
0.203018
0.211288
0.221981
0.232988
0.24284
0.250828
0.256759
0.260718
0.262912
0.263579
0.262949
0.26123
0.258599
0.255221
0.251303
0.246854
0.241287
0.236687
0.232281
0.225952
0.228611
0.236021
0.24564
0.255453
0.264069
0.270835
0.275589
0.278432
0.279575
0.279254
0.277697
0.275109
0.271663
0.267521
0.262882
0.257752
0.251592
0.246416
0.258509
0.251699
0.253767
0.260318
0.268868
0.277496
0.284889
0.290449
0.294044
0.295788
0.295895
0.294603
0.292134
0.28869
0.284442
0.279549
0.274202
0.268402
0.261659
0.255908
0.284238
0.276957
0.278437
0.284132
0.29162
0.299077
0.305264
0.309637
0.312093
0.312757
0.311848
0.309601
0.306237
0.301954
0.29692
0.291289
0.285245
0.27879
0.271476
0.265153
0.309419
0.301675
0.302571
0.307416
0.313855
0.320156
0.325158
0.328366
0.329704
0.329311
0.327406
0.324225
0.319985
0.314881
0.309076
0.302723
0.295999
0.288902
0.281029
0.274141
0.333999
0.325804
0.326122
0.330126
0.33553
0.340696
0.344535
0.346603
0.346849
0.345422
0.342546
0.338452
0.333356
0.32745
0.320893
0.313836
0.306446
0.298724
0.290307
0.282862
0.357929
0.349296
0.349043
0.352219
0.356606
0.360659
0.363362
0.364317
0.363498
0.361064
0.357241
0.352258
0.34633
0.339642
0.332354
0.32461
0.316574
0.308244
0.299298
0.291305
0.381162
0.372103
0.371289
0.373652
0.377043
0.38001
0.381605
0.381477
0.379623
0.376211
0.371468
0.365623
0.358886
0.35144
0.343441
0.335032
0.326366
0.317448
0.30799
0.29946
0.403651
0.394179
0.392817
0.394384
0.396803
0.398713
0.399233
0.398054
0.395197
0.390837
0.385204
0.378524
0.371004
0.362824
0.354138
0.345084
0.335811
0.326324
0.316371
0.307317
0.425351
0.415482
0.413584
0.414375
0.415851
0.416735
0.416214
0.41402
0.410194
0.40492
0.398427
0.39094
0.382665
0.373778
0.364429
0.354753
0.344894
0.334858
0.324428
0.314865
0.446219
0.435968
0.43355
0.433589
0.43415
0.434044
0.43252
0.429348
0.424589
0.418434
0.411114
0.402853
0.393852
0.384284
0.374297
0.364024
0.353602
0.34304
0.332153
0.322096
0.466215
0.455597
0.452676
0.451988
0.451668
0.450609
0.44812
0.44401
0.438357
0.431359
0.423247
0.414243
0.404546
0.394326
0.383729
0.372884
0.361922
0.350857
0.339532
0.328999
0.485297
0.47433
0.470926
0.469538
0.468372
0.4664
0.462989
0.457982
0.451475
0.443672
0.434804
0.425092
0.414731
0.403889
0.39271
0.38132
0.369843
0.358299
0.346557
0.335567
0.50343
0.49213
0.488263
0.486206
0.484232
0.48139
0.477101
0.471241
0.463922
0.455353
0.445767
0.435382
0.42439
0.412959
0.401227
0.389318
0.377353
0.365354
0.353217
0.34179
0.520577
0.508964
0.504656
0.501961
0.499219
0.495552
0.490431
0.483763
0.475676
0.466384
0.456118
0.445097
0.433509
0.42152
0.409265
0.396867
0.38444
0.372013
0.359502
0.34766
0.536704
0.524796
0.520071
0.516774
0.513307
0.50886
0.502955
0.495528
0.486718
0.476745
0.465841
0.454221
0.442074
0.429559
0.416814
0.403956
0.391096
0.378265
0.365404
0.353169
0.551781
0.539598
0.53448
0.530616
0.526468
0.521292
0.514654
0.506515
0.49703
0.48642
0.47492
0.462741
0.45007
0.437066
0.423862
0.410574
0.397309
0.384103
0.370915
0.358311
0.565778
0.553341
0.547856
0.543463
0.538681
0.532826
0.525505
0.516706
0.506593
0.495394
0.483339
0.470642
0.457485
0.444027
0.430398
0.416711
0.40307
0.389516