/*--------------------------------*- C++ -*----------------------------------*\
  =========                 |
  \\      /  F ield         | OpenFOAM: The Open Source CFD Toolbox
   \\    /   O peration     | Website:  https://openfoam.org
    \\  /    A nd           | Version:  7
     \\/     M anipulation  |
\*---------------------------------------------------------------------------*/
FoamFile
{
    version     2.0;
    format      ascii;
    class       surfaceScalarField;
    location    "20";
    object      phi;
}
// * * * * * * * * * * * * * * * * * * * * * * * * * * * * * * * * * * * * * //

dimensions      [0 3 -1 0 0 0 0];

internalField   nonuniform List<scalar> 
14029
(
-0.000430979
2.56021e-05
-7.8086e-07
-0.000457151
2.67317e-05
-5.5916e-07
-0.000484594
2.76997e-05
-2.57408e-07
-0.000513113
2.8395e-05
1.2445e-07
-0.000542361
2.86667e-05
5.81063e-07
-0.000571836
2.83748e-05
1.10049e-06
-0.000600859
2.73591e-05
1.66368e-06
-0.000628579
2.54746e-05
2.24509e-06
-0.00065397
2.25797e-05
2.81194e-06
-0.000675858
1.85591e-05
3.32841e-06
-0.000692941
1.33321e-05
3.75107e-06
-0.000703842
6.85732e-06
4.04419e-06
-0.000707171
-8.50284e-07
4.17898e-06
-0.000701647
-9.61808e-06
4.09393e-06
-0.000686199
-1.92593e-05
3.81113e-06
-0.000660111
-2.9409e-05
3.32111e-06
-0.000623159
-3.95958e-05
2.64409e-06
-0.000575685
-4.92917e-05
1.81781e-06
-0.000518569
-5.8015e-05
8.98367e-07
-0.000453118
-6.53958e-05
-5.52289e-08
-0.000380892
-7.1233e-05
-9.92414e-07
-0.000303536
-7.54958e-05
-1.86069e-06
-0.000222641
-7.82688e-05
-2.62567e-06
-0.000139668
-7.97148e-05
-3.25871e-06
-5.59145e-05
-8.00181e-05
-3.73503e-06
2.74993e-05
-7.93692e-05
-4.04458e-06
0.000109628
-7.79439e-05
-4.18461e-06
0.000189691
-7.59006e-05
-4.16278e-06
0.000267069
-7.33871e-05
-3.99118e-06
-7.05304e-05
-3.6898e-06
-0.000429361
5.03076e-05
-0.000455412
5.27824e-05
-0.000482727
5.50148e-05
-0.000511115
5.67829e-05
-0.000540228
5.778e-05
-0.000569568
5.77144e-05
-0.000598455
5.62469e-05
-0.000626043
5.30622e-05
-0.000651308
4.78448e-05
-0.000673078
4.03287e-05
-0.000690054
3.03087e-05
-0.000700863
1.76666e-05
-0.000704117
2.40322e-06
-0.000698537
-1.51983e-05
-0.000683053
-3.47434e-05
-0.000656949
-5.55127e-05
-0.000620001
-7.65435e-05
-0.00057255
-9.67428e-05
-0.000515474
-0.000115091
-0.000450079
-0.00013079
-0.000377925
-0.000143388
-0.000300651
-0.000152769
-0.00021985
-0.00015907
-0.000136978
-0.000162587
-5.33318e-05
-0.000163664
2.99713e-05
-0.000162672
0.000111987
-0.000159959
0.000191936
-0.00015585
0.000269201
-0.000150652
-0.000144638
-0.000426144
7.4783e-05
-0.000451952
7.85904e-05
-0.000479014
8.20763e-05
-0.000507139
8.49084e-05
-0.000535984
8.66249e-05
-0.000565053
8.67827e-05
-0.00059367
8.48645e-05
-0.000620993
8.03852e-05
-0.000646004
7.2856e-05
-0.000667536
6.18606e-05
-0.000684298
4.70701e-05
-0.00069492
2.82887e-05
-0.00069802
5.50342e-06
-0.000692324
-2.08946e-05
-0.000676764
-5.03035e-05
-0.000650625
-8.16518e-05
-0.000613681
-0.000113487
-0.000566272
-0.000144152
-0.000509273
-0.00017209
-0.000443988
-0.000196075
-0.000371974
-0.000215403
-0.000294866
-0.000229877
-0.000214251
-0.000239685
-0.000131582
-0.000245256
-4.81519e-05
-0.000247095
3.49268e-05
-0.000245751
0.000116713
-0.000241745
0.000196431
-0.000235568
0.000273464
-0.000227685
-0.000218517
-0.000421348
9.89155e-05
-0.000446795
0.000104037
-0.000473479
0.00010876
-0.000501213
0.000112643
-0.000529658
0.00011507
-0.000558322
0.000115447
-0.000586537
0.000113079
-0.000613465
0.000107314
-0.000638098
9.74884e-05
-0.000659275
8.30381e-05
-0.000675715
6.35102e-05
-0.000686058
3.86317e-05
-0.000688929
8.3745e-06
-0.00068306
-2.67636e-05
-0.000667387
-6.59769e-05
-0.000641195
-0.000107844
-0.000604258
-0.000150424
-0.000556911
-0.000191498
-0.000500028
-0.000228973
-0.000434908
-0.000261195
-0.000363102
-0.000287209
-0.000286241
-0.000306738
-0.000205906
-0.00032002
-0.000123541
-0.000327621
-4.04332e-05
-0.000330202
4.231e-05
-0.000328494
0.000123753
-0.000323188
0.000203124
-0.000314939
0.00027981
-0.000304372
-0.000292052
-0.000415002
0.000122595
-0.000439971
0.000129006
-0.000466156
0.000134945
-0.000493374
0.000139861
-0.000521291
0.000142986
-0.000549421
0.000143577
-0.000577104
0.000140762
-0.000603511
0.000133721
-0.000627644
0.000121621
-0.000648354
0.000103748
-0.000664372
7.95274e-05
-0.000674348
4.86077e-05
-0.000676918
1.0945e-05
-0.000670823
-3.28582e-05
-0.000655004
-8.17967e-05
-0.000628746
-0.000134102
-0.00059182
-0.00018735
-0.00054456
-0.000238759
-0.000487833
-0.000285701
-0.000422933
-0.000326094
-0.000351405
-0.000358737
-0.000274872
-0.000383271
-0.000194906
-0.000399986
-0.000112943
-0.000409583
-3.02623e-05
-0.000412884
5.20378e-05
-0.000410794
0.000133027
-0.000404178
0.000211941
-0.000393852
0.00028817
-0.000380601
-0.000365134
-0.000407145
0.000145716
-0.000431524
0.000153385
-0.000457093
0.000160513
-0.000483673
0.000166442
-0.000510937
0.000170251
-0.000538408
0.000171048
-0.000565435
0.000167789
-0.0005912
0.000159487
-0.000614718
0.000145139
-0.000634853
0.000123884
-0.000650351
9.50252e-05
-0.000659878
5.81341e-05
-0.000662081
1.31489e-05
-0.000655713
-3.92264e-05
-0.000639718
-9.77915e-05
-0.000613385
-0.000160435
-0.000576481
-0.000224254
-0.000529334
-0.000285906
-0.000472805
-0.000342229
-0.000408183
-0.000390717
-0.000337002
-0.000429917
-0.000260878
-0.000459395
-0.00018137
-0.000479494
-9.99051e-05
-0.000491048
-1.77506e-05
-0.000495038
6.40029e-05
-0.000492548
0.000144434
-0.000484609
0.000222784
-0.000472202
0.00029845
-0.000456267
-0.000437658
-0.000397823
0.000168176
-0.000421505
0.000177068
-0.000446345
0.000185353
-0.000472171
0.000192268
-0.000498664
0.000196744
-0.000525357
0.00019774
-0.000551609
0.000194041
-0.000576617
0.000184495
-0.000599409
0.000167931
-0.000618868
0.000143343
-0.000633757
0.000109913
-0.000642757
6.71347e-05
-0.000644534
1.49261e-05
-0.000637851
-4.59098e-05
-0.000621658
-0.000113984
-0.000595246
-0.000186847
-0.000558377
-0.000261123
-0.000511374
-0.000332909
-0.00045509
-0.000398514
-0.000390803
-0.000455004
-0.00032004
-0.000500681
-0.000244402
-0.000535032
-0.00016544
-0.000558456
-8.45644e-05
-0.000571923
-3.03095e-06
-0.000576572
7.80763e-05
-0.000573655
0.00015785
-0.000564382
0.000235537
-0.000549889
0.000310541
-0.000531272
-0.000509528
-0.000387092
0.000189879
-0.000409975
0.000199951
-0.000433979
0.000209357
-0.000458941
0.000217231
-0.00048455
0.000222353
-0.000510351
0.00022354
-0.000535716
0.000219407
-0.000559858
0.000208637
-0.000581823
0.000189896
-0.000600512
0.000162032
-0.000614707
0.000124109
-0.000623113
7.55402e-05
-0.00062441
1.62236e-05
-0.000617377
-5.29435e-05
-0.00060097
-0.000130391
-0.00057448
-0.000213337
-0.000537667
-0.000297937
-0.000490842
-0.000379734
-0.00043485
-0.000454505
-0.000370959
-0.000518895
-0.000300683
-0.000570957
-0.000225611
-0.000610104
-0.000147277
-0.00063679
-6.70799e-05
-0.000652121
1.37387e-05
-0.00065739
9.41103e-05
-0.000654027
0.000173133
-0.000643405
0.000250064
-0.000626821
0.000324316
-0.000605524
-0.000580653
-0.000375013
0.000210735
-0.000397001
0.000221939
-0.00042007
0.000232425
-0.000444064
0.000241225
-0.000468684
0.000246973
-0.000493486
0.000248343
-0.00051786
0.000243781
-0.000541036
0.000231812
-0.000562078
0.000210938
-0.00057991
0.000179865
-0.000593338
0.000137537
-0.000601087
8.32891e-05
-0.000601859
1.69958e-05
-0.000594446
-6.03559e-05
-0.000577815
-0.000147022
-0.000551257
-0.000239896
-0.000514522
-0.000334671
-0.000467915
-0.000426341
-0.000412267
-0.000510153
-0.000348834
-0.000582328
-0.000279115
-0.000640676
-0.000204685
-0.000684535
-0.000127061
-0.000714414
-4.76256e-05
-0.000731556
3.23937e-05
-0.000737409
0.000111942
-0.000733575
0.000190128
-0.000721591
0.000266219
-0.000702912
0.000339634
-0.000678938
-0.000650951
-0.000361657
0.00023066
-0.000382661
0.000242944
-0.000404701
0.000254465
-0.00042763
0.000264154
-0.000451163
0.000270505
-0.000474869
0.000272049
-0.000498155
0.000267068
-0.000520271
0.000253928
-0.000540304
0.000230971
-0.000557201
0.000196762
-0.000569794
0.000150129
-0.000576833
9.03277e-05
-0.000577041
1.72044e-05
-0.000569229
-6.8168e-05
-0.00055237
-0.00016388
-0.000525756
-0.00026651
-0.000489129
-0.000371298
-0.000442783
-0.000472687
-0.000387534
-0.000565402
-0.000324621
-0.00064524
-0.000255531
-0.000709767
-0.000181817
-0.000758248
-0.000104982
-0.00079125
-2.63876e-05
-0.00081015
5.2752e-05
-0.000816549
0.000131397
-0.00081222
0.000208668
-0.000798861
0.000283841
-0.000778085
0.000356343
-0.000751441
-0.000720349
-0.000347096
0.000249577
-0.000367036
0.000262883
-0.000387961
0.00027539
-0.000409738
0.000285931
-0.000432093
0.000292859
-0.000454612
0.000294568
-0.000476723
0.000289178
-0.000497695
0.0002749
-0.000516641
0.000249917
-0.000532535
0.000212656
-0.000544234
0.000161828
-0.000550517
9.66105e-05
-0.000550131
1.68189e-05
-0.000541905
-7.63941e-05
-0.000524821
-0.000180965
-0.00049817
-0.000293162
-0.000461685
-0.000407782
-0.000415646
-0.000518727
-0.000360852
-0.000620196
-0.000298525
-0.000707567
-0.000230132
-0.00077816
-0.000157209
-0.000831171
-8.12367e-05
-0.000867222
-3.55163e-06
-0.000887835
7.46251e-05
-0.000894726
0.000152293
-0.000889888
0.000228577
-0.000875145
0.000302762
-0.00085227
0.000374285
-0.000822963
-0.000788781
-0.00033141
0.000267418
-0.000350211
0.000281685
-0.000369946
0.000295125
-0.00039049
0.000306476
-0.000411586
0.000313955
-0.000432839
0.000315821
-0.000453695
0.000310035
-0.000473449
0.000294653
-0.000491239
0.000267707
-0.000506067
0.000227484
-0.000516823
0.000172584
-0.000522312
0.0001021
-0.000521309
1.58159e-05
-0.000512661
-8.50419e-05
-0.00049536
-0.000198266
-0.000468695
-0.000319826
-0.000432391
-0.000444087
-0.000386708
-0.00056441
-0.000332428
-0.000674475
-0.000270752
-0.000769243
-0.000203127
-0.000845786
-0.000131066
-0.000903231
-5.6029e-05
-0.000942259
2.06589e-05
-0.000964523
9.782e-05
-0.000971887
0.000174444
-0.000966513
0.000249676
-0.000950377
0.000322812
-0.000925406
0.000393295
-0.000893446
-0.000856191
-0.000314681
0.000284122
-0.00033228
0.000299284
-0.000350755
0.000313599
-0.000369996
0.000325717
-0.00038976
0.00033372
-0.000409674
0.000335734
-0.000429206
0.000329567
-0.000447675
0.000313123
-0.00046425
0.000284281
-0.000477962
0.000241196
-0.000487731
0.000182354
-0.000492397
0.000106765
-0.00049076
1.41789e-05
-0.000481689
-9.41133e-05
-0.000464183
-0.000215771
-0.000437534
-0.000346476
-0.00040145
-0.00048017
-0.000356176
-0.000609684
-0.00030247
-0.000728181
-0.000241511
-0.000830201
-0.000174722
-0.000912575
-0.000103594
-0.000974359
-2.9561e-05
-0.00101629
4.60699e-05
-0.00104015
0.000122143
-0.00104796
0.000197662
-0.00104203
0.000271784
-0.0010245
0.000343816
-0.000997438
0.000413208
-0.000962838
-0.000922529
-0.000296993
0.00029964
-0.000313334
0.000315625
-0.00033049
0.000330756
-0.000348366
0.000343592
-0.000366738
0.000352091
-0.00038525
0.000354246
-0.000403397
0.000347713
-0.000420525
0.000330252
-0.000435833
0.000299589
-0.000448385
0.000253749
-0.000457135
0.000191104
-0.000460954
0.000110584
-0.000458673
1.18978e-05
-0.000449182
-0.000103605
-0.00043149
-0.000233462
-0.000404887
-0.000373079
-0.000369067
-0.00051599
-0.000324255
-0.000654497
-0.000271184
-0.000781251
-0.000211008
-0.000890377
-0.000145123
-0.00097846
-7.49953e-05
-0.00104449
-1.99732e-06
-0.00108929
7.24776e-05
-0.00111463
0.000147403
-0.00112289
0.000221761
-0.00111639
0.000294722
-0.00109746
0.000365602
-0.00106832
0.000433859
-0.00103109
-0.000987754
-0.000278433
0.000313928
-0.00029347
0.000330661
-0.000309258
0.000346544
-0.000325717
0.000360051
-0.000342641
0.000369016
-0.000359699
0.000371304
-0.00037641
0.000364424
-0.00039215
0.000345992
-0.00040615
0.000313588
-0.000417507
0.000265106
-0.000425211
0.000198808
-0.000428168
0.000113541
-0.000425237
8.96744e-06
-0.000415335
-0.000113507
-0.000397477
-0.00025132
-0.000370953
-0.000399604
-0.000335442
-0.000551501
-0.000291146
-0.000698793
-0.000238772
-0.000833625
-0.000179444
-0.000949705
-0.00011453
-0.00104337
-4.54679e-05
-0.00111355
2.63591e-05
-0.00116112
9.96909e-05
-0.00118796
0.000173413
-0.00119661
0.000246561
-0.00118954
0.000318315
-0.00116921
0.000388001
-0.001138
0.000455085
-0.00109818
-0.00105183
-0.000259087
0.000326954
-0.000272783
0.000344357
-0.000287163
0.000360925
-0.000302163
0.000375051
-0.000317597
0.00038445
-0.000333156
0.000386863
-0.00034839
0.000379658
-0.000362704
0.000360306
-0.000375361
0.000326246
-0.000385497
0.000275242
-0.000392136
0.000205447
-0.00039422
0.000115625
-0.000390639
5.38611e-06
-0.000380339
-0.000123807
-0.000362338
-0.000269321
-0.000335927
-0.000426015
-0.00030077
-0.000586658
-0.000257044
-0.00074252
-0.000205427
-0.000885242
-0.000147011
-0.00100812
-8.31343e-05
-0.00110725
-1.51971e-05
-0.00118149
5.54287e-05
-0.00123174
0.000127527
-0.00126006
0.000199996
-0.00126908
0.000271886
-0.00126143
0.000342393
-0.00123972
0.00041085
-0.00120646
0.00047673
-0.00116406
-0.00111474
-0.000239039
0.000338694
-0.000251367
0.000356685
-0.00026431
0.000373868
-0.000277818
0.000388559
-0.000291728
0.00039836
-0.000305756
0.000400892
-0.00031948
0.000393382
-0.000332338
0.000373164
-0.000343629
0.000337536
-0.000352524
0.000284137
-0.000358084
0.000211007
-0.000359293
0.000116833
-0.000355066
1.15975e-06
-0.000344382
-0.000134491
-0.000326261
-0.000287442
-0.000299998
-0.000452277
-0.00026524
-0.000621417
-0.000222136
-0.000785623
-0.000171336
-0.000936042
-0.000113895
-0.00106556
-5.11173e-05
-0.00117003
1.56271e-05
-0.00124823
8.50001e-05
-0.00130112
0.000155811
-0.00133087
0.000226979
-0.00134024
0.000297572
-0.00133202
0.000366796
-0.00130894
0.000433994
-0.00127366
0.000498643
-0.00122871
-0.00117644
-0.000218373
0.000349135
-0.000229317
0.000367629
-0.000240803
0.000385353
-0.000252797
0.000400554
-0.000265159
0.000410722
-0.000277631
0.000413364
-0.000289822
0.000405572
-0.000301203
0.000384545
-0.00031111
0.000347443
-0.000318752
0.000291779
-0.000323228
0.000215483
-0.000323551
0.000117156
-0.000318707
-3.68441e-06
-0.000307643
-0.000145555
-0.000289428
-0.000305658
-0.000263347
-0.000478357
-0.00022903
-0.000655734
-0.000186602
-0.000828052
-0.000136674
-0.000985969
-8.02693e-05
-0.00112197
-1.86469e-05
-0.00123165
4.68363e-05
-0.00131371
0.000114906
-0.00136919
0.000184381
-0.00140034
0.000254205
-0.00141007
0.000323463
-0.00140128
0.000391373
-0.00137685
0.000457285
-0.00133957
0.000520682
-0.0012921
-0.00123694
-0.00019717
0.000358273
-0.000206723
0.000377182
-0.000216741
0.000395372
-0.000227209
0.000411022
-0.000238009
0.000421521
-0.00024891
0.000424265
-0.000259554
0.000416216
-0.000269446
0.000394437
-0.000277959
0.000355956
-0.000284342
0.000298162
-0.000287732
0.000218873
-0.000287186
0.00011661
-0.000281714
-9.15576e-06
-0.000270297
-0.000156972
-0.000252012
-0.000323944
-0.000226147
-0.000504222
-0.000192313
-0.000689568
-0.000150607
-0.000869757
-0.000101608
-0.00103497
-4.62955e-05
-0.00117728
1.4108e-05
-0.00129205
7.82804e-05
-0.00137789
0.000144992
-0.0014359
0.000213084
-0.00146844
0.000281525
-0.00147851
0.000349414
-0.00146917
0.000415982
-0.00144342
0.000480586
-0.00140417
0.000542715
-0.00135423
-0.00129621
-0.000175505
0.000366114
-0.000183669
0.000385347
-0.000192221
0.000403923
-0.00020116
0.000419961
-0.000210394
0.000430755
-0.000219719
0.000433591
-0.000228809
0.000425306
-0.000237207
0.000402836
-0.000244324
0.000363073
-0.000249449
0.000303286
-0.000251758
0.000221183
-0.00025035
0.000115203
-0.000244264
-1.52418e-05
-0.000232509
-0.000168727
-0.000214177
-0.000342275
-0.000188559
-0.000529841
-0.000155246
-0.000722881
-0.00011431
-0.000910694
-6.62907e-05
-0.00108299
-1.21133e-05
-0.00123146
4.69907e-05
-0.00135116
0.000109811
-0.00144071
0.000175115
-0.0015012
0.000241781
-0.0015351
0.000308801
-0.00154553
0.000375292
-0.00153566
0.000440493
-0.00150862
0.000503771
-0.00146745
0.000564618
-0.00141508
-0.00135424
-0.000153449
0.000372673
-0.000160239
0.000392137
-0.000167333
0.000411018
-0.000174752
0.00042738
-0.000182424
0.000438427
-0.000190176
0.000441343
-0.000197716
0.000432845
-0.000204623
0.000409743
-0.000210348
0.000368798
-0.00021422
0.000307158
-0.000215457
0.00022242
-0.000213196
0.000112942
-0.00020651
-2.19277e-05
-0.000194435
-0.000180803
-0.00017608
-0.000360629
-0.000150736
-0.000555185
-0.00011798
-0.000755637
-7.7856e-05
-0.000950818
-3.08622e-05
-0.00112998
2.20995e-05
-0.00128442
7.98822e-05
-0.00140894
0.000141293
-0.00150212
0.000205143
-0.00156505
0.000270343
-0.0016003
0.000335909
-0.0016111
0.000400974
-0.00160073
0.000464788
-0.00157244
0.000526724
-0.00152939
0.000586279
-0.00147464
-0.00141103
-0.000131069
-0.000136506
0.000397574
-0.000142164
0.000416675
-0.000148078
0.000433294
-0.000154203
0.000444551
-0.000160395
0.000447535
-0.000166395
0.000438846
-0.000171822
0.000415169
-0.000176165
0.000373141
-0.000178795
0.000309789
-0.000178972
0.000222596
-0.000175871
0.000109841
-0.000168599
-2.9199e-05
-0.000156222
-0.00019318
-0.000137865
-0.000378986
-0.000112821
-0.000580229
-8.0654e-05
-0.000787804
-4.13788e-05
-0.000990093
4.5764e-06
-0.00117594
5.62414e-05
-0.00133608
0.000112651
-0.00146535
0.000172604
-0.00156207
0.000234958
-0.0016274
0.000298655
-0.001664
0.000362736
-0.00167518
0.00042635
-0.00166434
0.000488758
-0.00163484
0.00054934
-0.00158997
0.000607595
-0.00153289
-0.00146658
-0.000112539
0.000401691
-0.00011679
0.000420926
-0.000121227
0.000437731
-0.000125829
0.000449153
-0.000130481
0.000452188
-0.000134961
0.000443325
-0.000138924
0.000419133
-0.000141902
0.000376119
-0.000143306
0.000311193
-0.000142437
0.000221727
-0.000138511
0.000105915
-0.00013067
-3.70402e-05
-0.000118006
-0.000205844
-9.96654e-05
-0.000397327
-7.49443e-05
-0.00060495
-4.33934e-05
-0.000819355
-4.96137e-06
-0.00102853
3.97899e-05
-0.00122069
9.01969e-05
-0.00138649
0.000145183
-0.00152034
0.000203634
-0.00162052
0.000264451
-0.00168822
0.000326611
-0.00172616
0.000389179
-0.00173774
0.00045132
-0.00172648
0.000512307
-0.00169583
0.000571524
-0.00164919
0.000628473
-0.00158984
-0.00152089
-8.83997e-05
0.000404529
-9.12823e-05
0.000423809
-9.4278e-05
0.000440727
-9.73889e-05
0.000452264
-0.000100531
0.00045533
-0.000103516
0.00044631
-0.00010604
0.000421656
-0.000107674
0.000377753
-0.000107873
0.000311392
-0.000105977
0.000219831
-0.000101243
0.000101181
-9.28476e-05
-4.54359e-05
-7.99134e-05
-0.000218778
-6.16054e-05
-0.000415635
-3.72256e-05
-0.00062933
-6.2877e-06
-0.000850293
3.11474e-05
-0.00106596
7.47847e-05
-0.00126432
0.000123855
-0.00143556
0.000177374
-0.00157386
0.000234282
-0.00167743
0.000293524
-0.00174746
0.000354116
-0.00178675
0.000415146
-0.00179877
0.000475796
-0.00178713
0.000535347
-0.00175538
0.000593191
-0.00170703
0.000648832
-0.00164548
-0.00157395
-6.41407e-05
0.000406137
-6.57029e-05
0.000425371
-6.73021e-05
0.000442326
-6.89637e-05
0.000453926
-7.06332e-05
0.000457
-7.21576e-05
0.000447835
-7.3272e-05
0.000422771
-7.35899e-05
0.000378071
-7.26073e-05
0.000310409
-6.97067e-05
0.000216931
-6.4183e-05
9.56567e-05
-5.5249e-05
-5.43699e-05
-4.20584e-05
-0.000231969
-2.3795e-05
-0.000433898
3.54412e-07
-0.000653479
3.04628e-05
-0.000880401
6.69741e-05
-0.00110247
0.000109425
-0.00130678
0.000157118
-0.00148325
0.00020913
-0.00162587
0.000264456
-0.00173275
0.000322092
-0.0018051
0.000381087
-0.00184575
0.000440556
-0.00185824
0.000499698
-0.00184627
0.000557803
-0.00181349
0.000614268
-0.0017635
0.000668598
-0.00169981
-0.00162577
-3.9807e-05
0.000406574
-4.01052e-05
0.000425669
-4.03615e-05
0.000442582
-4.06233e-05
0.000454187
-4.08654e-05
0.000457242
-4.09701e-05
0.000447939
-4.07117e-05
0.000422512
-3.97455e-05
0.000377105
-3.76097e-05
0.000308274
-3.37281e-05
0.000213049
-2.74347e-05
8.93633e-05
-1.79777e-05
-6.38269e-05
-4.53212e-06
-0.000245414
1.36583e-05
-0.000452089
3.72958e-05
-0.000677117
6.68479e-05
-0.000909953
0.000102388
-0.00113801
0.000143618
-0.00134801
0.000189898
-0.00152953
0.000240365
-0.00167634
0.000294076
-0.00178646
0.000350074
-0.0018611
0.000407448
-0.00190312
0.000465337
-0.00191613
0.000522956
-0.00190389
0.000579606
-0.00187014
0.000634687
-0.00181858
0.000687709
-0.00175283
-0.00167636
-1.54347e-05
0.000405906
-1.45337e-05
0.000424768
-1.35089e-05
0.000441558
-1.24287e-05
0.000453107
-1.12965e-05
0.000456109
-1.00291e-05
0.000446672
-8.44025e-06
0.000420923
-6.22699e-06
0.000374891
-2.96984e-06
0.000305017
1.86773e-06
0.000208212
8.90815e-06
8.23229e-05
1.88684e-05
-7.37872e-05
3.25285e-05
-0.000259074
5.06534e-05
-0.000470214
7.39086e-05
-0.000700372
0.000102758
-0.000938802
0.000137301
-0.00117255
0.000177281
-0.00138799
0.000222113
-0.00157437
0.000271004
-0.00172523
0.000323067
-0.00183853
0.000377402
-0.00191543
0.000433132
-0.00195885
0.000489424
-0.00197242
0.00054551
-0.00195998
0.000600697
-0.00192533
0.000654393
-0.00187227
0.000706107
-0.00180455
-0.00172572
8.94849e-06
0.000404206
1.09768e-05
0.00042274
1.32135e-05
0.000439321
1.55703e-05
0.00045075
1.80168e-05
0.000453663
2.06018e-05
0.000444087
2.34727e-05
0.000418052
2.68908e-05
0.000371473
3.12335e-05
0.000300674
3.69943e-05
0.000202451
4.47597e-05
7.45574e-05
5.52073e-05
-8.42347e-05
6.9083e-05
-0.00027295
8.71246e-05
-0.000488255
0.00010998
-0.000723227
0.00013811
-0.000966933
0.000171634
-0.00120608
0.000210337
-0.00142669
0.000253693
-0.00161772
0.000300976
-0.00177251
0.000351366
-0.00188892
0.000404013
-0.00196808
0.000458081
-0.00201292
0.000512763
-0.00202711
0.000567305
-0.00201452
0.000621026
-0.00197905
0.000673336
-0.00192458
0.000723745
-0.00185496
-0.00177385
3.33251e-05
0.000401553
3.64012e-05
0.000419664
3.97728e-05
0.000435949
4.33334e-05
0.00044719
4.70267e-05
0.00044997
5.08683e-05
0.000440246
5.49673e-05
0.000413953
5.95437e-05
0.000366897
6.49327e-05
0.000295285
7.15865e-05
0.000195797
8.00516e-05
6.60924e-05
9.09678e-05
-9.5151e-05
0.000105045
-0.000287028
0.000122993
-0.000506203
0.000145438
-0.000745672
0.000172833
-0.000994328
0.000205319
-0.00123856
0.000242719
-0.00146409
0.000284572
-0.00165957
0.00033022
-0.00181816
0.000378912
-0.00193761
0.000429851
-0.00201902
0.000482242
-0.00206531
0.000535303
-0.00208017
0.000588296
-0.00206751
0.000640548
-0.0020313
0.000691473
-0.00197551
0.000740583
-0.00190407
-0.00182078
5.7683e-05
0.000398034
6.17215e-05
0.000415625
6.61445e-05
0.000431526
7.08295e-05
0.000442505
7.56959e-05
0.000445103
8.07272e-05
0.000435214
8.59952e-05
0.000408685
9.16786e-05
0.000361213
9.8071e-05
0.000288893
0.000105583
0.000188285
0.000114721
5.69545e-05
0.000126086
-0.000106516
0.000140352
-0.000301293
0.000158193
-0.000524044
0.000180216
-0.000767695
0.000206863
-0.00102098
0.00023829
-0.00126999
0.000274366
-0.00150017
0.00031469
-0.0016999
0.000358681
-0.00186215
0.000405653
-0.00198458
0.000454868
-0.00206824
0.00050557
-0.00211601
0.000557002
-0.0021316
0.000608442
-0.00211895
0.000659225
-0.00208208
0.000708769
-0.00202505
0.000756587
-0.00195188
-0.0018665
8.20202e-05
0.000393739
8.69298e-05
0.000410716
9.23148e-05
0.000426141
9.80384e-05
0.000436781
0.000103998
0.000439144
0.000110146
0.000429066
0.000116518
0.000402313
0.000123253
0.000354479
0.000130602
0.000281544
0.000138935
0.000179952
0.000148716
4.71729e-05
0.000160509
-0.000118309
0.000174946
-0.00031573
0.00019267
-0.000541768
0.000214258
-0.000789283
0.000240142
-0.00104686
0.000270493
-0.00130034
0.000305222
-0.00153489
0.000343995
-0.00173867
0.000386307
-0.00190446
0.000431543
-0.00202982
0.000479022
-0.00211571
0.000528025
-0.00216502
0.000577824
-0.0021814
0.00062771
-0.00216884
0.000677026
-0.0021314
0.000725193
-0.00207322
0.000771727
-0.00199842
-0.00191102
0.000106342
0.000388764
0.000112026
0.000405031
0.000118278
0.000419889
0.000124949
0.00043011
0.000131916
0.000432177
0.000139103
0.000421879
0.00014651
0.000394906
0.000154236
0.000346753
0.000162491
0.000273289
0.000171603
0.00017084
0.000181996
3.67795e-05
0.000194192
-0.000130504
0.000208784
-0.000330322
0.000226375
-0.000559359
0.000247514
-0.000810422
0.000272619
-0.00107196
0.000301875
-0.0013296
0.000335237
-0.00156826
0.000372439
-0.00177587
0.000413054
-0.00194507
0.00045654
-0.0020733
0.000502273
-0.00216145
0.000549573
-0.00221232
0.000597737
-0.00222956
0.000646071
-0.00221717
0.000693924
-0.00217925
0.000740722
-0.00212002
0.000785981
-0.00204368
-0.00195437
0.000130659
0.000383207
0.000137018
0.000398672
0.000144037
0.00041287
0.000151559
0.000422588
0.000159442
0.000424294
0.000167584
0.000413737
0.000175951
0.000386539
0.000184604
0.0003381
0.00019371
0.000264182
0.000203557
0.000160993
0.000214528
2.58092e-05
0.0002271
-0.000143077
0.000241825
-0.000345047
0.000259267
-0.000576801
0.000279942
-0.000831096
0.00030425
-0.00109627
0.000332391
-0.00135774
0.000364366
-0.00160023
0.000399979
-0.00181149
0.000438883
-0.00198398
0.000480609
-0.00211503
0.000524589
-0.00220543
0.000570184
-0.00225791
0.000616715
-0.00227609
0.0006635
-0.00226396
0.000709897
-0.00222565
0.000755335
-0.00216545
0.000799331
-0.00208767
0.000841509
-0.00199655
-0.00189607
0.000154989
0.00037717
0.000161918
0.000391742
0.000169602
0.000405187
0.000177874
0.000414316
0.000186578
0.00041559
0.000195587
0.000404728
0.000204835
0.000377291
0.000214344
0.000328591
0.000224244
0.000254282
0.000234777
0.00015046
0.000246285
1.43014e-05
0.000259206
-0.000155998
0.000274041
-0.000359882
0.000291312
-0.000594073
0.000311502
-0.000851286
0.000334994
-0.00111976
0.000362001
-0.00138475
0.000392568
-0.0016308
0.000426576
-0.0018455
0.000463756
-0.00202116
0.000503715
-0.00215499
0.000545941
-0.00224765
0.000589833
-0.0023018
0.000634735
-0.00232099
0.000679978
-0.0023092
0.000724928
-0.0022706
0.000769017
-0.00220954
0.000811762
-0.00213042
0.000852787
-0.00203757
-0.00193509
0.000179353
0.000370757
0.000186748
0.000384348
0.000194989
0.000396946
0.000203906
0.000405398
0.000213331
0.000406165
0.000223115
0.000394945
0.00023316
0.000367245
0.000243454
0.000318297
0.000254083
0.000243653
0.000265252
0.000139291
0.000277254
2.29885e-06
0.000290488
-0.000169232
0.000305404
-0.000374798
0.000322482
-0.00061115
0.000342164
-0.000870969
0.000364816
-0.00114242
0.000390666
-0.0014106
0.000419808
-0.00165994
0.000452195
-0.00187788
0.000487644
-0.00205661
0.000525832
-0.00219318
0.000566305
-0.00228813
0.000608499
-0.002344
0.000651778
-0.00236427
0.000695489
-0.00235291
0.000739004
-0.00231411
0.000781755
-0.00225229
0.000823265
-0.00217193
0.000863153
-0.00207746
-0.00197307
0.000203779
0.000364074
0.00021153
0.000376597
0.000220219
0.000388257
0.000229676
0.000395942
0.000239719
0.000396122
0.00025018
0.000384484
0.000260935
0.00035649
0.000271935
0.000307297
0.000283228
0.00023236
0.000294973
0.000127546
0.000307429
-1.01577e-05
0.000320934
-0.000182736
0.000335898
-0.000389762
0.000352751
-0.000628003
0.000371898
-0.000890115
0.000393684
-0.0011642
0.000418354
-0.00143527
0.000446051
-0.00168764
0.000476805
-0.00190864
0.000510516
-0.00209032
0.000546935
-0.0022296
0.000585661
-0.00232685
0.000626164
-0.0023845
0.000667832
-0.00240594
0.000710022
-0.0023951
0.000752113
-0.0023562
0.000793543
-0.00229372
0.000833833
-0.00221222
0.000872601
-0.00211623
-0.00201003
0.000228292
0.000357227
0.000236291
0.000368598
0.000245319
0.000379229
0.000255205
0.000386055
0.000265761
0.000385566
0.0002768
0.000373444
0.000288174
0.000345116
0.000299799
0.000295672
0.000311684
0.000220476
0.000323947
0.000115283
0.000336799
-2.30106e-05
0.000350533
-0.00019647
0.000365507
-0.000404736
0.0003821
-0.000644597
0.000400679
-0.000908694
0.000421571
-0.0011851
0.000445034
-0.00145873
0.000471268
-0.00171387
0.00050038
-0.00193775
0.000532351
-0.00212229
0.000567004
-0.00226425
0.000603989
-0.00236384
0.000642813
-0.00242332
0.000682883
-0.00244601
0.000723567
-0.00243579
0.000764251
-0.00239689
0.000804375
-0.00233385
0.000843462
-0.00225131
0.000881129
-0.0021539
-0.00204599
0.000252923
0.00026106
0.000360461
0.000270316
0.000369973
0.000280521
0.00037585
0.000291482
0.000374605
0.000302998
0.000361928
0.000314896
0.000333218
0.000327061
0.000283507
0.000339462
0.000208075
0.000352178
0.000102567
0.000365371
-3.6203e-05
0.000379282
-0.000210381
0.00039422
-0.000419673
0.000410513
-0.00066089
0.000428486
-0.000926667
0.000448449
-0.00120506
0.000470681
-0.00148096
0.000495434
-0.00173862
0.000522894
-0.00196521
0.000553126
-0.00215252
0.00058602
-0.00229714
0.000621278
-0.00239909
0.000658437
-0.00246048
0.000696924
-0.0024845
0.000736118
-0.00247498
0.000775412
-0.00243618
0.000814248
-0.00237268
0.000852152
-0.00228921
0.000888737
-0.00219048
-0.00208097
0.000285866
0.000352293
0.00029524
0.000360599
0.000305655
0.000365435
0.000316912
0.000363348
0.000328801
0.000350039
0.000341125
0.000320894
0.00035374
0.000270892
0.000366578
0.000195238
0.000379676
8.94692e-05
0.000393145
-4.9673e-05
0.000407179
-0.000224415
0.00042203
-0.000434525
0.000437976
-0.000676836
0.0004553
-0.000943991
0.000474297
-0.00122406
0.000495268
-0.00150193
0.000518523
-0.00176188
0.000544327
-0.00199101
0.000572824
-0.00218102
0.000603971
-0.00232829
0.000637516
-0.00243264
0.000673027
-0.00249599
0.000709949
-0.00252142
0.000747673
-0.00251271
0.000785596
-0.0024741
0.000823164
-0.00241025
0.000859905
-0.00232595
0.00089543
-0.00222601
-0.00211499
0.000310738
0.000344201
0.00032012
0.000351217
0.000330634
0.000354922
0.00034208
0.000351902
0.000354235
0.000337884
0.000366887
0.000308242
0.000379861
0.000257918
0.000393051
0.000182048
0.000406453
7.60669e-05
0.000420132
-6.33521e-05
0.000434225
-0.000238508
0.000448932
-0.000449231
0.000464475
-0.000692379
0.000481101
-0.000960618
0.000499092
-0.00124205
0.000518774
-0.00152161
0.000540516
-0.00178362
0.000564661
-0.00201516
0.00059143
-0.00220779
0.000620844
-0.0023577
0.000652695
-0.00246449
0.000686579
-0.00252988
0.000721957
-0.0025568
0.000758231
-0.00254898
0.000794803
-0.00251067
0.000831126
-0.00244657
0.000866724
-0.00236155
0.000901212
-0.00226049
-0.00214807
0.000335701
0.00033629
0.000344985
0.000341933
0.000355489
0.000344418
0.000367014
0.000340377
0.000379331
0.000325567
0.00039221
0.000295363
0.000405447
0.00024468
0.000418901
0.000168593
0.000432527
6.24411e-05
0.00044634
-7.71653e-05
0.000460423