/*--------------------------------*- C++ -*----------------------------------*\
  =========                 |
  \\      /  F ield         | OpenFOAM: The Open Source CFD Toolbox
   \\    /   O peration     | Website:  https://openfoam.org
    \\  /    A nd           | Version:  7
     \\/     M anipulation  |
\*---------------------------------------------------------------------------*/
FoamFile
{
    version     2.0;
    format      ascii;
    class       surfaceScalarField;
    location    "140";
    object      phi;
}
// * * * * * * * * * * * * * * * * * * * * * * * * * * * * * * * * * * * * * //

dimensions      [0 3 -1 0 0 0 0];

internalField   nonuniform List<scalar> 
13997
(
-1.74222e-05
-0.000137491
0.000143429
-2.4393e-05
-0.000146865
0.000153836
-3.23193e-05
-0.000150426
0.000158352
-4.11361e-05
-0.000149036
0.000157852
-5.07906e-05
-0.000143533
0.000153188
-6.1242e-05
-0.000134686
0.000145137
-7.246e-05
-0.000123154
0.000134372
-8.4424e-05
-0.000109463
0.000121427
-9.71217e-05
-9.39829e-05
0.000106681
-0.000110549
-7.69232e-05
9.03502e-05
-0.000124708
-5.83324e-05
7.2492e-05
-0.000139612
-3.81094e-05
5.30133e-05
-0.000155281
-1.60195e-05
3.16886e-05
-0.000171747
8.28752e-06
8.17819e-06
-0.000189052
3.52606e-05
-1.79559e-05
-0.000207249
6.54343e-05
-4.72369e-05
-0.000226402
9.94196e-05
-8.02665e-05
-0.000246581
0.000137901
-0.000117723
-0.000267856
0.000181633
-0.000160357
-0.000290289
0.000231419
-0.000208987
0.000288216
-0.000264572
-0.000313933
-1.76025e-05
-0.000131518
-2.45961e-05
-0.000139872
-3.25289e-05
-0.000142493
-4.13338e-05
-0.000140231
-5.09582e-05
-0.000133909
-6.13618e-05
-0.000124283
-7.25159e-05
-0.000112
-8.44015e-05
-9.75772e-05
-9.70075e-05
-8.13768e-05
-0.00011033
-6.36003e-05
-0.000124373
-4.42895e-05
-0.000139146
-2.33364e-05
-0.000154667
-4.98475e-07
-0.000170963
2.45832e-05
-0.000188069
5.23668e-05
-0.000206031
8.33958e-05
-0.0002249
0.000118289
-0.000244733
0.000157735
-0.000265587
0.000202486
-0.000287503
0.000253336
0.000311227
-0.000310515
-1.7704e-05
-0.000125533
-2.46909e-05
-0.000132885
-3.25963e-05
-0.000134587
-4.13514e-05
-0.000131475
-5.09029e-05
-0.000124358
-6.12108e-05
-0.000113975
-7.2247e-05
-0.000100964
-8.39933e-05
-8.5831e-05
-9.6439e-05
-6.8931e-05
-0.00010958
-5.04592e-05
-0.000123418
-3.04514e-05
-0.000137961
-8.79404e-06
-0.000153221
1.47615e-05
-0.000169218
4.0581e-05
-0.000185981
6.91296e-05
-0.000203543
0.000100958
-0.000221944
0.00013669
-0.000241226
0.000177016
-0.000261427
0.000222688
-0.000282572
0.000274481
0.000333325
-0.00030467
-1.77307e-05
-0.000119563
-2.46829e-05
-0.000125933
-3.25289e-05
-0.000126741
-4.11981e-05
-0.000122806
-5.0636e-05
-0.00011492
-6.08023e-05
-0.000103808
-7.16689e-05
-9.00973e-05
-8.32172e-05
-7.42827e-05
-9.54362e-05
-5.67121e-05
-0.00010832
-3.75751e-05
-0.000121868
-1.69033e-05
-0.000136083
5.42108e-06
-0.000150973
2.9651e-05
-0.000166549
5.61568e-05
-0.000182828
8.5409e-05
-0.000199833
0.000117963
-0.000217588
0.000154445
-0.00023612
0.000195548
-0.000255448
0.000242016
-0.000275577
0.00029461
0.000354239
-0.000296492
-1.76873e-05
-0.000113628
-2.45785e-05
-0.000119041
-3.23353e-05
-0.000118985
-4.08848e-05
-0.000114257
-5.01708e-05
-0.000105634
-6.01521e-05
-9.3827e-05
-7.07997e-05
-7.94496e-05
-8.20942e-05
-6.29882e-05
-9.40228e-05
-4.47834e-05
-0.000106578
-2.50203e-05
-0.000119754
-3.72721e-06
-0.000133549
1.9216e-05
-0.000147963
4.40647e-05
-0.000162998
7.11918e-05
-0.000178659
0.000101071
-0.000194956
0.000134259
-0.000211897
0.000171386
-0.000229489
0.00021314
-0.000247735
0.000260261
-0.000266618
0.000313494
0.00037372
-0.000286099
-1.75792e-05
-0.00010775
-2.43853e-05
-0.000112235
-3.20253e-05
-0.000111345
-4.04235e-05
-0.000105859
-4.95219e-05
-9.65353e-05
-5.92777e-05
-8.40713e-05
-6.96602e-05
-6.90671e-05
-8.06482e-05
-5.20002e-05
-9.22266e-05
-3.32051e-05
-0.000104384
-1.2863e-05
-0.00011711
8.99921e-06
-0.000130397
3.25026e-05
-0.000144235
5.79028e-05
-0.000158616
8.55732e-05
-0.000173534
0.000115988
-0.000188979
0.000149705
-0.000204946
0.000187353
-0.000221423
0.000229617
-0.000238391
0.00027723
-0.000255815
0.000330917
0.000391533
-0.000273628
-1.74123e-05
-0.000101949
-2.41114e-05
-0.000105536
-3.16094e-05
-0.000103847
-3.98278e-05
-9.76401e-05
-4.87061e-05
-8.7657e-05
-5.8199e-05
-7.45784e-05
-6.82737e-05
-5.89924e-05
-7.89063e-05
-4.13676e-05
-9.00784e-05
-2.2033e-05
-0.000101774
-1.16734e-06
-0.000113978
2.1203e-05
-0.000126673
4.5198e-05
-0.000139842
7.10715e-05
-0.000153464
9.91953e-05
-0.000167518
0.000130042
-0.00018198
0.000164168
-0.000196826
0.000202198
-0.000212023
0.000244815
-0.000227534
0.00029274
-0.000243301
0.000346684
0.000407468
-0.000259235
-1.71931e-05
-9.62392e-05
-2.37657e-05
-9.89636e-05
-3.10994e-05
-9.65129e-05
-3.91124e-05
-8.96271e-05
-4.77411e-05
-7.90283e-05
-5.69375e-05
-6.5382e-05
-6.66655e-05
-4.92643e-05
-7.6898e-05
-3.11351e-05
-8.76123e-05
-1.13187e-05
-9.87874e-05
1.00078e-05
-0.000110401
3.28168e-05
-0.000122429
5.72256e-05
-0.000134841
8.34841e-05
-0.000147606
0.00011196
-0.000160688
0.000143123
-0.000174044
0.000177525
-0.000187633
0.000215786
-0.000201401
0.000258583
-0.000215291
0.00030663
-0.000229226
0.000360619
0.000421334
-0.000243092
-1.69284e-05
-9.06369e-05
-2.33577e-05
-9.25344e-05
-3.05077e-05
-8.93629e-05
-3.8293e-05
-8.18418e-05
-4.66464e-05
-7.06749e-05
-5.55163e-05
-5.65121e-05
-6.48631e-05
-3.99175e-05
-7.46553e-05
-2.1343e-05
-8.48654e-05
-1.10862e-06
-9.54664e-05
2.06088e-05
-0.000106429
4.37794e-05
-0.000117719
6.85155e-05
-0.000129296
9.50616e-05
-0.000141116
0.000123779
-0.000153124
0.000155132
-0.000165265
0.000189665
-0.000177474
0.000227995
-0.000189681
0.00027079
-0.000201804
0.000318754
-0.00021375
0.000372564
0.000432968
-0.000225385
-1.66256e-05
-8.51538e-05
-2.28974e-05
-8.62625e-05
-2.98474e-05
-8.24129e-05
-3.7386e-05
-7.43032e-05
-4.54422e-05
-6.26187e-05
-5.396e-05
-4.79943e-05
-6.28955e-05
-3.09821e-05
-7.22121e-05
-1.20263e-05
-8.18771e-05
8.55629e-06
-9.18566e-05
3.05883e-05
-0.000102113
5.4036e-05
-0.000112603
7.90055e-05
-0.000123275
0.000105733
-0.000134069
0.000134573
-0.000144917
0.00016598
-0.000155743
0.000200492
-0.000166465
0.000238717
-0.000176992
0.000281317
-0.000187223
0.000328985
-0.000197047
0.000382388
0.000442232
-0.00020631
-1.62918e-05
-7.98001e-05
-2.2395e-05
-8.01593e-05
-2.91319e-05
-7.5676e-05
-3.64087e-05
-6.70264e-05
-4.41496e-05
-5.48778e-05
-5.2294e-05
-3.98498e-05
-6.07929e-05
-2.24832e-05
-6.96042e-05
-3.21492e-06
-7.86889e-05
1.76409e-05
-8.80059e-05
3.99054e-05
-9.75092e-05
6.35394e-05
-0.000107145
8.86411e-05
-0.000116849
0.000115438
-0.000126548
0.000144272
-0.000136158
0.000175589
-0.000145584
0.000209918
-0.000154726
0.000247859
-0.000163473
0.000290063
-0.000171706
0.000337218
-0.000179296
0.000389978
0.000449011
-0.000186075
-1.5935e-05
-7.45835e-05
-2.18608e-05
-7.42336e-05
-2.83751e-05
-6.91618e-05
-3.53785e-05
-6.00229e-05
-4.27904e-05
-4.7466e-05
-5.05447e-05
-3.20955e-05
-5.85867e-05
-1.44412e-05
-6.68685e-05
5.06682e-06
-7.53438e-05
2.61163e-05
-8.39642e-05
4.85258e-05
-9.26745e-05
7.22496e-05
-0.00010141
9.73765e-05
-0.000110094
0.000124122
-0.00011864
0.000152818
-0.000126946
0.000183895
-0.000134901
0.000217874
-0.000142385
0.000255343
-0.000149268
0.000296947
-0.000155415
0.000343366
-0.000160683
0.000395245
0.000453218
-0.000164891
-1.55632e-05
-2.13059e-05
-6.84908e-05
-2.7591e-05
-6.28767e-05
-3.43134e-05
-5.33005e-05
-4.13865e-05
-4.03929e-05
-4.87386e-05
-2.47434e-05
-5.63088e-05
-6.87094e-06
-6.40424e-05
1.28005e-05
-7.18861e-05
3.396e-05
-7.97829e-05
5.64225e-05
-8.76682e-05
8.01349e-05
-9.54663e-05
0.000105175
-0.000103089
0.000131745
-0.000110432
0.000160161
-0.000117381
0.000190844
-0.000123807
0.000224299
-0.00012957
0.000261106
-0.000134524
0.000301901
-0.000138519
0.00034736
-0.000141399
0.000398125
0.000454792
-0.000142973
-2.07413e-05
-6.29337e-05
-2.6794e-05
-5.6824e-05
-3.32311e-05
-4.68634e-05
-3.996e-05
-3.36641e-05
-4.69025e-05
-1.78009e-05
-5.39911e-05
2.17718e-07
-6.11641e-05
1.99735e-05
-6.83602e-05
4.11561e-05
-7.55138e-05
6.35762e-05
-8.25506e-05
8.71716e-05
-8.93836e-05
0.000112008
-9.59115e-05
0.000138272
-0.000102017
0.000166267
-0.000107568
0.000196395
-0.000112419
0.00022915
-0.000116415
0.000265102
-0.000119392
0.000304878
-0.000121186
0.000349155
-0.000121636
0.000398575
0.000453695
-0.000120539
-2.01778e-05
-5.75624e-05
-2.5998e-05
-5.10037e-05
-3.21493e-05
-4.07121e-05
-3.85324e-05
-2.7281e-05
-4.50626e-05
-1.12707e-05
-5.16653e-05
6.82041e-06
-5.82711e-05
2.65792e-05
-6.48105e-05
4.76955e-05
-7.12089e-05
6.99746e-05
-7.7382e-05
9.33446e-05
-8.32314e-05
0.000117857
-8.8643e-05
0.000143684
-9.34853e-05
0.000171109
-9.76104e-05
0.00020052
-0.000100856
0.000232396
-0.000103052
0.000267297
-0.000104019
0.000305846
-0.000103586
0.000348721
-0.000101585
0.000396575
0.000449914
-9.78044e-05
-1.96256e-05
-5.23733e-05
-2.52163e-05
-4.5413e-05
-3.10846e-05
-3.48438e-05
-3.71246e-05
-2.1241e-05
-4.32444e-05
-5.15091e-06
-4.9362e-05
1.2938e-05
-5.54e-05
3.26172e-05
-6.12804e-05
5.35759e-05
-6.69193e-05
7.56136e-05
-7.2222e-05
9.86473e-05
-7.70789e-05
0.000122714
-8.13628e-05
0.000147968
-8.49282e-05
0.000174675
-8.76116e-05
0.000203203
-8.92355e-05
0.00023402
-8.96131e-05
0.000267674
-8.85559e-05
0.000304789
-8.58835e-05
0.000346049
-8.1434e-05
0.000392125
0.000443462
-7.49821e-05
-1.90938e-05
-4.73608e-05
-2.44612e-05
-4.00456e-05
-3.0053e-05
-2.92521e-05
-3.57563e-05
-1.55377e-05
-4.14722e-05
5.64951e-07
-4.71107e-05
1.85765e-05
-5.25862e-05
3.80927e-05
-5.78119e-05
5.88016e-05
-6.26944e-05
8.04961e-05
-6.71286e-05
0.000103082
-7.09934e-05
0.000126579
-7.41488e-05
0.000151123
-7.64352e-05
0.000176961
-7.76739e-05
0.000204442
-7.76721e-05
0.000234018
-7.62287e-05
0.000266231
-7.31454e-05
0.000301706
-6.82405e-05
0.000341144
-6.13658e-05
0.000385251
0.000434379
-5.22828e-05
-1.85905e-05
-4.25172e-05
-2.37436e-05
-3.48925e-05
-2.90686e-05
-2.39271e-05
-3.44457e-05
-1.01606e-05
-3.97683e-05
5.88759e-06
-4.49386e-05
2.37468e-05
-4.98626e-05
4.30167e-05
-5.44444e-05
6.33835e-05
-5.85811e-05
8.46328e-05
-6.2157e-05
0.000106657
-6.50395e-05
0.000129461
-6.70759e-05
0.00015316
-6.80925e-05
0.000177977
-6.78959e-05
0.000204246
-6.62775e-05
0.0002324
-6.30231e-05
0.000262977
-5.79258e-05
0.000296608
-5.08071e-05
0.000334025
-4.15576e-05
0.000376001
0.000422753
-2.99318e-05
-1.81232e-05
-3.78325e-05
-2.30733e-05
-2.99423e-05
-2.81444e-05
-1.8856e-05
-3.32091e-05
-5.0959e-06
-3.81532e-05
1.08317e-05
-4.28708e-05
2.84645e-05
-4.72594e-05
4.74053e-05
-5.12142e-05
6.73382e-05
-5.46225e-05
8.80411e-05
-5.73583e-05
0.000109393
-5.92773e-05
0.00013138
-6.02144e-05
0.000154097
-5.99818e-05
0.000177745
-5.83708e-05
0.000202635
-5.51578e-05
0.000229187
-5.01145e-05
0.000257933
-4.30252e-05
0.000289519
-3.37087e-05
0.000324709
-2.21416e-05
0.000364434
0.00040902
-8.40904e-06
-1.76986e-05
-2.24592e-05
-2.51817e-05
-2.72916e-05
-1.40237e-05
-3.20606e-05
-3.26847e-07
-3.66445e-05
1.54155e-05
-4.09291e-05
3.27491e-05
-4.48034e-05
5.12796e-05
-4.81536e-05
7.06885e-05
-5.08575e-05
9.0745e-05
-5.27787e-05
0.000111314
-5.37616e-05
0.000132363
-5.36285e-05
0.000153964
-5.21775e-05
0.000176294
-4.9185e-05
0.000199642
-4.44115e-05
0.000224413
-3.76141e-05
0.000251136
-2.85671e-05
0.000280472
-1.70631e-05
0.000313205
-2.8024e-06
0.000350173
0.000392848
1.33703e-05
-2.19087e-05
-2.05955e-05
-2.65196e-05
-9.41284e-06
-3.10122e-05
4.16577e-06
-3.52568e-05
1.96602e-05
-3.91315e-05
3.66238e-05
-4.25167e-05
5.46648e-05
-4.52898e-05
7.34615e-05
-4.73191e-05
9.27742e-05
-4.84579e-05
0.000112453
-4.85398e-05
0.000132445
-4.73744e-05
0.000152798
-4.47459e-05
0.000173665
-4.04154e-05
0.000195312
-3.41273e-05
0.000218125
-2.56236e-05
0.000242632
-1.4668e-05
0.000269516
-1.08892e-06
0.000299626
1.51474e-05
0.000333937
0.000373835
3.41605e-05
-2.14272e-05
-1.61677e-05
-2.58353e-05
-5.00466e-06
-3.00726e-05
8.40302e-06
-3.40015e-05
2.35892e-05
-3.74923e-05
4.01145e-05
-4.0417e-05
5.75895e-05
-4.26444e-05
7.56889e-05
-4.40335e-05
9.41634e-05
-4.44281e-05
0.000112848
-4.36506e-05
0.000131668
-4.14984e-05
0.000150646
-3.7742e-05
0.000169909
-3.21267e-05
0.000189696
-2.43801e-05
0.000210378
-1.42282e-05
0.00023248
-1.42319e-06
0.000256711
1.42105e-05
0.000283992
3.27002e-05
0.000315448
0.000352515
5.40195e-05
-2.10184e-05
-1.1881e-05
-2.52432e-05
-7.79845e-07
-2.92475e-05
1.24073e-05
-3.28858e-05
2.72275e-05
-3.60205e-05
4.32492e-05
-3.85158e-05
6.00848e-05
-4.0232e-05
7.74051e-05
-4.10194e-05
9.49508e-05
-4.0712e-05
0.00011254
-3.9122e-05
0.000130078
-3.60349e-05
0.000147559
-3.12072e-05
0.000165081
-2.43684e-05
0.000182857
-1.52282e-05
0.000201238
-3.49447e-06
0.000220747
1.10941e-05
0.000242123
2.87148e-05
0.000266371
4.93775e-05
0.000294785
0.00032897
7.29223e-05
-2.06834e-05
-2.4745e-05
3.28176e-06
-2.85391e-05
1.62014e-05
-3.19126e-05
3.06011e-05
-3.47204e-05
4.60569e-05
-3.68187e-05
6.21831e-05
-3.806e-05
7.86464e-05
-3.82862e-05
9.51769e-05
-3.73223e-05
0.000111576
-3.49703e-05
0.000127726
-3.10044e-05
0.000143593
-2.51673e-05
0.000159244
-1.71722e-05
0.000174862
-6.70993e-06
0.000190776
6.53159e-06
0.000207505
2.28312e-05
0.000225823
4.23703e-05
0.000246832
6.5134e-05
0.000272021
0.000303269
9.08353e-05
-2.43393e-05
7.19995e-06
-2.79459e-05
1.9808e-05
-3.10804e-05
3.37355e-05
-3.35902e-05
4.85667e-05
-3.53243e-05
6.39172e-05
-3.61275e-05
7.94496e-05
-3.58337e-05
9.48832e-05
-3.42596e-05
0.000110002
-3.11977e-05
0.000124664
-2.6411e-05
0.000138806
-1.96291e-05
0.000152462
-1.05484e-05
0.000165782
1.16031e-06
0.000179067
1.58321e-05
0.000192833
3.37668e-05
0.000207888
5.51547e-05
0.000225444
7.99576e-05
0.000247218
0.000275461
0.000107765
-2.40217e-05
1.09932e-05
-2.74626e-05
2.32489e-05
-3.03826e-05
3.66556e-05
-3.26223e-05
5.08064e-05
-3.40237e-05
6.53186e-05
-3.44244e-05
7.98503e-05
-3.36509e-05
9.41097e-05
-3.15119e-05
0.000107863
-2.77911e-05
0.000120943
-2.22412e-05
0.000133256
-1.45786e-05
0.0001448
-4.48302e-06
0.000155686
8.39607e-06
0.000166188
2.44196e-05
0.00017681
4.39138e-05
0.000188394
6.70848e-05
0.000202273
9.38763e-05
0.000220427
0.000245575
0.000123763
-2.3785e-05
1.46788e-05
-2.70794e-05
2.65432e-05
-2.98076e-05
3.93838e-05
-3.18028e-05
5.28017e-05
-3.29005e-05
6.64163e-05
-3.29315e-05
7.98812e-05
-3.17152e-05
9.28935e-05
-2.90532e-05
0.000105201
-2.4721e-05
0.000116611
-1.84613e-05
0.000126997
-9.97817e-06
0.000136317
1.06528e-06
0.000144643
1.50422e-05
0.000152211
3.23424e-05
0.00015951
5.33247e-05
0.000167412
7.82205e-05
0.000177378
0.000106965
0.000191683
0.000213614
0.000138925
-2.36181e-05
-2.67831e-05
2.97083e-05
-2.93387e-05
4.19394e-05
-3.11115e-05
5.45745e-05
-3.19304e-05
6.72352e-05
-3.16196e-05
7.95705e-05
-2.99924e-05
9.12663e-05
-2.68432e-05
0.000102052
-2.19401e-05
0.000111708
-1.50167e-05
0.000120073
-5.76527e-06
0.000127065
6.16753e-06
0.00013271
2.11782e-05
0.000137201
3.96883e-05
0.000141
6.20959e-05
0.000145004
8.8669e-05
0.000150804
0.000119348
0.000161004
0.000179556
0.000153406
-2.6556e-05
3.27571e-05
-2.89542e-05
4.43376e-05
-3.05217e-05
5.6142e-05
-3.10809e-05
6.77945e-05
-3.04501e-05
7.89396e-05
-2.8436e-05
8.92522e-05
-2.48267e-05
9.84428e-05
-1.93833e-05
0.000106264
-1.1831e-05
0.000112521
-1.85094e-06
0.000117085
1.09261e-05
0.000119933
2.69202e-05
0.000121206
4.65872e-05
0.000121333
7.0371e-05
0.000121221
9.85889e-05
0.000122587
0.000131204
0.000128389
0.000143345
0.000167415
-2.63767e-05
3.56982e-05
-2.86274e-05
4.65883e-05
-3.00005e-05
5.75151e-05
-3.03122e-05
6.81062e-05
-2.93744e-05
7.80018e-05
-2.69878e-05
8.68655e-05
-2.29341e-05
9.43891e-05
-1.69676e-05
0.000100298
-8.80579e-06
0.000104359
1.88036e-06
0.000106399
1.54753e-05
0.000106338
3.24223e-05
0.000104259
5.3213e-05
0.000100542
7.8343e-05
9.60905e-05
0.000108192
9.27376e-05
0.000142768
9.3813e-05
0.000104893
0.00018122
-2.62205e-05
3.85352e-05
-2.8327e-05
4.86948e-05
-2.95094e-05
5.86975e-05
-2.9577e-05
6.81737e-05
-2.83352e-05
7.676e-05
-2.55782e-05
8.41086e-05
-2.10815e-05
8.98923e-05
-1.45927e-05
9.38091e-05
-5.82174e-06
9.55883e-05
5.5699e-06
9.50074e-05
1.99806e-05
9.19272e-05
3.78758e-05
8.63642e-05
5.97831e-05
7.86346e-05
8.62542e-05
6.96195e-05
0.000117744
6.12481e-05
0.000154328
5.72285e-05
6.40801e-05
0.000195141
-2.60589e-05
-2.80177e-05
5.06536e-05
-2.90045e-05
5.96843e-05
-2.88214e-05
6.79906e-05
-2.72667e-05
7.52054e-05
-2.41277e-05
8.09696e-05
-1.91729e-05
8.49375e-05
-1.21428e-05
8.6779e-05
-2.74026e-06
8.61857e-05
9.38241e-06
8.28848e-05
2.4636e-05
7.66735e-05
4.35064e-05
6.74939e-05
6.65556e-05
5.55854e-05
9.43931e-05
4.1782e-05
0.000127559
2.80818e-05
0.000166225
1.85632e-05
2.07556e-05
0.000209549
-2.76604e-05
5.24528e-05
-2.84375e-05
6.04613e-05
-2.79859e-05
6.75391e-05
-2.60963e-05
7.33157e-05
-2.25478e-05
7.74211e-05
-1.71011e-05
7.94908e-05
-9.48908e-06
7.9167e-05
5.93452e-07
7.61031e-05
1.35026e-05
6.99757e-05
2.96602e-05
6.05159e-05
4.95695e-05
4.75846e-05
7.38238e-05
3.1331e-05
0.000103089
1.25168e-05
0.000137999
-6.82779e-06
0.00017884
-2.22786e-05
-2.52562e-05
0.000224852
-2.7214e-05
5.4072e-05
-2.77566e-05
6.10038e-05
-2.70069e-05
6.67894e-05
-2.47459e-05
7.10547e-05
-2.07435e-05
7.34188e-05
-1.47511e-05
7.34983e-05
-6.49234e-06
7.09083e-05
4.34645e-06
6.52644e-05
1.81299e-05
5.61922e-05
3.52896e-05
4.33563e-05
5.63425e-05
2.65317e-05
8.19077e-05
5.76582e-06
0.000112702
-1.82775e-05
0.000149454
-4.35799e-05
0.00019259
-6.54142e-05
-7.41474e-05
0.000241481
-2.66351e-05
-2.69079e-05
6.12767e-05
-2.58176e-05
6.56991e-05
-2.31338e-05
6.83709e-05
-1.86154e-05
6.89003e-05
-1.20023e-05
6.68852e-05
-3.00747e-06
6.19135e-05
8.69299e-06
5.35639e-05
2.34727e-05
4.14125e-05
4.17711e-05
2.50578e-05
6.41153e-05
4.18757e-06
9.11421e-05
-2.1261e-05
0.00012361
-5.07455e-05
0.000162338
-8.23078e-05
0.000207903
-0.000110979
-0.000126116
0.000259872
-2.58361e-05
6.12335e-05
-2.43498e-05
6.42128e-05
-2.11767e-05
6.51978e-05
-1.60621e-05
6.37858e-05
-8.7325e-06
5.95556e-05
1.11249e-06
5.20685e-05
1.38089e-05
4.08675e-05
2.974e-05
2.54814e-05
4.93524e-05
5.44534e-06
7.31782e-05
-1.96382e-05
0.000101863
-4.99459e-05
0.000136193
-8.5075e-05
0.000177063
-0.000123179
0.000225209
-0.000159125
-0.000181352
0.000280445
-2.44862e-05
6.08172e-05
-2.25356e-05
6.22622e-05
-1.87919e-05
6.14541e-05
-1.29838e-05
5.79777e-05
-4.82151e-06
5.13933e-05
6.0113e-06
4.12357e-05
1.9865e-05
2.70138e-05
3.71342e-05
8.2122e-06
5.82716e-05
-1.5692e-05
8.38096e-05
-4.51762e-05
0.000114392
-8.05279e-05
0.000150812
-0.000121496
0.000194025
-0.000166391
0.00024491
-0.00021001
-0.000240024
0.000303582
-2.28049e-05
-2.03097e-05
5.97669e-05
-1.58996e-05
5.7044e-05
-9.28446e-06
5.13626e-05
-1.5478e-07
4.22636e-05
1.18247e-05
2.92562e-05
2.70215e-05
1.1817e-05
4.58429e-05
-1.06092e-05
6.87471e-05
-3.85963e-05
9.62624e-05
-7.26914e-05
0.000129018
-0.000113284
0.000167797
-0.000160274
0.000213577
-0.000212171
0.000267365
-0.000263798
-0.000302263
0.000329604
-1.76103e-05
5.66353e-05
-1.24255e-05
5.18592e-05
-4.87525e-06
4.38123e-05
5.37271e-06
3.20156e-05
1.86757e-05
1.59532e-05
3.5421e-05
-4.9283e-06
5.60304e-05
-3.12186e-05
8.09676e-05
-6.35335e-05
0.000110752
-0.000102476
0.000145987
-0.000148519
0.000187419
-0.000201706
0.000236014
-0.000260765
0.000292868
-0.000320652
-0.000368146
0.000358751
-1.43818e-05
-8.30268e-06
4.57801e-05
3.22938e-07
3.51867e-05
1.18531e-05
2.04855e-05
2.66702e-05
1.13613e-06
4.51838e-05
-2.3442e-05
6.78321e-05
-5.38669e-05
9.50837e-05
-9.0785e-05
0.000127445
-0.000134837
0.000165483
-0.000186557
0.000209883
-0.000246106
0.000261553
-0.000312435
0.000321627
-0.000380726
-0.000437684
0.000391165
-3.47353e-06
3.86781e-05
6.3771e-06
2.5336e-05
1.93627e-05
7.49988e-06
3.58935e-05
-1.53947e-05
5.64036e-05
-4.3952e-05
8.13485e-05
-7.88119e-05
0.000111202
-0.000120638
0.000146453
-0.000170089
0.000187623
-0.000227727
0.000235311
-0.000293794
0.00029032
-0.000367444
0.000353759
-0.000444165
-0.000510809
0.000426884
2.10872e-06
1.33401e-05
1.41046e-05
2.79599e-05
-7.11989e-06
4.64078e-05
-3.38425e-05
6.91438e-05
-6.6688e-05
9.66419e-05
-0.00010631
0.00012938
-0.000153376
0.000167828
-0.000208537
0.00021245
-0.00027235
0.000263741
-0.000345084
0.000322346
-0.00042605
0.000389282
-0.000511101
-0.000587362
0.000465835
2.12499e-05
1.33382e-06
3.76835e-05
-2.35534e-05
5.82502e-05
-5.44093e-05
8.34366e-05
-9.18745e-05
0.000113735
-0.000136608
0.000149626
-0.000189267
0.000191558
-0.000250469
0.000239933
-0.000320725
0.000295122
-0.000400273
0.000357567
-0.000488495
0.000428121
-0.000581654
-0.000667093
0.000507851
3.01282e-05
-1.31343e-05
4.85522e-05
-4.19774e-05
7.14327e-05
-7.72898e-05
9.92823e-05
-0.000119724
0.00013261
-0.000169936
0.000171899
-0.000228555
0.000217573
-0.000296143
0.000269969
-0.000373121
0.000329325
-0.000459629
0.000395834
-0.000555004
0.000470121
-0.000655941
-0.000749651
0.000552679
3.99808e-05
6.05645e-05
-6.2561e-05
8.5942e-05
-0.000102667
0.00011665
-0.000150432
0.000153213
-0.000206498
0.000196112
-0.000271454
0.000245748
-0.00034578
0.000302392
-0.000429765
0.000366144
-0.000523381
0.000436923
-0.000625783
0.000515071
-0.00073409
-0.000834587
0.000600007
7.36995e-05
-8.54626e-05
0.000101741
-0.000130709
0.00013548
-0.000184171
0.000175451
-0.00024647
0.000222134
-0.000318137
0.000275905
-0.000399551
0.000336972
-0.000490832
0.000405309
-0.000591717
0.00048055
-0.000701024
0.000562728
-0.000816267
-0.000921349
0.00064949
8.79184e-05
0.000118771
-0.000161562
0.000155685
-0.000221085
0.000199203
-0.000289987
0.000249796
-0.000368731
0.00030782
-0.000457574
0.00037343
-0.000556443
0.000446487
-0.000664774
0.000526375
-0.000780912
0.000612795
-0.000902688
-0.00100938
0.000700823
0.000136954
-0.000195349
0.000177157
-0.000261288
0.000224316
-0.000337146
0.000278894
-0.00042331
0.000341226
-0.000519905
0.000411436
-0.000626653
0.000489314
-0.000742653
0.00057406
-0.000865657
0.000664886
-0.000993514
-0.00109841
0.000753915
0.000156194
0.000199764
-0.000304858
0.000250615
-0.000387997
0.000309192
-0.000481887
0.000375811
-0.000586524
0.0004506
-0.000701442
0.000533393
-0.000825445
0.000623453
-0.000955717
0.000718942
-0.001089
-0.00118833
0.000808866
0.000223363
0.000277904
-0.000442538
0.000340424
-0.000544407
0.000411216
-0.000657316
0.00049043
-0.000780656
0.000578096
-0.000913111
0.000674209
-0.00105183
0.000776836
-0.00119163
-0.00127634
0.000864843
0.000305978
-0.000500717
0.000372314
-0.000610743
0.00044705
-0.000732053
0.000530335
-0.00086394
0.000622338
-0.00100511
0.000723719
-0.00115321
0.000837456
-0.00130537
-0.00143571
0.000996828
0.000334622
0.000404576
-0.000680697
0.000482927
-0.000810405
0.00056974
-0.000950753
0.000665136
-0.00110051
0.000769877
-0.00125795
0.000886022
-0.00142151
-0.0015767
0.00102701
0.000436944
-0.000754013
0.000518507
-0.000891968
0.00060822
-0.00104047
0.000705968
-0.00119826
0.000812012
-0.001364
0.000926718
-0.00153622
-0.00170599
0.00105601
0.000469168
0.000553497
-0.000976297
0.000645468
-0.00113244
0.000744652
-0.00129744
0.000850724
-0.00147007
0.000962991
-0.00164848
-0.00182639
0.00108339
0.00058764
0.000681243
-0.00122604
0.000781078
-0.00139728
0.000886313
-0.0015753
0.000995612
-0.00175778
-0.00193968
0.0011089
0.000715334
-0.00132067
0.000815127
-0.00149707
0.000918855
-0.00167903
0.00102482
-0.00186375
-0.00204689
0.00113203
0.000747544
0.000846673
-0.0015962
0.000948344
-0.0017807
0.00105069
-0.0019661
-0.00214858
0.00115238
0.000875593
0.000974734
-0.00187984
0.00107322
-0.00206458
-0.00224501
0.00116966
0.000997968
0.00109238
-0.00215899
-0.00233632
0.00118368
0.00110816
-0.00224915
-0.00242255
0.00119439
0.00112057
-0.00250377
0.00120179
0.00120594
0.00299151
0.00119396
0.00114815
0.00277605
0.00293669
0.00120297
0.00108522
0.00253265
0.00115094
0.00271034
0.00287769
0.00120994
0.00108126
0.00245655
0.0011513
0.0026403
0.00281426
0.00121473
0.00099462
0.00217923
0.00107469
0.00237647
0.00114913
0.00256586
0.00274616
0.00121723
0.000894187
0.00188856
0.000981541
0.00209188
0.00106545
0.00229256
0.00114433
0.00248698
0.0026731
0.0012174
0.000875902
0.00179779
0.000965943
0.00200184
0.0010535
0.00220501
0.00113682
0.00240366
0.00259468
0.00121524
0.000763553
0.00150558
0.000855559
0.00170579
0.000947867
0.00190953
0.00103879
0.00211408
0.00112652
0.00231593
0.00251037
0.00121083
0.000650762
0.0012265
0.000740571
0.00141577
0.000833299
0.00161306
0.000927376
0.00181545
0.00102129
0.00202017
0.00111329
0.00222393
0.00241927
0.00120439
0.000627291
0.00114242
0.000716399
0.00132666
0.000809288
0.00152017
0.000904547
0.00172019
0.00100094
0.00192377
0.00109692
0.00212796
0.0023199
0.00119629
0.000521056
0.000893765
0.000603353
0.00106012
0.000691264
0.00123875
0.00078372
0.00142772
0.000879474
0.00162444
0.000977595
0.00182565
0.00107696
0.00202859
0.00220974
0.00118712
0.000499024
0.000820344
0.000579169
0.000979976
0.000665407
0.00115251
0.000756827
0.00133629
0.000852297
0.00152897
0.000950959
0.00172699
0.00105187
0.00192769
0.0020838
0.00117781
0.000406528
0.000611002
0.000477278
0.000749594
0.000554954
0.0009023
0.000639084
0.00106838
0.000728894
0.00124649
0.000823306
0.00143456
0.000921258
0.00162903
0.00101941
0.00182953
0.0019975
0.00110571
0.000327229
0.000432843
0.00038806
0.000550171
0.000455973
0.00068168
0.000530919
0.000827354
0.00061257
0.000986734
0.000700275
0.00115878
0.000792984
0.00134185
0.000889276
0.00153274
0.000986679
0.00173213
0.00190714
0.00107704
0.000312291
0.000381589
0.00037027
0.000492192
0.000435233
0.000616717
0.000507247
0.00075534
0.000586119
0.000907862
0.000671332
0.00107357
0.000761953
0.00125122
0.000856539
0.00143816
0.000953749
0.00163492
0.00181496
0.00104593
0.000249458
0.000241897
0.000298084
0.000332963
0.000353205
0.000437072
0.000415151
0.00055477
0.000484091
0.000686401
0.000559958
0.000831995
0.000642379
0.000991147
0.000730603
0.001163
0.000823311
0.00134545
0.000919681
0.00153855
0.00172142
0.00101322
0.000238536
0.000201599
0.000284593
0.000286907
0.000336879
0.000384785
0.000395786
0.000495864
0.000461564
0.000620622
0.000534264
0.000759296
0.000613655
0.000911755
0.000699177
0.00107748
0.000789694
0.00125493
0.000884633
0.00144361
0.00162696
0.000979094
0.000190106
9.49992e-05
0.000228214
0.000163491
0.000271776
0.000243345
0.000321281
0.00033528
0.000377161
0.000439983
0.000439739
0.000558045
0.000509165
0.00068987
0.000585346
0.000835574
0.000667897
0.000994928
0.000755914
0.00116691
0.000848994
0.00135053
0.00153225
0.000943702
0.000182414
6.36296e-05
0.000218423
0.000127482
0.000259575
0.000202193
0.000306371
0.000288484
0.00035927
0.000387085
0.000418648
0.000498666
0.000484745
0.000623773
0.00055759
0.00076273
0.000636963
0.000915554
0.000722206
0.00108167
0.000813072
0.00125966
0.00143801
0.000907318
0.000145425
-1.58309e-05
0.000175081
3.39734e-05
0.00020908
9.34833e-05
0.000247916
0.000163357
0.000292087
0.000244313
0.000342073
0.000337099
0.00039829
0.000442449
0.000461046
0.000561017
0.000530481
0.000693294
0.000606527
0.000839509
0.000688765
0.000999433
0.000777103
0.00117132
0.00134486
0.000870247
0.000140004
-4.02396e-05
0.000168023
5.95479e-06
0.000200099
6.14074e-05
0.000236711
0.000126745
0.000278352
0.000202671
0.00032551
0.000289942
0.000378628
0.000389331
0.000438071
0.000501574
0.000504071
0.000627294
0.000576692
0.000766888
0.000655744
0.00092038
0.000741289
0.00108578
0.00125339
0.000832768
0.000134704
-6.33299e-05
0.000161153
-2.04941e-05
0.000191387
3.11731e-05
0.000225868
9.22645e-05
0.000265077
0.000163461
0.000309502
0.000245517
0.000359604
0.000339228
0.00041579
0.000445388
0.000478368
0.000564716
0.000547518
0.000697738
0.000623256
0.000844643
0.000705796
0.00100324
0.00116406
0.000795125
0.000107635
-0.000116893
0.000129452
-8.51465e-05
0.00015439
-4.54326e-05
0.000182857
2.70688e-06
0.000215293
5.98284e-05
0.000252167
0.000126587
0.000293959
0.000203725
0.000341141
0.000292046
0.000394149
0.00039238
0.000453351
0.000505514
0.000519028
0.000632062