/*--------------------------------*- C++ -*----------------------------------*\
  =========                 |
  \\      /  F ield         | OpenFOAM: The Open Source CFD Toolbox
   \\    /   O peration     | Website:  https://openfoam.org
    \\  /    A nd           | Version:  7
     \\/     M anipulation  |
\*---------------------------------------------------------------------------*/
FoamFile
{
    version     2.0;
    format      ascii;
    class       volVectorField;
    location    "140";
    object      U;
}
// * * * * * * * * * * * * * * * * * * * * * * * * * * * * * * * * * * * * * //

dimensions      [0 1 -1 0 0 0 0];

internalField   nonuniform List<vector> 
7156
(
(-0.0153585 -0.0905489 1.35894e-22)
(-0.0220021 -0.0942103 9.20278e-21)
(-0.0293555 -0.0940423 9.47376e-21)
(-0.0372671 -0.0908736 2.9673e-22)
(-0.0456107 -0.0854427 5.34804e-21)
(-0.054283 -0.0783789 3.751e-21)
(-0.0632005 -0.070193 -9.20956e-21)
(-0.0722965 -0.0612745 -5.54701e-21)
(-0.0815183 -0.0518957 2.65016e-21)
(-0.0908248 -0.0422214 -2.54165e-21)
(-0.100185 -0.0323233 -2.96595e-21)
(-0.109578 -0.0221975 3.70683e-21)
(-0.118991 -0.0117817 -4.65057e-21)
(-0.128419 -0.000972006 -7.23633e-21)
(-0.137866 0.0103636 1.31853e-20)
(-0.147344 0.022375 1.94238e-21)
(-0.156869 0.0352225 4.60195e-21)
(-0.166461 0.0490736 1.26615e-20)
(-0.176156 0.0640987 3.07253e-22)
(-0.185906 0.0804647 -1.56081e-21)
(-0.195635 0.0983666 1.21665e-20)
(-0.0142111 -0.0869461 -2.7837e-21)
(-0.020837 -0.0901794 1.35117e-20)
(-0.0282129 -0.0896755 4.23052e-21)
(-0.0361733 -0.086248 4.82139e-21)
(-0.0445814 -0.0806208 -8.66091e-21)
(-0.0533264 -0.0734111 2.06745e-21)
(-0.0623193 -0.0651193 2.44426e-20)
(-0.0714905 -0.0561266 9.13325e-21)
(-0.0807854 -0.0466985 -1.44556e-20)
(-0.0901624 -0.036994 -7.65985e-22)
(-0.0995908 -0.0270802 1.76849e-20)
(-0.109049 -0.0169483 1.33435e-21)
(-0.118525 -0.00653192 1.30678e-20)
(-0.128013 0.0042773 -1.41263e-20)
(-0.137516 0.0156153 -1.26345e-20)
(-0.147043 0.027635 -2.56328e-20)
(-0.156609 0.0404994 -3.24236e-21)
(-0.166229 0.0543763 -2.65137e-20)
(-0.175937 0.0694345 2.39134e-20)
(-0.185673 0.0858362 7.92373e-21)
(-0.19534 0.103774 1.10748e-20)
(-0.0131075 -0.083314 7.99639e-21)
(-0.0197023 -0.0861277 -1.83786e-20)
(-0.0270816 -0.085299 1.20147e-20)
(-0.0350668 -0.0816239 -3.73898e-21)
(-0.0435113 -0.0758111 5.32465e-21)
(-0.0522963 -0.0684649 4.01914e-21)
(-0.0613281 -0.0600752 -5.32154e-20)
(-0.0705332 -0.0510147 1.2014e-20)
(-0.0798555 -0.0415425 1.13473e-20)
(-0.0892523 -0.0318123 1.11147e-20)
(-0.0986924 -0.0218866 2.92442e-20)
(-0.108154 -0.0117529 4.84794e-21)
(-0.117624 -0.00134099 -3.57755e-21)
(-0.127097 0.00946113 3.10995e-20)
(-0.136574 0.0207927 1.77561e-20)
(-0.14606 0.0328098 4.98335e-20)
(-0.155567 0.0456768 -1.21415e-20)
(-0.165108 0.0595622 4.89797e-20)
(-0.174714 0.0746324 -5.92113e-20)
(-0.18431 0.0910453 -1.25178e-20)
(-0.193773 0.108991 7.29363e-21)
(-0.0120518 -0.0796661 -2.92433e-20)
(-0.0186028 -0.0820713 1.43424e-20)
(-0.0259674 -0.0809297 -3.5718e-20)
(-0.0339548 -0.077019 -8.62352e-21)
(-0.0424084 -0.0710319 1.95072e-20)
(-0.0512022 -0.0635593 -4.05959e-20)
(-0.0602372 -0.0550804 6.39378e-20)
(-0.0694365 -0.0459596 -9.01517e-21)
(-0.0787416 -0.0364494 -1.20397e-21)
(-0.0881087 -0.0266988 -3.83366e-20)
(-0.0975058 -0.0167666 -4.24671e-20)
(-0.106911 -0.00663675 -5.17473e-21)
(-0.116309 0.00376412 -2.6739e-21)
(-0.125693 0.0145509 -7.78525e-20)
(-0.135061 0.0258658 -7.01514e-20)
(-0.144419 0.0378671 -5.25102e-21)
(-0.153771 0.0507209 2.34957e-20)
(-0.163128 0.0645956 -1.70815e-20)
(-0.172518 0.0796556 -1.60886e-20)
(-0.181853 0.0960544 9.93838e-21)
(-0.190976 0.11398 2.01413e-20)
(-0.0110472 -0.0760186 1.52408e-20)
(-0.017543 -0.0780265 -4.08629e-20)
(-0.0248762 -0.0765847 3.49402e-20)
(-0.0328442 -0.0724511 2.82783e-20)
(-0.0412812 -0.0663018 -9.77925e-21)
(-0.0500541 -0.0587137 6.40295e-20)
(-0.0590583 -0.0501552 -6.18272e-20)
(-0.0682133 -0.0409822 3.80721e-20)
(-0.0774583 -0.0314413 -4.49997e-20)
(-0.0867478 -0.0216769 7.45507e-20)
(-0.0960486 -0.0117445 2.90448e-21)
(-0.105337 -0.00162542 -3.61178e-20)
(-0.114598 0.00875631 -1.42443e-21)
(-0.123822 0.019518 8.41431e-20)
(-0.133005 0.0308042 9.91836e-20)
(-0.142148 0.0427752 -5.28947e-20)
(-0.151252 0.0555984 -7.17416e-20)
(-0.160324 0.0694421 5.29502e-20)
(-0.169389 0.0844684 -6.21149e-21)
(-0.178347 0.100827 1.31593e-20)
(-0.187003 0.118705 1.46033e-20)
(-0.0100972 -0.0723848 8.93254e-21)
(-0.0165276 -0.0740084 6.2977e-20)
(-0.0238139 -0.0722797 -4.1833e-20)
(-0.0317426 -0.0679368 -6.37438e-20)
(-0.0401389 -0.061638 -2.19014e-20)
(-0.0488624 -0.0539462 -1.68178e-20)
(-0.0578035 -0.0453185 -3.45686e-20)
(-0.0668777 -0.0361027 -4.56266e-21)
(-0.0760214 -0.0265393 -5.01658e-22)
(-0.0851873 -0.016769 -1.82549e-20)
(-0.0943406 -0.00684416 1.79412e-20)
(-0.103457 0.00325587 -8.7331e-21)
(-0.112518 0.013609 6.31241e-20)
(-0.121512 0.0243344 4.91802e-20)
(-0.130434 0.0355785 -1.00454e-20)
(-0.139279 0.0475032 4.16495e-20)
(-0.148047 0.060277 6.02932e-20)
(-0.156737 0.0740682 1.36932e-21)
(-0.165375 0.0890364 8.00135e-20)
(-0.173846 0.105329 -5.26235e-20)
(-0.181912 0.12313 -7.79838e-20)
(-0.00920479 -0.0687781 -2.32935e-21)
(-0.015561 -0.070031 -2.47828e-20)
(-0.0227866 -0.06803 -7.03307e-21)
(-0.0306576 -0.0634919 9.34601e-20)
(-0.0389907 -0.0570573 5.32693e-20)
(-0.0476386 -0.0492743 -5.97288e-21)
(-0.0564861 -0.040589 9.25809e-20)
(-0.0654448 -0.0313407 1.23678e-20)
(-0.0744481 -0.0217645 1.60872e-20)
(-0.0834465 -0.0119972 -9.53955e-20)
(-0.0924036 -0.00208911 -5.8948e-20)
(-0.101292 0.00798219 -1.40954e-20)
(-0.110094 0.0182958 -1.00194e-19)
(-0.118793 0.0289724 -2.81089e-20)
(-0.127381 0.0401596 -5.64046e-20)
(-0.135851 0.0520207 1.17843e-19)
(-0.144197 0.0647252 -4.16943e-20)
(-0.152414 0.0784413 -1.55739e-20)
(-0.160528 0.0933266 -9.40775e-20)
(-0.16841 0.109526 6.36539e-20)
(-0.175773 0.127224 3.33839e-20)
(-0.00837303 -0.0652105 -4.08495e-20)
(-0.0146477 -0.0661074 1.5082e-20)
(-0.0218003 -0.0638494 1.64255e-20)
(-0.0295971 -0.0591313 -8.54784e-20)
(-0.0378465 -0.0525753 -1.75416e-20)
(-0.0463944 -0.0447148 6.47655e-20)
(-0.05512 -0.0359844 -1.16563e-19)
(-0.0639309 -0.0267154 -5.03919e-20)
(-0.072757 -0.0171371 1.35757e-20)
(-0.0815466 -0.00738333 1.00382e-19)
(-0.090261 0.00249767 -1.87681e-20)
(-0.0988713 0.0125292 5.07473e-20)
(-0.107356 0.0227912 9.79139e-20)
(-0.115698 0.033405 -5.29468e-20)
(-0.123884 0.0445193 -8.96976e-20)
(-0.131904 0.0562984 7.26066e-22)
(-0.139748 0.0689127 7.36572e-20)
(-0.147407 0.0825305 1.5744e-20)
(-0.154905 0.0973074 -6.07037e-21)
(-0.162103 0.113388 -8.37279e-20)
(-0.16866 0.130955 -3.13456e-20)
(-0.00760474 -0.0616929 -5.44179e-20)
(-0.0137921 -0.0622497 -5.9404e-20)
(-0.0208612 -0.0597508 -3.73026e-20)
(-0.0285692 -0.0548686 2.91413e-20)
(-0.0367164 -0.0482067 1.28629e-20)
(-0.0451421 -0.0402834 -7.70242e-21)
(-0.0537198 -0.0315217 2.64405e-20)
(-0.0623528 -0.0222447 8.91216e-20)
(-0.0709677 -0.0126767 -3.28195e-20)
(-0.0795097 -0.00294817 5.81341e-20)
(-0.087938 0.00689385 3.67433e-20)
(-0.0962214 0.0168732 2.92945e-20)
(-0.104336 0.0270701 7.12053e-20)
(-0.112261 0.037606 -6.75763e-20)
(-0.119981 0.0486303 1.42659e-19)
(-0.127483 0.060308 -1.04931e-19)
(-0.13475 0.0728103 5.49541e-20)
(-0.141771 0.086306 -6.70843e-20)
(-0.14857 0.100949 6.85061e-20)
(-0.154997 0.116884 -3.92336e-21)
(-0.160655 0.134296 4.26206e-20)
(-0.0069026 -0.0582355 4.85012e-20)
(-0.0129986 -0.0584685 7.41494e-20)
(-0.0199755 -0.0557457 5.86193e-20)
(-0.027582 -0.0507163 5.97079e-20)
(-0.0356108 -0.043965 1.01973e-20)
(-0.0438943 -0.0359946 5.96633e-20)
(-0.0523007 -0.0272166 3.37427e-21)
(-0.0607283 -0.017946 -1.09438e-19)
(-0.0691004 -0.00840179 2.47539e-20)
(-0.0773592 0.00128816 -8.19839e-20)
(-0.0854612 0.0110779 1.73084e-20)
(-0.0933727 0.0209914 -6.90474e-20)
(-0.101067 0.0311083 -1.12266e-19)
(-0.108521 0.04155 -7.14493e-20)
(-0.115716 0.052466 -4.91133e-20)
(-0.122633 0.0640221 -4.47491e-20)
(-0.129255 0.0763901 -5.82461e-20)
(-0.135565 0.0897395 -8.69662e-21)
(-0.141588 0.104223 -2.40165e-21)
(-0.147168 0.119986 6.06563e-20)
(-0.151844 0.13722 1.63485e-20)
(-0.00626934 -0.0548459 -1.91776e-20)
(-0.012271 -0.0547734 1.04589e-19)
(-0.0191493 -0.0518444 -7.94378e-20)
(-0.0266439 -0.0466856 -6.68045e-20)
(-0.0345403 -0.0398622 8.56135e-21)
(-0.0426641 -0.0318618 -7.22807e-20)
(-0.0508781 -0.0230839 5.4563e-20)
(-0.0590758 -0.0138354 -2.8945e-20)
(-0.0671766 -0.00433005 -6.97103e-20)
(-0.0751195 0.00530659 4.1716e-20)
(-0.0828583 0.0150293 -5.92248e-20)
(-0.0903565 0.0248616 -1.00819e-19)
(-0.0975846 0.0348824 1.36653e-19)
(-0.104517 0.0452125 1.74186e-19)
(-0.111131 0.0560011 -3.35562e-20)
(-0.117406 0.0674145 8.28235e-20)
(-0.12332 0.0796253 3.90968e-20)
(-0.128852 0.092804 -3.28076e-20)
(-0.134031 0.107103 -5.15646e-20)
(-0.138694 0.12267 -9.08476e-20)
(-0.142317 0.139704 -2.65815e-20)
(-0.00570755 -0.0515336 2.7466e-20)
(-0.0116139 -0.0511715 -7.2782e-20)
(-0.0183885 -0.0480557 1.17653e-19)
(-0.0257632 -0.0427862 -1.19336e-20)
(-0.0335154 -0.0359094 3.34384e-20)
(-0.0414646 -0.0278971 3.50385e-20)
(-0.0494677 -0.019137 3.42123e-20)
(-0.0574137 -0.0099276 1.28894e-19)
(-0.0652178 -0.000477857 1.50263e-20)
(-0.0728156 0.00908915 8.87388e-20)
(-0.0801578 0.0187285 6.79625e-20)
(-0.0872053 0.028463 1.90247e-19)
(-0.0939257 0.0383703 -7.95444e-20)
(-0.100291 0.0485702 2.07564e-20)
(-0.106274 0.0592114 -3.52468e-20)
(-0.111852 0.0704602 -1.59225e-19)
(-0.117001 0.0824906 8.77103e-20)
(-0.121696 0.0954744 1.10446e-19)
(-0.12597 0.109564 8.95008e-21)
(-0.129658 0.124911 9.0019e-20)
(-0.132167 0.141724 4.07575e-20)
(-0.00522012 -0.0483027 -4.82438e-20)
(-0.0110315 -0.0476716 -8.18548e-20)
(-0.0176998 -0.0443868 -2.6896e-21)
(-0.0249482 -0.0390265 2.65021e-20)
(-0.0325469 -0.0321159 -8.05497e-20)
(-0.0403089 -0.0241112 9.87154e-20)
(-0.0480855 -0.0153879 -2.1112e-20)
(-0.0557608 -0.00623627 1.54498e-20)
(-0.0632458 0.00313974 1.15527e-19)
(-0.0704727 0.0126192 -4.12604e-21)
(-0.0773888 0.0221574 1.03814e-20)
(-0.0839521 0.031776 -5.87267e-20)
(-0.0901274 0.0415511 -1.29228e-19)
(-0.0958833 0.0516009 -1.27072e-19)
(-0.101191 0.0620736 8.57087e-20)
(-0.106025 0.0731356 9.27989e-20)
(-0.110357 0.0849621 -1.03345e-19)
(-0.114164 0.0977267 -8.44187e-20)
(-0.117479 0.111583 1.9806e-19)
(-0.120142 0.126687 7.87033e-21)
(-0.121488 0.143262 -3.47474e-21)
(-0.0105286 -0.0442772 6.97354e-20)
(-0.0170896 -0.0408443 -5.39723e-20)
(-0.0242074 -0.0354133 -1.68268e-19)
(-0.0316453 -0.0284897 1.28259e-19)
(-0.0392099 -0.0205132 -2.28066e-19)
(-0.046747 -0.0118471 -6.00343e-20)
(-0.0541356 -0.00277336 -2.01037e-19)
(-0.0612826 0.00650916 2.19564e-20)
(-0.0681161 0.0158816 -3.96835e-20)
(-0.0745804 0.0252993 2.38642e-20)
(-0.0806303 0.0347823 -8.75129e-20)
(-0.0862276 0.044405 1.6398e-19)
(-0.0913383 0.0542839 3.3896e-20)
(-0.0959312 0.0645661 -1.10878e-19)
(-0.0999776 0.0754183 8.24608e-20)
(-0.103449 0.087017 1.99122e-19)
(-0.106321 0.0995388 6.87762e-20)
(-0.108633 0.113139 -1.31244e-19)
(-0.110231 0.127978 1.46875e-20)
(-0.110375 0.144299 6.6247e-20)
(-0.01011 -0.0409941 -4.20297e-20)
(-0.0165641 -0.0374326 1.3599e-19)
(-0.023549 -0.0319523 2.33142e-19)
(-0.0308209 -0.0250374 -1.42892e-19)
(-0.0381803 -0.0171108 2.38875e-19)
(-0.0454674 -0.0085237 9.99428e-20)
(-0.0525563 0.000450723 2.14533e-19)
(-0.0593494 0.0096185 -4.12338e-20)
(-0.0657709 0.0188629 -1.39515e-19)
(-0.0717616 0.028139 -1.42728e-19)
(-0.077273 0.0374654 5.63015e-20)
(-0.0822642 0.0469141 -5.16389e-21)
(-0.0866983 0.0565999 1.28286e-19)
(-0.0905417 0.0666687 1.50267e-19)
(-0.093764 0.0772874 -2.04614e-19)
(-0.0963366 0.0886344 -3.32104e-19)
(-0.0982344 0.10089 -1.09856e-19)
(-0.0995049 0.114212 1.42218e-19)
(-0.100008 0.128768 -1.46555e-19)
(-0.098922 0.144819 -7.15776e-20)
(-0.00977953 -0.0378241 1.58598e-19)
(-0.0161295 -0.0341554 -4.17136e-20)
(-0.0229807 -0.0286477 2.52437e-20)
(-0.0300833 -0.0217638 1.25451e-20)
(-0.037232 -0.0139101 -4.50585e-20)
(-0.0442613 -0.00542481 -9.49176e-20)
(-0.0510404 0.00342738 -2.35709e-19)
(-0.057467 0.0124576 -4.20499e-20)
(-0.0634613 0.0215514 -3.63637e-20)
(-0.0689604 0.0306633 5.13869e-20)
(-0.0739128 0.0398104 -3.69529e-20)
(-0.0782742 0.0490623 -5.05307e-20)
(-0.0820054 0.0585315 -1.68707e-19)
(-0.0850703 0.0683628 -2.34272e-19)
(-0.0874374 0.0787236 3.4164e-19)
(-0.0890782 0.0897947 1.41896e-20)
(-0.0899696 0.10176 4.51064e-21)
(-0.0901676 0.114784 -1.50355e-19)
(-0.0895561 0.129039 4.77834e-20)
(-0.0872212 0.144806 1.14579e-19)
(-0.00954069 -0.0347685 -2.09865e-19)
(-0.0157907 -0.0310145 -1.61845e-19)
(-0.0225094 -0.025502 -1.50831e-19)
(-0.0294416 -0.0186725 -1.43105e-19)
(-0.0363762 -0.0109153 9.50424e-20)
(-0.0431424 -0.00255589 -8.11865e-20)
(-0.0496042 0.00614989 7.80135e-20)
(-0.0556548 0.0150185 -1.47699e-20)
(-0.0612102 0.0239374 7.84835e-20)
(-0.0662039 0.0328612 4.85991e-20)
(-0.0705807 0.0418048 3.08945e-20)
(-0.0742937 0.0508354 1.49278e-19)
(-0.0773005 0.0600632 1.21348e-19)
(-0.0795632 0.0696319 -5.08807e-20)
(-0.0810493 0.0797094 -3.31025e-19)
(-0.0817315 0.0904798 1.94068e-19)
(-0.0815895 0.102133 7.4514e-20)
(-0.0806905 0.11484 2.5253e-20)
(-0.0789542 0.128781 1.03241e-19)
(-0.0753602 0.144249 -6.03827e-21)
(-0.00939663 -0.0318264 2.21198e-19)
(-0.015552 -0.0280101 1.21556e-19)
(-0.0221414 -0.0225161 -9.12979e-20)
(-0.0289037 -0.015765 8.98659e-20)
(-0.035623 -0.0081289 -8.05111e-20)
(-0.0421229 7.95023e-05 -2.90565e-20)
(-0.0482626 0.00861356 1.70537e-19)
(-0.0539307 0.0172951 1.60637e-19)
(-0.059039 0.0260137 1.04724e-19)
(-0.0635169 0.0347238 -1.05663e-19)
(-0.0673061 0.0434383 9.93718e-20)
(-0.0703562 0.0522218 -3.21247e-19)
(-0.0726224 0.0611821 6.42527e-20)
(-0.0740644 0.0704616 -1.76391e-20)
(-0.0746492 0.0802294 1.22474e-19)
(-0.0743511 0.0906736 -1.48424e-19)
(-0.073154 0.101992 -1.10302e-19)
(-0.0711382 0.114367 3.69262e-20)
(-0.068279 0.127987 -8.75581e-20)
(-0.0634273 0.143161 -1.01355e-19)
(-0.00935016 -0.0289982 -1.30059e-19)
(-0.0154175 -0.0251405 1.09664e-19)
(-0.0218817 -0.0196894 1.17946e-19)
(-0.0284767 -0.0130413 -1.61458e-20)
(-0.0349811 -0.00555169 -8.31321e-20)
(-0.0412138 0.00247984 5.70298e-20)
(-0.047029 0.0108159 -4.5706e-20)
(-0.0523106 0.0192837 1.8782e-20)
(-0.0569666 0.0277754 -1.18193e-19)
(-0.0609222 0.036245 9.1794e-20)
(-0.0641155 0.0447035 2.69608e-20)
(-0.0664929 0.0532126 1.34337e-19)
(-0.0680067 0.0618777 -1.97637e-19)
(-0.0686147 0.0708402 3.7558e-19)
(-0.0682828 0.0802705 1.5955e-19)
(-0.0669878 0.0903618 6.01614e-21)
(-0.0647178 0.101323 1.17891e-19)
(-0.0615657 0.113349 -4.04572e-20)
(-0.0575874 0.126652 1.90617e-19)
(-0.0515121 0.1416 1.55523e-19)
(-0.00940425 -0.0262798 2.62231e-19)
(-0.0153906 -0.0224049 -3.14459e-20)
(-0.0217353 -0.0170194 7.52735e-20)
(-0.0281664 -0.0104996 1.34881e-19)
(-0.0344579 -0.00318246 2.21501e-20)
(-0.0404239 0.00464559 1.09056e-20)
(-0.0459141 0.0127565 -9.30929e-20)
(-0.050808 0.0209832 4.70278e-21)
(-0.0550091 0.0292203 3.7443e-20)
(-0.058439 0.0374214 -8.0843e-21)
(-0.061032 0.0455957 1.49007e-19)
(-0.062731 0.053802 -1.28369e-19)
(-0.0634853 0.062143 2.00104e-19)
(-0.0632505 0.0707591 -5.29768e-20)
(-0.0619917 0.0798225 -3.5882e-19)
(-0.0596875 0.0895324 1.41849e-21)
(-0.0563313 0.10011 -1.78308e-19)
(-0.0520208 0.111765 -1.02483e-19)
(-0.0468827 0.12471 -1.75612e-19)
(-0.0396573 0.139555 -1.72865e-19)
(-0.0154747 -0.0197985 -3.79228e-20)
(-0.0217057 -0.0145033 -1.68775e-20)
(-0.0279772 -0.00813674 -3.38049e-20)
(-0.0340587 -0.00101828 3.22982e-20)
(-0.03976 0.00657929 3.50701e-20)
(-0.0449264 0.0144374 -5.30219e-20)
(-0.049433 0.022395 -2.01582e-19)
(-0.0531794 0.0303489 2.09797e-20)
(-0.056083 0.0382529 -7.08127e-20)
(-0.0580744 0.0461139 -1.38306e-19)
(-0.0590929 0.0539877 6.67785e-20)
(-0.0590848 0.0619744 -3.49299e-20)
(-0.0580028 0.0702134 -5.83213e-20)
(-0.0558112 0.0788789 3.17841e-19)
(-0.0524904 0.0881771 7.74529e-20)
(-0.0480423 0.0983426 5.12461e-20)
(-0.0425817 0.109601 -1.20276e-19)
(-0.0362138 0.122187 4.98126e-20)
(-0.0278326 0.136894 1.07188e-19)
(-0.0156718 -0.0173181 -1.12293e-19)
(-0.0217952 -0.0121362 -1.1637e-19)
(-0.0279119 -0.00594808 -1.38942e-19)
(-0.0337869 0.000945523 1.45135e-19)
(-0.0392263 0.00828552 -5.89247e-20)
(-0.0440711 0.0158631 1.28042e-19)
(-0.0481925 0.023523 1.24837e-19)
(-0.0514858 0.031165 2.27095e-20)
(-0.0538648 0.0387426 2.52388e-19)
(-0.0552561 0.0462605 -8.62844e-20)
(-0.0555953 0.0537715 -6.27966e-20)
(-0.054825 0.0613728 5.90384e-20)
(-0.0528954 0.0692026 -7.9039e-20)
(-0.0497689 0.0774376 -2.19879e-19)
(-0.0454277 0.086292 1.16899e-19)
(-0.0398818 0.0960168 1.37861e-19)
(-0.0332676 0.106863 1.17186e-19)
(-0.0256884 0.119117 -3.48884e-20)
(-0.0161249 0.133575 -1.1265e-19)
(-0.0159827 -0.014959 -8.77048e-20)
(-0.0220047 -0.00991219 8.28854e-20)
(-0.0279711 -0.00392746 -5.91345e-20)
(-0.0336434 0.00271536 6.44281e-20)
(-0.0388239 0.0097709 1.33852e-19)
(-0.0433499 0.0170402 -1.48039e-19)
(-0.0470888 0.0243742 -3.71988e-19)
(-0.0499322 0.0316754 -2.28627e-19)
(-0.0517897 0.0388972 -2.91625e-19)
(-0.0525842 0.0460421 1.35422e-19)
(-0.0522474 0.0531596 3.38083e-20)
(-0.0507183 0.0603437 -1.01294e-19)
(-0.0479433 0.0677314 -8.97829e-20)
(-0.0438831 0.0755019 -2.85245e-20)
(-0.0385205 0.0838785 1.18485e-19)
(-0.0318728 0.0931308 -1.34115e-19)
(-0.0240975 0.10354 1.70033e-19)
(-0.0153223 0.115453 3.99562e-20)
(-0.00459471 0.129682 -2.68031e-20)
(-0.016407 -0.0127136 -9.78342e-20)
(-0.022333 -0.00782567 1.82654e-19)
(-0.0281533 -0.00206729 -1.43844e-20)
(-0.0336262 0.00429931 -6.49132e-20)
(-0.0385506 0.0110441 -2.35061e-19)
(-0.0427605 0.0179779 -6.35062e-20)
(-0.0461199 0.0249582 2.14004e-19)
(-0.0485165 0.0318902 2.27181e-19)
(-0.0498564 0.0387272 1.01709e-19)
(-0.0500585 0.0454695 -8.37198e-20)
(-0.0490505 0.0521629 4.07002e-20)
(-0.0467671 0.0588981 6.98422e-20)
(-0.0431511 0.0658103 -1.60221e-19)
(-0.03816 0.0730813 2.63467e-20)
(-0.0317767 0.0809441 5.31455e-20)
(-0.0240249 0.0896896 -1.46876e-19)
(-0.0150824 0.0996345 -2.6155e-20)
(-0.00511472 0.111187 -3.44283e-19)
(0.00675675 0.125231 5.50018e-20)
(-0.0227772 -0.00586772 -8.53634e-21)
(-0.0284548 -0.000359396 -2.03356e-21)
(-0.0337304 0.00570692 -6.81195e-20)
(-0.0384005 0.0121155 5.48748e-20)
(-0.0422962 0.0186878 2.25596e-19)
(-0.0452781 0.0252875 2.84138e-20)
(-0.0472307 0.0318229 -1.63709e-19)
(-0.0480564 0.0382471 -2.81704e-19)
(-0.0476702 0.0445581 2.73382e-19)
(-0.0459958 0.0507978 1.38044e-20)
(-0.0429633 0.0570528 -5.05325e-20)
(-0.0385108 0.0634563 1.25937e-20)
(-0.0325921 0.0701923 3.60242e-20)
(-0.0251888 0.077504 1.39499e-19)
(-0.01633 0.0857056 -2.48804e-19)
(-0.00621314 0.0951555 1.75917e-19)
(0.00495073 0.106332 1.57909e-20)
(0.0179576 0.120226 2.48809e-19)
(-0.0233325 -0.0040309 -6.05135e-20)
(-0.0288689 0.00120617 -1.10119e-19)
(-0.0339479 0.00694909 1.78654e-19)
(-0.0383638 0.0129976 -4.14855e-20)
(-0.0419453 0.0191835 1.47524e-19)
(-0.0445502 0.0253773 1.35654e-19)
(-0.0460598 0.0314901 -1.40072e-19)
(-0.0463731 0.0374753 1.92474e-19)
(-0.0454013 0.0433279 -7.55548e-20)
(-0.0430637 0.0490858 -2.09897e-19)
(-0.0392857 0.054831 1.08832e-20)
(-0.0340002 0.0606938 8.26744e-20)
(-0.0271558 0.0668596 1.24826e-20)
(-0.0187314 0.0735821 -1.90316e-19)
(-0.00875985 0.0812008 1.58323e-19)
(0.00254247 0.0901215 1.9005e-19)
(0.0149144 0.100903 6.80468e-20)
(0.0290617 0.114678 -1.71562e-19)
(-0.0239914 -0.0023066 4.17097e-20)
(-0.029386 0.00264015 7.22331e-20)
(-0.0342667 0.00803809 -1.09292e-19)
(-0.0384262 0.0137042 -1.02275e-19)
(-0.0416909 0.0194809 -2.56515e-19)
(-0.0439165 0.0252453 1.8847e-19)
(-0.0449812 0.030912 2.87991e-20)
(-0.0447809 0.0364339 -2.11548e-20)
(-0.043223 0.0418035 1.078e-20)
(-0.0402224 0.0470542 2.18552e-19)
(-0.0356993 0.0522625 -2.98045e-20)
(-0.0295806 0.0575548 1.7488e-20)
(-0.0218089 0.0631171 -7.28316e-20)
(-0.0123585 0.0692126 -5.56278e-20)
(-0.00126345 0.0762077 6.13956e-20)
(0.0112422 0.084561 -5.49518e-19)
(0.0248445 0.0949261 7.10057e-20)
(0.0401531 0.10861 4.77084e-20)
(-0.024744 -0.000684122 -5.61804e-20)
(-0.0299936 0.00395276 7.96742e-20)
(-0.0346714 0.00898728 1.36559e-19)
(-0.0385686 0.0142508 2.11053e-19)
(-0.0415106 0.0195977 4.39834e-20)
(-0.0433506 0.0249119 -1.32668e-19)
(-0.0439644 0.0301114 2.91672e-19)
(-0.0432448 0.035149 2.67781e-20)
(-0.0410954 0.0400145 3.31155e-20)
(-0.0374267 0.0447358 -7.2045e-20)
(-0.0321534 0.0493839 5.62049e-20)
(-0.0251959 0.0540796 -1.06324e-19)
(-0.0164892 0.059008 1.35864e-19)
(-0.00600109 0.0644407 -5.22697e-20)
(0.00623566 0.0707711 1.39719e-19)
(0.0199718 0.0785157 2.78435e-19)
(0.0348391 0.0884359 1.72614e-19)
(0.0513497 0.102051 -1.90921e-19)
(-0.030676 0.00515681 1.01453e-19)
(-0.0351423 0.00981033 -2.93408e-19)
(-0.0387676 0.014654 5.78635e-20)
(-0.0413761 0.0195532 1.88241e-19)
(-0.0428192 0.0243996 2.54583e-20)
(-0.0429705 0.0291142 -1.92437e-20)
(-0.0417196 0.0336502 -1.25531e-19)
(-0.0389667 0.0379943 5.95333e-21)
(-0.0346175 0.0421691 -2.20041e-21)
(-0.0285811 0.0462384 -1.94288e-19)
(-0.0207706 0.0503167 -1.38259e-19)
(-0.0111123 0.0545858 -5.74666e-21)
(0.000434353 0.0593236 2.4993e-20)
(0.0138413 0.0649496 -3.7384e-19)
(0.0288469 0.0720415 1.40142e-20)
(0.0450285 0.081482 -1.08242e-19)
(0.0628046 0.0950452 3.05564e-19)
(-0.0314142 0.00626336 -2.01759e-20)
(-0.0356561 0.0105221 -1.55723e-19)
(-0.0389947 0.0149312 -4.27347e-19)
(-0.0412532 0.0193683 -1.39772e-19)
(-0.0422819 0.0237324 2.69547e-19)
(-0.0419519 0.0279485 1.24977e-20)
(-0.0401501 0.03197 1.72374e-19)
(-0.0367728 0.0357806 -1.41176e-19)
(-0.0317212 0.0393972 -3.76357e-20)
(-0.0248983 0.0428757 -2.06605e-20)
(-0.0162094 0.0463226 1.83221e-19)
(-0.0055713 0.0499139 -4.67804e-20)
(0.00706721 0.0539309 1.30321e-19)
(0.0216858 0.0588165 6.89953e-20)
(0.0380142 0.065211 1.82499e-19)
(0.0555753 0.0741302 -3.29207e-19)
(0.074707 0.0876508 -1.05013e-19)
(-0.032186 0.00728406 4.85005e-20)
(-0.0361852 0.0111376 3.51157e-19)
(-0.0392163 0.0151005 9.20587e-20)
(-0.041102 0.0190645 1.64628e-19)
(-0.0416912 0.0229361 -1.83997e-19)
(-0.0408528 0.0266445 -9.44003e-20)
(-0.0384707 0.0301436 3.07334e-20)
(-0.0344376 0.0334143 -1.56446e-19)
(-0.0286498 0.0364675 9.33467e-20)
(-0.0210039 0.0393508 1.88886e-19)
(-0.0113973 0.0421607 5.01345e-20)
(0.000263825 0.045065 4.91104e-20)
(0.0140427 0.048344 2.46252e-19)
(0.0299301 0.0524601 1.03297e-19)
(0.0476509 0.0581144 -3.87198e-19)
(0.0666746 0.0664645 9.26646e-20)
(0.0872804 0.0799431 -9.62552e-20)
(-0.0329658 0.00823156 -1.01755e-19)
(-0.0366981 0.0116707 2.04764e-20)
(-0.0393944 0.0151804 2.64272e-22)
(-0.0408767 0.018664 -2.11513e-19)
(-0.0409926 0.0220371 7.31243e-20)
(-0.0396089 0.0252335 -2.892e-20)
(-0.0366062 0.0282079 4.68772e-20)
(-0.0318732 0.0309387 6.80415e-20)
(-0.0253012 0.033431 -1.00815e-19)
(-0.0167805 0.0357234 -2.1065e-19)
(-0.00619999 0.0379008 -6.03908e-20)
(0.00654485 0.0401201 1.06883e-19)
(0.0215307 0.0426557 1.0557e-19)
(0.0387621 0.0459833 -1.72029e-19)
(0.0579632 0.0508597 2.8042e-19)
(0.0785503 0.0585886 -1.05303e-20)
(0.100778 0.0720161 7.59223e-20)
(-0.0371597 0.012137 -9.50184e-20)
(-0.0394863 0.0151888 -2.17969e-19)
(-0.0405262 0.0181891 6.1123e-20)
(-0.0401254 0.0210625 -2.29393e-19)
(-0.0381482 0.0237475 -4.37603e-21)
(-0.0344719 0.0262009 -5.45414e-20)
(-0.0289807 0.0283988 1.78129e-19)
(-0.0215608 0.0303407 1.74438e-19)
(-0.0120958 0.0320559 -6.6295e-20)
(-0.000466243 0.033617 1.8365e-19)
(0.0134432 0.0351665 1.72105e-19)
(0.0297229 0.0369678 -2.50631e-19)
(0.0483933 0.0395017 -7.12994e-20)
(0.0691818 0.0435723 -9.86767e-20)
(0.0914505 0.0506262 1.26524e-19)
(0.115478 0.0639835 4.13176e-20)
(-0.0375316 0.0125484 -1.10589e-19)
(-0.0394454 0.0151436 3.42182e-19)
(-0.0399945 0.0176617 -1.36816e-19)
(-0.0390229 0.0200386 1.8055e-19)
(-0.0363921 0.0222187 1.80905e-19)
(-0.0319753 0.0241607 -4.96263e-20)
(-0.0256521 0.0258398 -5.36558e-20)
(-0.017303 0.0272504 -1.00036e-19)
(-0.00680488 0.0284125 1.95698e-19)
(0.00596969 0.0293856 -3.02223e-19)
(0.0211465 0.0302953 1.45221e-19)
(0.0388287 0.0313884 4.263e-20)
(0.0590539 0.0331413 -3.30523e-20)
(0.081556 0.0363922 6.11226e-20)
(0.10564 0.0427195 -1.84374e-19)
(0.131672 0.0559787 7.11914e-20)
(-0.037772 0.0129187 -1.03796e-19)
(-0.0392212 0.0150603 -3.225e-20)
(-0.0392212 0.0171028 1.5303e-19)
(-0.0376135 0.0189915 -8.3147e-20)
(-0.034256 0.0206782 -1.23111e-19)
(-0.0290174 0.0221249 9.47517e-20)
(-0.0217718 0.0233063 -3.10779e-19)
(-0.0123937 0.024213 2.55683e-19)
(-0.000753481 0.0248566 2.47678e-19)
(0.0132839 0.0252828 2.96329e-20)
(0.0298533 0.0255986 -4.15543e-19)
(0.0490694 0.0260285 -3.80507e-19)
(0.0709855 0.027034 4.77983e-20)
(0.0953452 0.0294708 -1.84738e-19)
(0.121389 0.0350272 -6.27834e-20)
(0.149652 0.0481535 -5.17145e-20)
(-0.0387603 0.0149552 -6.97214e-20)
(-0.0381427 0.0165315 1.6e-19)
(-0.0358217 0.0179452 2.27953e-19)
(-0.0316511 0.0191556 -1.17509e-19)
(-0.0254941 0.0201289 -1.88865e-19)
(-0.0172189 0.020841 -1.2495e-19)
(-0.00669341 0.0212796 -1.93699e-19)
(0.00621839 0.021449 -1.00404e-19)
(0.0216582 0.021382 2.25962e-19)
(0.0397678 0.0211655 2.1389e-19)
(0.0606703 0.0209973 2.54476e-19)
(0.0844328 0.0213128 2.13583e-19)
(0.110809 0.0229655 7.50116e-20)
(0.138966 0.0277197 3.06661e-19)
(0.169701 0.0406751 -5.24525e-20)
(-0.0380068 0.01484 1.09475e-19)
(-0.0366924 0.0159659 -1.92145e-19)
(-0.0335693 0.0169221 -2.91638e-19)
(-0.0284856 0.0176782 6.43784e-20)
(-0.0212988 0.0182058 -6.44219e-20)
(-0.01187 0.0184832 4.15164e-19)
(-6.04842e-05 0.018497 -8.79944e-20)
(0.014272 0.0182459 1.0202e-20)
(0.0312742 0.0177511 3.77551e-19)
(0.0510924 0.0170793 1.59293e-19)
(0.0738535 0.0163979 -4.6661e-20)
(0.0996333 0.016106 1.41527e-19)
(0.128196 0.0170328 2.95354e-19)
(0.158619 0.0209729 -1.2415e-19)
(0.192073 0.0337225 6.48868e-21)
(-0.0369034 0.0147272 -2.13892e-20)
(-0.0348026 0.0154206 -1.63169e-19)
(-0.0307765 0.015942 1.52087e-19)
(-0.024667 0.0162705 -6.87535e-20)
(-0.0163242 0.0163852 6.17791e-20)
(-0.00560216 0.0162684 2.47556e-20)
(0.00764504 0.0159073 9.96341e-20)
(0.0235651 0.0152974 1.04016e-19)
(0.0423081 0.0144501 -6.20359e-19)
(0.0640208 0.0134134 -1.10391e-19)
(0.0888283 0.0123224 -3.11836e-19)
(0.116808 0.0115308 -2.37529e-20)
(0.147732 0.0118217 -2.32736e-19)
(0.180566 0.0149614 -2.10786e-19)
(0.216979 0.0274808 6.2548e-20)
(-0.0324049 0.0149084 6.61362e-20)
(-0.0273638 0.0150214 1.71589e-19)
(-0.0201032 0.0149534 -3.41925e-19)
(-0.0104651 0.0146926 1.76327e-19)
(0.00170428 0.0142268 -1.75678e-19)
(0.0165578 0.0135463 -3.16192e-19)
(0.0342475 0.0126457 1.14854e-19)
(0.0549242 0.0115295 2.9002e-19)
(0.0787309 0.0102293 1.64312e-19)
(0.105783 0.00884822 -5.88604e-20)
(0.13615 0.00768796 -2.41523e-19)
(0.169609 0.00746575 -4.12055e-20)
(0.204985 0.00985025 1.85205e-19)
(0.244573 0.0221351 -1.41504e-19)
(-0.0294318 0.0144388 8.95818e-20)
(-0.0232531 0.0141734 9.68617e-20)
(-0.0147048 0.0137439 1.72274e-19)
(-0.00362025 0.0131487 -2.41663e-19)
(0.0101628 0.0123833 1.06213e-19)
(0.0268032 0.0114429 3.48149e-20)
(0.0464563 0.0103241 -1.39321e-19)
(0.0692702 0.00902813 1.62379e-19)
(0.0953784 0.00757389 -3.19871e-19)
(0.124879 0.00603455 5.23664e-19)
(0.15782 0.00465678 -1.03261e-19)
(0.193976 0.00407628 3.05257e-19)
(0.232 0.0057871 -1.40303e-19)
(0.274941 0.0178648 3.12434e-19)
(-0.0183693 0.0134077 -1.58787e-19)
(-0.00838692 0.0126551 3.37141e-19)
(0.00430536 0.0117696 -2.10904e-19)
(0.0198778 0.0107566 -1.42911e-20)
(0.0384948 0.0096187 2.26485e-19)
(0.0603122 0.00835704 2.07122e-19)
(0.0854719 0.00697338 -2.11625e-19)
(0.114091 0.0054787 1.48913e-20)
(0.146241 0.00392087 -4.16372e-19)
(0.181935 0.00249204 2.40098e-19)
(0.220933 0.0017373 -2.04621e-19)
(0.261681 0.00289518 2.38995e-19)
(0.308091 0.0148375 -1.53882e-19)
(-0.012641 0.0127304 -1.54385e-20)
(-0.00107026 0.0116953 -1.52286e-19)
(0.0133984 0.0105664 9.11034e-20)
(0.0309427 0.0093599 3.88171e-21)
(0.0517308 0.00808797 -2.02074e-19)
(0.0759163 0.00675949 -5.31771e-19)
(0.10363 0.00538066 -2.12869e-19)
(0.134967 0.00395993 6.87701e-20)
(0.169957 0.0025264 2.24529e-19)
(0.208567 0.00122255 1.96579e-19)
(0.250527 0.000501806 -8.724e-20)
(0.294039 0.00126845 -3.7042e-19)
(0.343954 0.0132051 -6.17705e-20)
(0.00731733 0.0108696 -9.46274e-20)
(0.023736 0.00954535 9.35902e-20)
(0.0434378 0.00820041 1.36612e-19)
(0.0665925 0.00685822 1.63368e-19)
(0.0933477 0.00553803 3.75849e-19)
(0.123818 0.0042544 5.96449e-19)
(0.158067 0.00301924 -2.13851e-19)
(0.196076 0.00185094 -4.89614e-20)
(0.237743 0.000851562 -9.96381e-20)
(0.282751 0.000390562 3.25043e-19)
(0.329033 0.000969505 1.7634e-19)
(0.382379 0.0131036 3.05119e-19)
(0.0168398 0.0101787 3.04905e-19)
(0.0353843 0.00870874 -4.00537e-19)
(0.0574292 0.00728049 2.02388e-19)
(0.0831426 0.00593084 -1.44829e-19)
(0.112662 0.00469155 1.93414e-19)
(0.14608 0.00358924 -3.242e-20)
(0.183421 0.00264524 -8.66882e-20)
(0.224605 0.00187656 -4.79905e-20)
(0.269447 0.00135843 1.73265e-19)
(0.317552 0.00139225 -2.06387e-19)
(0.366578 0.00202999 -7.78684e-20)
(0.423144 0.0146529 -2.86617e-19)
(0.0275523 0.00962122 2.82811e-21)
(0.0483976 0.00805483 2.65556e-19)
(0.0729676 0.00659828 -1.68652e-19)
(0.101425 0.00530208 -1.91033e-19)
(0.133892 0.00421258 -1.47063e-19)
(0.170432 0.00337153 -1.18496e-19)
(0.211022 0.00281539 -6.56672e-20)
(0.255512 0.00256966 -4.96531e-20)
(0.30362 0.00270082 -1.27842e-19)
(0.354834 0.00346357 -6.98008e-20)
(0.406566 0.00444935 2.46279e-19)
(0.465969 0.0179498 8.06271e-20)
(0.0628183 0.0075794 -3.2848e-19)
(0.0900883 0.00614853 -1.49603e-19)
(0.121463 0.00496429 4.24552e-20)
(0.157045 0.00408876 4.1458e-20)
(0.19686 0.00358115 -2.13521e-19)
(0.240832 0.00349797 5.95714e-19)
(0.28873 0.00388316 -9.70596e-20)
(0.340167 0.00481732 -2.09483e-19)
(0.394464 0.00652898 3.06366e-20)
(0.448883 0.00819077 -1.284e-19)
(0.510548 0.0230512 1.93893e-20)
(0.0786763 0.00727622 2.49837e-19)
(0.108811 0.00592369 2.55231e-19)
(0.143263 0.00490724 1.09364e-19)
(0.182104 0.00430441 -5.87592e-19)
(0.225322 0.00419319 1.18234e-19)
(0.272778 0.00465383 -5.24549e-19)
(0.324155 0.00575834 -4.42679e-20)
(0.378956 0.00762983 2.01539e-20)
(0.436272 0.010482 2.59425e-19)
(0.493399 0.0132022 -4.94496e-20)
(0.556514 0.030033 6.90513e-21)
(0.129142 0.00591535 -1.42374e-19)