/*--------------------------------*- C++ -*----------------------------------*\
  =========                 |
  \\      /  F ield         | OpenFOAM: The Open Source CFD Toolbox
   \\    /   O peration     | Website:  https://openfoam.org
    \\  /    A nd           | Version:  7
     \\/     M anipulation  |
\*---------------------------------------------------------------------------*/
FoamFile
{
    version     2.0;
    format      ascii;
    class       surfaceScalarField;
    location    "40";
    object      phi;
}
// * * * * * * * * * * * * * * * * * * * * * * * * * * * * * * * * * * * * * //

dimensions      [0 3 -1 0 0 0 0];

internalField   nonuniform List<scalar> 
8923
(
-0.000432746
-4.46793e-05
5.95334e-05
-0.000446647
-5.06086e-05
6.45099e-05
-0.000459597
-5.28436e-05
6.5793e-05
-0.000471646
-4.99108e-05
6.19599e-05
-0.000482756
-4.05887e-05
5.16988e-05
-0.000492903
-2.37869e-05
3.39345e-05
-0.000501999
1.01557e-06
8.08031e-06
-0.000509951
3.36795e-05
-2.57272e-05
-0.000516615
7.3273e-05
-6.66092e-05
-0.000521843
0.000117679
-0.000112451
-0.000525418
0.00016421
-0.000160635
-0.0005271
0.000208889
-0.000207206
-0.000526609
0.000247158
-0.000247649
-0.00052363
0.000274019
-0.000276998
-0.000517818
0.000284614
-0.000290426
-0.000508811
0.000274795
-0.000283802
-0.000496245
0.000241699
-0.000254265
-0.000479789
0.000184499
-0.000200955
-0.000459158
0.000104584
-0.000125214
-0.000434145
5.9752e-06
-3.09887e-05
-0.000404626
-0.000104982
7.54637e-05
-0.000370568
-0.000219958
0.000185899
-0.000329468
0.000290924
-0.000431368
-2.98545e-05
-0.000445226
-3.67508e-05
-0.000458115
-3.99547e-05
-0.000470084
-3.79419e-05
-0.000481093
-2.95795e-05
-0.000491118
-1.37621e-05
-0.000500071
9.96879e-06
-0.00050786
4.14681e-05
-0.00051434
7.97537e-05
-0.000519363
0.000122702
-0.000522711
0.000167558
-0.000524145
0.000210322
-0.00052338
0.000246393
-0.000520103
0.000270742
-0.00051397
0.00027848
-0.000504624
0.000265449
-0.000491712
0.000228787
-0.000474919
0.000167706
-0.000453983
8.36474e-05
-0.000428726
-1.92817e-05
-0.000399051
-0.000134657
-0.000364957
-0.000254052
-0.000367903
-0.000428215
-1.51185e-05
-0.000441969
-2.29962e-05
-0.000454736
-2.71877e-05
-0.000466562
-2.61166e-05
-0.000477404
-1.87367e-05
-0.000487239
-3.92776e-06
-0.000495979
1.87089e-05
-0.000503531
4.90199e-05
-0.000509752
8.59755e-05
-0.000514492
0.000127442
-0.000517535
0.000170601
-0.000518638
0.000211425
-0.000517518
0.000245274
-0.000513862
0.000267086
-0.000507329
0.000271947
-0.000497568
0.000255689
-0.000484238
0.000215456
-0.00046704
0.000150508
-0.000445735
6.23432e-05
-0.000420177
-4.48402e-05
-0.000390297
-0.000164537
-0.000356125
-0.000288224
-0.000406262
-0.000423298
-5.2909e-07
-0.000436892
-9.40315e-06
-0.000449476
-1.46031e-05
-0.000461096
-1.44966e-05
-0.000471708
-8.12514e-06
-0.000481288
5.65206e-06
-0.000489745
2.71661e-05
-0.000496988
5.62636e-05
-0.000502878
9.18648e-05
-0.000507259
0.000131823
-0.000509918
0.00017326
-0.000510613
0.00021212
-0.000509061
0.000243721
-0.000504949
0.000262974
-0.00049794
0.000264938
-0.000487692
0.00024544
-0.000473874
0.000201638
-0.000456207
0.000132841
-0.000434476
4.06117e-05
-0.000408564
-7.07517e-05
-0.000378432
-0.000194669
-0.000344143
-0.000322514
-0.000444578
-0.000416639
1.38611e-05
-0.000430012
3.97027e-06
-0.000442357
-2.25837e-06
-0.000453712
-3.14177e-06
-0.000464032
2.19562e-06
-0.000473292
1.49115e-05
-0.000481401
3.52748e-05
-0.000488267
6.31305e-05
-0.000493753
9.73506e-05
-0.000497704
0.000135774
-0.000499906
0.000175462
-0.000500118
0.000212332
-0.000498059
0.000241662
-0.000493417
0.000258332
-0.000485863
0.000257384
-0.00047506
0.000234638
-0.000460691
0.000187269
-0.000442499
0.00011465
-0.000420287
1.83991e-05
-0.000393976
-9.70626e-05
-0.000363549
-0.000225096
-0.000329104
-0.000356959
-0.000482883
-0.000408255
2.79947e-05
-0.000421356
1.70707e-05
-0.000433407
9.79277e-06
-0.000444441
7.89245e-06
-0.000454413
1.21669e-05
-0.00046329
2.37893e-05
-0.000470988
4.29723e-05
-0.000477413
6.95556e-05
-0.000482428
0.000102366
-0.000485879
0.000139225
-0.000487554
0.000177137
-0.000487214
0.000211991
-0.000484578
0.000239026
-0.00047934
0.000253095
-0.000471175
0.000249219
-0.000459757
0.00022322
-0.00044478
0.000172292
-0.000426009
9.5878e-05
-0.000403274
-4.3358e-06
-0.000376519
-0.000123817
-0.000345761
-0.000255854
-0.000311127
-0.000391592
-0.000521207
-0.000398181
4.18214e-05
-0.000410958
2.98477e-05
-0.000422663
2.14975e-05
-0.000433323
1.85526e-05
-0.000442889
2.17336e-05
-0.00045133
3.22295e-05
-0.000458557
5.01994e-05
-0.000464479
7.54781e-05
-0.000468961
0.000106848
-0.000471848
0.000142112
-0.000472931
0.00017822
-0.000471974
0.000211034
-0.000468698
0.000235751
-0.000462803
0.0002472
-0.000453969
0.000240385
-0.000441882
0.000211132
-0.000426248
0.000156659
-0.000406851
7.64809e-05
-0.000383558
-2.76283e-05
-0.000356322
-0.000151053
-0.0003252
-0.000286977
-0.00029035
-0.000426442
-0.000559574
-0.000386448
5.52941e-05
-0.000398854
4.22537e-05
-0.000410165
3.28081e-05
-0.000420402
2.87891e-05
-0.000429513
3.0845e-05
-0.000437463
4.018e-05
-0.000444166
5.69023e-05
-0.00044953
8.08419e-05
-0.000453421
0.000110739
-0.000455686
0.000144376
-0.000456118
0.000178652
-0.000454485
0.0002094
-0.000450512
0.000231778
-0.000443905
0.000240592
-0.000434351
0.000230831
-0.000421548
0.000198329
-0.000405215
0.000140326
-0.000385159
5.6425e-05
-0.000361271
-5.15163e-05
-0.000333529
-0.000178796
-0.000302018
-0.000318487
-0.000266928
-0.000461532
-0.000598009
-0.000373096
6.83687e-05
-0.000385087
5.42445e-05
-0.00039596
4.36808e-05
-0.000405728
3.85576e-05
-0.000414339
3.94555e-05
-0.000421752
4.75938e-05
-0.000427882
6.30322e-05
-0.000432637
8.55965e-05
-0.000435885
0.000113987
-0.000437474
0.000145966
-0.000437203
0.000178381
-0.000434842
0.000207039
-0.000430123
0.000227059
-0.000422756
0.000233225
-0.000412439
0.000220515
-0.000398881
0.00018477
-0.000381816
0.000123261
-0.000361071
3.56799e-05
-0.000336567
-7.60204e-05
-0.000308296
-0.000207066
-0.000276379
-0.000350404
-0.000241032
-0.000496879
-0.000636526
-0.000358166
8.10049e-05
-0.000369702
6.57807e-05
-0.000380097
5.40762e-05
-0.000389358
4.78186e-05
-0.000397428
4.75248e-05
-0.000404263
5.4429e-05
-0.000409777
6.8546e-05
-0.000413878
8.96975e-05
-0.000416437
0.000116546
-0.000417306
0.000146834
-0.000416285
0.000177361
-0.000413151
0.000203905
-0.000407642
0.00022155
-0.000399476
0.000225059
-0.000388362
0.0002094
-0.000374017
0.000170425
-0.000356197
0.000105442
-0.000334742
1.42241e-05
-0.000309607
-0.000101155
-0.000280796
-0.000235877
-0.000248463
-0.000382738
-0.000212848
-0.000532494
-0.000675139
-0.000341702
9.31664e-05
-0.000352748
7.68273e-05
-0.000362632
6.39603e-05
-0.000371352
5.65377e-05
-0.000378845
5.50181e-05
-0.000385066
6.06502e-05
-0.000389927
7.34071e-05
-0.000393337
9.31071e-05
-0.000395169
0.000118379
-0.000395277
0.000146942
-0.000393469
0.000175552
-0.000389525
0.000199961
-0.000383191
0.000215217
-0.000374195
0.000216063
-0.000362256
0.00019746
-0.000347103
0.000155272
-0.000328506
8.68453e-05
-0.000306342
-7.93984e-06
-0.000280563
-0.000126934
-0.000251207
-0.000265233
-0.000218455
-0.00041549
-0.00018257
-0.000568379
-0.000143857
-0.000713852
-0.000841957
-0.000323752
0.000104822
-0.000334278
8.73541e-05
-0.000343622
7.33038e-05
-0.000351771
6.46864e-05
-0.000358659
6.19068e-05
-0.000364237
6.62281e-05
-0.000368416
7.75855e-05
-0.000371103
9.57944e-05
-0.000372177
0.000119453
-0.000371493
0.000146258
-0.000368865
0.000172924
-0.000364082
0.000195178
-0.000356897
0.000208032
-0.000347048
0.000206214
-0.000334265
0.000184677
-0.00031829
0.000139297
-0.000298911
6.74667e-05
-0.000276033
-3.08178e-05
-0.000249612
-0.000153356
-0.000219716
-0.000295128
-0.00018655
-0.000448656
-0.000150399
-0.00060453
-0.000111586
-0.000752665
-0.000883112
-0.000304363
0.000115944
-0.000314345
9.73362e-05
-0.000323125
8.20835e-05
-0.00033068
7.22419e-05
-0.000336942
6.81685e-05
-0.000341854
7.11401e-05
-0.000345327
8.10581e-05
-0.000347268
9.77359e-05
-0.00034756
0.000119744
-0.00034606
0.000144759
-0.00034259
0.000169455
-0.000336947
0.000189534
-0.000328892
0.000199977
-0.000318174
0.000195496
-0.000304537
0.00017104
-0.000287735
0.000122496
-0.00026758
4.73111e-05
-0.000243989
-5.44085e-05
-0.000216935
-0.000180409
-0.000186513
-0.000325551
-0.000152946
-0.000482223
-0.00011654
-0.000640936
-7.76361e-05
-0.000791569
-0.000924182
-0.000283586
0.000126511
-0.000293003
0.000106754
-0.000301201
9.02814e-05
-0.000308147
7.91878e-05
-0.000313766
7.37874e-05
-0.000317997
7.53708e-05
-0.000320748
8.38092e-05
-0.000321928
9.89154e-05
-0.00032142
0.000119237
-0.000319089
0.000142428
-0.000314762
0.000165128
-0.000308245
0.000183016
-0.000299309
0.000191042
-0.000287717
0.000183904
-0.000273223
0.000156546
-0.000255597
0.000104871
-0.000234668
2.63819e-05
-0.000210386
-7.86907e-05
-0.000182718
-0.000208077
-0.00015179
-0.000356478
-0.000117845
-0.000516168
-8.12029e-05
-0.000677578
-4.22209e-05
-0.000830551
-0.000965184
-0.000261469
0.000136507
-0.000270308
0.000115593
-0.000277912
9.78857e-05
-0.000284238
8.55137e-05
-0.000289205
7.87545e-05
-0.000292746
7.89115e-05
-0.000294767
8.58306e-05
-0.000295176
9.93247e-05
-0.000293862
0.000117923
-0.000290692
0.000139258
-0.000285501
0.000159937
-0.000278104
0.000175619
-0.000268286
0.000181224
-0.00025582
0.000171438
-0.000240474
0.000141199
-0.000222043
8.64397e-05
-0.000200355
4.69392e-06
-0.000175402
-0.000103643
-0.000147145
-0.000236335
-0.00011574
-0.000387883
-8.14442e-05
-0.000550465
-4.45926e-05
-0.000714429
-5.54311e-06
-0.0008696
-0.00100604
-0.00023806
0.000145919
-0.000246312
0.000123845
-0.000253317
0.000104891
-0.000259019
9.12158e-05
-0.000263332
8.30674e-05
-0.000266181
8.17611e-05
-0.000267472
8.71215e-05
-0.000267111
9.89633e-05
-0.00026499
0.000115801
-0.00026098
0.000135249
-0.000254927
0.000153884
-0.000246655
0.000167347
-0.00023596
0.000170528
-0.00022263
0.000158108
-0.000206447
0.000125016
-0.000187209
6.7202e-05
-0.000164828
-1.76875e-05
-0.000139211
-0.00012926
-0.000110399
-0.000265147
-7.85539e-05
-0.000419728
-4.39425e-05
-0.000585076
-6.90079e-06
-0.000751471
3.21463e-05
-0.000908647
-0.00104678
-0.000213407
0.000154741
-0.000221069
0.000131507
-0.000227475
0.000111296
-0.000232556
9.62969e-05
-0.000236219
8.67308e-05
-0.000238384
8.39255e-05
-0.000238951
8.76887e-05
-0.000237826
9.78386e-05
-0.000234905
0.000112881
-0.000230066
0.000130409
-0.00022316
0.000146978
-0.000214023
0.00015821
-0.000202465
0.00015897
-0.000188289
0.000143932
-0.000171288
0.000108015
-0.000151293
4.72075e-05
-0.000128213
-4.07679e-05
-0.000101987
-0.000155485
-7.26604e-05
-0.000294474
-4.04164e-05
-0.000451972
-5.51026e-06
-0.000619982
3.16251e-05
-0.000788606
7.06766e-05
-0.000947699
-0.00108736
-0.000187555
0.000162975
-0.000194631
0.000138583
-0.000200444
0.000117109
-0.000204913
0.000100766
-0.000207938
8.97561e-05
-0.00020943
8.54179e-05
-0.000209288
8.75467e-05
-0.000207416
9.59658e-05
-0.000203711
0.000109177
-0.000198058
0.000124756
-0.000190317
0.000139237
-0.000180335
0.000148227
-0.000167935
0.000146571
-0.000152937
0.000128933
-0.000135147
9.02246e-05
-0.000114427
2.64882e-05
-9.06967e-05
-6.44983e-05
-6.38972e-05
-0.000182284
-3.41025e-05
-0.000324269
-1.43586e-06
-0.000484639
3.35882e-05
-0.000655006
7.08323e-05
-0.00082585
0.000109837
-0.000986703
-0.00112775
-0.000160547
0.000170625
-0.000167046
0.000145081
-0.000172279
0.000122342
-0.000176152
0.000104639
-0.000178557
9.21614e-05
-0.000179398
8.62587e-05
-0.000178568
8.67172e-05
-0.00017597
9.33678e-05
-0.000171506
0.000104713
-0.000165064
0.000118314
-0.000156513
0.000130686
-0.000145713
0.000137427
-0.000132501
0.000133359
-0.000116711
0.000113143
-9.8176e-05
7.16896e-05
-7.67631e-05
5.07527e-06
-5.24288e-05
-8.88326e-05
-2.51024e-05
-0.000209611
5.12872e-06
-0.0003545
3.79776e-05
-0.000517488
7.32413e-05
-0.00069027
0.000110523
-0.000863131
0.000149431
-0.00102561
-0.00116792
-0.000132424
0.000177703
-0.000138361
0.000151018
-0.000143033
0.000127014
-0.000146332
0.000107938
-0.000148142
9.3972e-05
-0.000148359
8.64752e-05
-0.000146871
8.52295e-05
-0.000143578
9.00749e-05
-0.000138386
9.95205e-05
-0.000131187
0.000111115
-0.00012186
0.000121359
-0.000110277
0.000125844
-9.62891e-05
0.000119371
-7.9747e-05
9.66009e-05
-6.04923e-05
5.24348e-05
-3.84678e-05
-1.69493e-05
-1.35529e-05
-0.000113747
1.42341e-05
-0.000237398
4.47772e-05
-0.000385043
7.78861e-05
-0.000550596
0.000113255
-0.000725639
0.000150513
-0.000900389
0.000189271
-0.00106437
-0.00120782
-0.000103222
0.00018423
-0.00010862
0.000156416
-0.000112756
0.00013115
-0.00011551
0.000110692
-0.000116757
9.52193e-05
-0.000116384
8.61019e-05
-0.000114274
8.31199e-05
-0.000110324
8.61252e-05
-0.000104443
9.36389e-05
-9.65274e-05
0.0001032
-8.64649e-05
0.000111297
-7.41401e-05
0.000113519
-5.94204e-05
0.000104651
-4.21696e-05
7.93501e-05
-2.22624e-05
3.25276e-05
4.28558e-07
-3.96402e-05
2.57564e-05
-0.000139075
5.39419e-05
-0.000265583
8.478e-05
-0.000415881
0.000118053
-0.00058387
0.000153459
-0.000761045
0.000190629
-0.000937559
0.000229181
-0.00110292
-0.0012474
-7.2976e-05
0.000190231
-7.78637e-05
0.000161304
-8.14963e-05
0.000134782
-8.37401e-05
0.000112936
-8.44624e-05
9.59416e-05
-8.35402e-05
8.51797e-05
-8.08519e-05
8.04315e-05
-7.62901e-05
8.15634e-05
-6.97653e-05
8.71141e-05
-6.11803e-05
9.46148e-05
-5.04306e-05
0.000100547
-3.74135e-05
0.000100502
-2.20108e-05
8.92488e-05
-4.09933e-06
6.14387e-05
1.63912e-05
1.20371e-05
3.95253e-05
-6.27743e-05
6.53782e-05
-0.000164928
9.39018e-05
-0.000294107
0.000124957
-0.000446936
0.000158322
-0.000617235
0.000193693
-0.000796417
0.000230707
-0.000974572
0.000268989
-0.0011412
-0.0012866
-4.17166e-05
0.00019574
-4.61304e-05
0.000165718
-4.92981e-05
0.00013795
-5.10736e-05
0.000114711
-5.13155e-05
9.61835e-05
-4.98919e-05
8.3756e-05
-4.66747e-05
7.72143e-05
-4.15526e-05
7.64412e-05
-3.44376e-05
7.99991e-05
-2.52375e-05
8.54146e-05
-1.38554e-05
8.91647e-05
-1.83492e-07
8.68299e-05
1.58273e-05
7.3238e-05
3.43238e-05
4.29422e-05
5.53472e-05
-8.98639e-06
7.89502e-05
-8.63773e-05
0.000105179
-0.000191157
0.000133966
-0.000322894
0.000165164
-0.000478134
0.000198544
-0.000650615
0.000233805
-0.000831677
0.00027059
-0.00101136
0.000308536
-0.00117915
-0.00132538
-9.47161e-06
0.000200798
-1.34553e-05
0.000169701
-1.62037e-05
0.000140698
-1.7559e-05
0.000116067
-1.73715e-05
9.5996e-05
-1.55003e-05
8.18849e-05
-1.18106e-05
7.35246e-05
-6.18674e-06
7.08173e-05
1.45799e-06
7.23544e-05
1.12139e-05
7.56587e-05
2.31665e-05
7.72121e-05
3.73943e-05
7.26022e-05
5.39891e-05
5.66432e-05
7.3017e-05
2.39143e-05
9.44951e-05
-3.04645e-05
0.000118497
-0.000110379
0.000145027
-0.000217687
0.000174001
-0.000351868
0.000205262
-0.000509395
0.000238577
-0.00068393
0.000273648
-0.000866749
0.000310129
-0.00104784
0.000347671
-0.00121669
-0.00136366
2.37324e-05
2.01284e-05
0.000173305
1.77468e-05
0.00014308
1.6757e-05
0.000117056
1.73169e-05
9.54362e-05
1.95758e-05
7.9626e-05
2.3676e-05
6.94244e-05
2.97382e-05
6.47551e-05
3.78487e-05
6.4244e-05
4.80907e-05
6.54167e-05
6.05459e-05
6.47569e-05
7.52819e-05
5.78662e-05
9.23662e-05
3.95589e-05
0.000111848
4.43286e-06
0.000133719
-5.23362e-05
0.000158046
-0.000134706
0.0001848
-0.00024444
0.00021388
-0.000380948
0.000245121
-0.000540636
0.000278288
-0.000717098
0.000313088
-0.000901548
0.000349186
-0.00108394
0.000386252
-0.00125376
-0.0014014
5.45896e-05
0.000176589
5.25148e-05
0.000145155
5.18293e-05
0.000117742
5.26982e-05
9.45672e-05
5.52794e-05
7.70448e-05
5.97221e-05
6.49817e-05
6.61523e-05
5.83249e-05
7.46562e-05
5.57401e-05
8.53128e-05
5.47601e-05
9.81974e-05
5.18722e-05
0.000113369
4.26945e-05
0.000130882
2.20462e-05
0.00015071
-1.53958e-05
0.000172914
-7.45397e-05
0.000197486
-0.000159279
0.00022438
-0.000271334
0.000253483
-0.000410051
0.000284619
-0.000571772
0.000317551
-0.00075003
0.000351993
-0.00093599
0.000387628
-0.00111957
0.000424146
-0.00129028
-0.00143852
8.98979e-05
0.000179622
8.80626e-05
0.00014699
8.76134e-05
0.000118191
8.87223e-05
9.34584e-05
9.15544e-05
7.42127e-05
9.62664e-05
6.02697e-05
0.00010299
5.16018e-05
0.00011181
4.69194e-05
0.000122803
4.37673e-05
0.000136041
3.86347e-05
0.000151565
2.71698e-05
0.00016941
4.20171e-06
0.000189533
-3.55188e-05
0.000211976
-9.69831e-05
0.00023671
-0.000184012
0.000263658
-0.000298282
0.000292694
-0.000439087
0.000323635
-0.000602713
0.000356243
-0.000782638
0.000390242
-0.000969989
0.000425333
-0.00115466
0.000461227
-0.00132617
-0.00147496
0.000126024
0.000182481
0.000124353
0.000148661
0.000124065
0.000118479
0.000125339
9.21847e-05
0.000128345
7.12062e-05
0.000133248
5.53666e-05
0.000140185
4.46656e-05
0.00014924
3.78635e-05
0.000160489
3.25187e-05
0.000173999
2.5125e-05
0.0001898
1.13682e-05
0.000207858
-1.38565e-05
0.000228205
-5.58652e-05
0.000250809
-0.000119587
0.000275613
-0.000208817
0.000302526
-0.000325195
0.000331405
-0.000467966
0.000362059
-0.000633366
0.000394252
-0.00081483
0.000427719
-0.00100346
0.000462182
-0.00118912
0.000497379
-0.00136137
-0.00151066
0.000162936
0.000185253
0.000161346
0.000150251
0.000161138
0.000118686
0.000162496
9.08273e-05
0.000165595
6.81067e-05
0.000170607
5.03548e-05
0.000177672
3.76007e-05
0.00018688
2.86555e-05
0.000198305
2.10935e-05
0.000211996
1.14342e-05
0.00022796
-4.59589e-06
0.000246173
-3.20699e-05
0.000266645
-7.63367e-05
0.000289316
-0.000142258
0.000314099
-0.0002336
0.000340883
-0.000351979
0.00036951
-0.000496593
0.000399782
-0.000663638
0.000431467
-0.000846515
0.000464314
-0.0010363
0.000498068
-0.00122288
0.000532494
-0.00139579
-0.00154556
0.000200602
0.000188035
0.000199001
0.000151852
0.000198786
0.000118902
0.00020014
8.94727e-05
0.000203246
6.50007e-05
0.00020828
4.53212e-05
0.000215387
3.04933e-05
0.000224668
1.93751e-05
0.000236168
9.59338e-06
0.000249946
-2.34434e-06
0.000265963
-2.06121e-05
0.000284257
-5.03643e-05
0.000304765
-9.68444e-05
0.000327406
-0.0001649
0.000352073
-0.000258266
0.000378631
-0.000378537
0.000406909
-0.000524872
0.000436703
-0.000693433
0.000467786
-0.000877598
0.000499924
-0.00106844
0.000532887
-0.00125584
0.00056647
-0.00142938
-0.00157959
0.000238986
0.000190935
0.000237275
0.000153563
0.000236956
0.000119221
0.000238215
8.82131e-05
0.000241237
6.19788e-05
0.000246203
4.03556e-05
0.000253268
2.34279e-05
0.000262514
1.0129e-05
0.000274011
-1.90381e-06
0.000287737
-1.60698e-05
0.000303762
-3.66369e-05
0.000322029
-6.8632e-05
0.000342476
-0.000117291
0.00036499
-0.000187414
0.000389441
-0.000282717
0.000415674
-0.00040477
0.000443504
-0.000552702
0.000472723
-0.000722651
0.000503111
-0.000907986
0.000534452
-0.00109978
0.000566544
-0.00128793
0.000599214
-0.00146205
-0.0016127
0.000278046
0.00019407
0.000276116
0.000155494
0.000275592
0.000119746
0.000276659
8.71462e-05
0.000279501
5.91359e-05
0.000284307
3.55503e-05
0.000291228
1.65065e-05
0.00030037
9.87469e-07
0.000311701
-1.3235e-05
0.000325339
-2.97084e-05
0.000341257
-5.25546e-05
0.00035941
-8.67847e-05
0.000379693
-0.000137575
0.000401979
-0.0002097
0.000426113
-0.000306851
0.000451921
-0.000430578
0.000479202
-0.000579984
0.000507748
-0.000751197
0.000537346
-0.000937584
0.000567804
-0.00113024
0.000598948
-0.00131908
0.000630639
-0.00149374
-0.00164483
0.000317735
0.000197567
0.000315469
0.000157759
0.000314631
0.000120584
0.000315403
8.63746e-05
0.000317968
5.65708e-05
0.000322518
3.09998e-05
0.000329214
9.81085e-06
0.000338087
-7.88568e-06
0.000349216
-2.43634e-05
0.000362652
-4.31449e-05
0.00037838
-6.82828e-05
0.000396313
-0.000104717
0.000416332
-0.000157594
0.000438288
-0.000231656
0.000462002
-0.000330565
0.00048728
-0.000455856
0.000513912
-0.000606616
0.000541686
-0.00077897
0.000570403
-0.000966301
0.000599893
-0.00115973
0.000630015
-0.0013492
0.000660665
-0.00152439
-0.00167593
0.000357996
0.000201565
0.00035527
0.000160485
0.000354003
0.000121851
0.000354372
8.60055e-05
0.000356558
5.4385e-05
0.000360763
2.67949e-05
0.000367115
3.45841e-06
0.000375635
-1.64051e-05
0.00038646
-3.51886e-05
0.000399613
-5.62978e-05
0.000415043
-8.37132e-05
0.000432653
-0.000122326
0.000452306
-0.000177247
0.000473828
-0.000253178
0.000497019
-0.000353755
0.000521664
-0.000480501
0.000547544
-0.000632496
0.000574449
-0.000805875
0.000602195
-0.000994047
0.000630636
-0.00118817
0.000659667
-0.00137823
0.000689217
-0.00155394
-0.00170595
0.000398763
0.00020621
0.000395445
0.000163803
0.000393629
0.000123667
0.000393484
8.61506e-05
0.000395187
5.26817e-05
0.000398933
2.30487e-05
0.000404832
-2.4406e-06
0.000412929
-2.45017e-05
0.000423361
-4.56208e-05
0.000436125
-6.90616e-05
0.000451157
-9.87448e-05
0.000468344
-0.000139514
0.000487529
-0.000196432
0.000508514
-0.000274164
0.000531076
-0.000376317
0.000554985
-0.00050441
0.000580013
-0.000657524
0.000605954
-0.000831816
0.000632642
-0.00102073
0.000659959
-0.00121549
0.000687833
-0.00140611
0.000716233
-0.00158234
-0.00173486
0.000439955
0.000211655
0.000435908
0.00016785
0.000433418
0.000126157
0.000432644
8.69245e-05
0.000433756
5.15693e-05
0.000436952
1.98532e-05
0.000442279
-7.76822e-06
0.000449874
-3.20968e-05
0.000459817
-5.55636e-05
0.000472094
-8.13382e-05
0.000486631
-0.000113282
0.000503297
-0.00015618
0.000521913
-0.000215048
0.000542259
-0.000294509
0.00056409
-0.000398148
0.00058716
-0.000527481
0.000611237
-0.000681601
0.000636123
-0.000856702
0.000661671
-0.00104628
0.000687792
-0.00124161
0.000714454
-0.00143277
0.000741657
-0.00160954
-0.00176263
0.000481476
0.000476556
0.00017277
0.000473264
0.000129449
0.000471745
8.84438e-05
0.000472161
5.11529e-05
0.000474683
1.73313e-05
0.000479379
-1.24645e-05
0.000486365
-3.90823e-05
0.000495726
-6.49246e-05
0.000507424
-9.3036e-05
0.000521373
-0.000127231
0.000537422
-0.000172229
0.000555371
-0.000232997
0.000574976
-0.000314114
0.000595973
-0.000419146
0.000618105
-0.000549612
0.000641135
-0.000704632
0.000664876
-0.000880443
0.000689204
-0.00107061
0.000714065
-0.00126647
0.000739459
-0.00145816
0.000765426
-0.00163551
-0.00178921
0.000517272
0.00017871
0.000513045
0.000133676
0.000510661
9.08275e-05
0.000510273
5.15409e-05
0.000512016
1.55885e-05
0.000515982
-1.64303e-05
0.000522281
-4.53811e-05
0.000530969
-7.36129e-05
0.000542001
-0.000104068
0.000555272
-0.000140502
0.000570613
-0.00018757
0.000587798
-0.000250182
0.000606563
-0.000332879
0.000626624
-0.000439207
0.000647714
-0.000570702
0.000669598
-0.000726516
0.000692104
-0.000902949
0.000715134
-0.00109364
0.000738667
-0.00129
0.000762744
-0.00148224
0.000787439
-0.0016602
-0.0018146
0.000557956
0.000185827
0.000552655
0.000138977
0.000549283
9.41994e-05
0.000547978
5.28457e-05
0.000548849
1.47178e-05
0.000551984
-1.95659e-05
0.000557497
-5.08938e-05
0.000565423
-8.15385e-05
0.000575699
-0.000114344
0.000588203
-0.000153006
0.000602741
-0.000202108
0.000619066
-0.000266507
0.000636892
-0.000350704
0.000655919
-0.000458235
0.000675872
-0.000590655
0.000696523
-0.000747167
0.000717717
-0.000924142
0.000739385
-0.00111531
0.000761544
-0.00131216
0.000784272
-0.00150497
0.000807675
-0.00168361
-0.00183879
0.000598539
0.000194265
0.000592037
0.000145479
0.000587559
9.86769e-05
0.000585222
5.51829e-05
0.000585116
1.48245e-05
0.000587332
-2.17825e-05
0.000591968
-5.55293e-05
0.000599036
-8.86064e-05
0.000608457
-0.000123765
0.000620091
-0.00016464
0.000633725
-0.000215742
0.00064909
-0.000281873
0.000665884
-0.000367498
0.000683794
-0.000476146
0.000702544
-0.000609404
0.000721913
-0.000766536
0.000741766
-0.000943995
0.000762064
-0.00113561
0.000782855
-0.00133295
0.000804247
-0.00152636
0.000826377
-0.00170574
-0.00186178
0.00264643
0.000221124
0.00262662
0.000165294
0.00261374
0.000111556
0.00260807
6.08556e-05
0.00260943
1.34623e-05
0.00261888
-3.12365e-05
0.00263708
-7.37289e-05
0.00266437
-0.000115896
0.0027013
-0.000160692
0.0027482
-0.000211537
0.0028051
-0.000272649
0.00287171
-0.00034848
0.0029473
-0.000443088
0.0030307
-0.00055955
0.00312039
-0.000699095
0.00321455
-0.00086069
0.00331123
-0.00104068
0.00340853
-0.0012329
0.00350474
-0.00142917
0.00359847
-0.00162008
0.00368865
-0.00179592
0.00377464
-0.00194777
-0.00206834
0.00334954
0.000266678
0.00331305
0.000201787
0.0032852
0.000139404
0.00326589
8.01641e-05
0.00325551
2.3849e-05
0.00325414
-2.98754e-05
0.00326215
-8.17347e-05
0.00328014
-0.00013389
0.00330839
-0.000188941
0.00334706
-0.000250203
0.003396
-0.000321587
0.00345471
-0.000407188
0.00352228
-0.000510665
0.00359741
-0.00063468
0.00367846
-0.000780142
0.00376355
-0.000945778
0.00385073
-0.00112786
0.00393812
-0.00132029
0.00402404
-0.0015151
0.00410713
-0.00170317
0.00418638
-0.00187517
0.00426118
-0.00202257
-0.00213853
0.00412797
0.000332814
0.00407266
0.000257101
0.00402758
0.000184477
0.00399254
0.000115203
0.00396752
4.88706e-05
0.0039526
-1.49478e-05
0.00394803
-7.71734e-05
0.00395413
-0.000139984
0.00397107
-0.000205879
0.00399886
-0.000277993
0.0040372
-0.000359934
0.00408545
-0.000455433
0.00414254
-0.00056776
0.00420704
-0.000699176
0.00427718
-0.000850281
0.004351
-0.0010196
0.00442647
-0.00120334
0.00450169
-0.0013955
0.00457494
-0.00158835
0.00464488
-0.00177311
0.00471057
-0.00194086
0.00477152
-0.00208352
-0.00219471
0.00495281
0.000417216
0.00487991
0.000330002
0.00481805
0.000246334
0.00476704
0.000166218
0.00472675
8.91571e-05
0.00469722
1.45844e-05
0.00467871
-5.86682e-05
0.00467131
-0.000132585
0.00467512
-0.00020969
0.00469002
-0.000292887
0.00471558
-0.000385493
0.00475102
-0.000490878
0.00479518
-0.000611919
0.0048465
-0.00075049
0.00490311
-0.000906894
0.00496297
-0.00107946
0.00502401
-0.00126437
0.00508427
-0.00145576
0.00514208
-0.00164616
0.00519614
-0.00182717
0.00524565
-0.00199036
0.00529027
-0.00212814
-0.00223464
0.00578059
0.000512447
0.00569575
0.000414838
0.00562131
0.000320775
0.00555734
0.000230188
0.00550391
0.000142592
0.00546118
5.73147e-05
0.00542937
-2.68646e-05
0.00540862
-0.000111827
0.00539895
-0.000200026
0.00540018
-0.000294116
0.00541181
-0.00039712
0.00543298
-0.000512046
0.00546244
-0.000641383
0.00549858
-0.000786627
0.00553948
-0.000947798
0.00558307
-0.00112305
0.00562728
-0.00130858
0.00567019
-0.00149867
0.0057102
-0.00168618
0.00574617
-0.00186313
0.00577746
-0.00202165
0.00580396
-0.00215465
-0.00225677
0.00656152
0.000607573
0.00647395
0.000502411
0.00639454
0.000400183
0.00632384
0.000300883
0.0062623
0.00020413
0.00621037
0.00010925
0.00616834
1.51653e-05
0.0061365
-7.9985e-05
0.00611495
-0.000178483
0.00610349
-0.000282648
0.0061016
-0.000395236
0.00610843
-0.000518878
0.00612273
-0.000655675
0.00614287
-0.000806766
0.00616697
-0.000971902
0.00619302
-0.0011491
0.00621902
-0.00133459
0.00624319
-0.00152284
0.00626409
-0.00170708
0.00628077
-0.00187982
0.00629285
-0.00203373
0.00630047
-0.00216227
-0.00226059
0.00725299
0.00069188
0.00717255
0.000582847
0.00709707
0.000475663
0.00702752
0.000370428
0.00696474
0.000266917
0.00690947
0.000164517
0.00686227
6.23653e-05
0.00682346
-4.11763e-05
0.00679347
-0.000148491
0.00677204
-0.000261212
0.00675876
-0.00038196
0.00675283
-0.000512947
0.00675305
-0.000655898
0.0067579
-0.000811615
0.00676561
-0.000979609
0.00677429
-0.00115779
0.00678215
-0.00134244
0.00678759
-0.00152828
0.00678944
-0.00170893
0.00678701
-0.00187739
0.00678017
-0.00202689
0.00676935
-0.00215144
-0.00224667
0.00783122
0.00075831
0.00776528
0.000648792
0.00770106
0.000539879
0.00763975
0.000431734
0.00758239
0.000324281
0.00752994
0.000216963
0.00748323
0.000109082
0.00744246
-4.07627e-07
0.00740849
-0.000114519
0.00738099
-0.000233716
0.00735972
-0.000360688
0.00734395
-0.000497181
0.00733262
-0.000644571
0.00732436
-0.000803348
0.00731756
-0.000972816
0.00731059
-0.00115081
0.00730186
-0.00133372
0.0072901
-0.00151651
0.00727441
-0.00169324
0.0072544
-0.00185738
0.00723025
-0.00200274
0.00720262
-0.00212382
-0.00221666
0.00829472
0.000804714
0.00824643
0.000697078
0.00819739
0.000588926
0.00814869
0.000480428
0.00810141
0.000371565
0.00805648
0.00026189
0.00801471
0.000150858
0.00797694
3.73633e-05
0.0079431
-8.06777e-05
0.00791366
-0.000204279
0.00788822
-0.000335251
0.0078662
-0.000475161
0.00784668
-0.000625047
0.00782845
-0.000785117
0.00781015
-0.000954514
0.00779037
-0.00113104
0.00776786
-0.00131121
0.00774163
-0.00149028
0.0077111
-0.00166271
0.0076762
-0.00182248
0.00763738
-0.00196392
0.00759555
-0.00208198
-0.00217309
0.00865924
0.000832913
0.00862793
0.000728393
0.00859436
0.000622499
0.00855942
0.000515368
0.00852401
0.000406968
0.00848894
0.00029696
0.00845503
0.00018477
0.00842286
6.9532e-05
0.00839253
-5.03453e-05
0.00836441
-0.00017616
0.00833817
-0.000309012
0.00831329
-0.000450286
0.00828899
-0.000600739
0.00826422
-0.000760346
0.00823783
-0.00092813
0.0082087
-0.0011019
0.00817583
-0.00127834
0.00813855
-0.001453
0.0080966
-0.00162075
0.00805017
-0.00177606
0.00799996
-0.00191371
0.00794707
-0.00202909
-0.00211894
0.00894898
0.000846797
0.0089316
0.000745774
0.00891131
0.00064279
0.00888874
0.000537936
0.00886458
0.000431136
0.00883943
0.000322108
0.00881393
0.000210271
0.00878851
9.49473e-05
0.00876327
-2.51059e-05
0.00873842
-0.000151304
0.00871365
-0.000284241
0.00868847
-0.000425113
0.00866218
-0.00057445
0.00863389
-0.000732048
0.00860261
-0.000896859
0.00856745
-0.00106674
0.00852768
-0.00123857
0.00848287
-0.00140819
0.00843301
-0.00157089
0.00837853
-0.00172158
0.00832032
-0.0018555
0.00825962
-0.00196839
-0.00205727
0.00918861
0.000850597
0.0091814
0.000752985
0.00917115
0.000653037
0.00915829
0.000550798
0.00914328
0.000446149
0.00912655
0.000338839
0.00910851
0.000228308
0.00908947
0.000113982
0.00906945
-5.08115e-06
0.00904847
-0.00013032
0.00902622
-0.000261998
0.00900223
-0.000401123
0.00897583
-0.000548042
0.0089462
-0.000702427
0.00891255
-0.000863202
0.00887412
-0.00102831
0.00883037
-0.00119483
0.0087811
-0.00135891
0.00872647
-0.00151626
0.00866708
-0.00166219
0.00860394
-0.00179235
0.00853838
-0.00190283
-0.00199087
0.00939847
0.000847858
0.00939804
0.000753413
0.00939468
0.000656391
0.00938868
0.000556802
0.00938032
0.000454504
0.0093699
0.00034926
0.00935765
0.000240563
0.00934373
0.000127896
0.00932815
1.04992e-05
0.00931068
-0.000112847
0.00929106
-0.000242378
0.00926878