/*--------------------------------*- C++ -*----------------------------------*\
  =========                 |
  \\      /  F ield         | OpenFOAM: The Open Source CFD Toolbox
   \\    /   O peration     | Website:  https://openfoam.org
    \\  /    A nd           | Version:  7
     \\/     M anipulation  |
\*---------------------------------------------------------------------------*/
FoamFile
{
    version     2.0;
    format      ascii;
    class       volScalarField;
    location    "40";
    object      p;
}
// * * * * * * * * * * * * * * * * * * * * * * * * * * * * * * * * * * * * * //

dimensions      [0 2 -2 0 0 0 0];

internalField   nonuniform List<scalar> 
7156
(
-0.234156
-0.234953
-0.23546
-0.235911
-0.23419
-0.234986
-0.235492
-0.235942
-0.23425
-0.235043
-0.235548
-0.235996
-0.234336
-0.235125
-0.235627
-0.236072
-0.234447
-0.235231
-0.23573
-0.236172
-0.234584
-0.235361
-0.235856
-0.236294
-0.234747
-0.235516
-0.236005
-0.236439
-0.234934
-0.235694
-0.236177
-0.236606
-0.235145
-0.235895
-0.236372
-0.236794
-0.23538
-0.236119
-0.236589
-0.237004
-0.235639
-0.236365
-0.236827
-0.237235
-0.23592
-0.236634
-0.237087
-0.237487
-0.236224
-0.236924
-0.237368
-0.237759
-0.23655
-0.237235
-0.23767
-0.238052
-0.238389
-0.236896
-0.237567
-0.237991
-0.238363
-0.238691
-0.237264
-0.237919
-0.238333
-0.238694
-0.239011
-0.237652
-0.238291
-0.238693
-0.239044
-0.23935
-0.23806
-0.238682
-0.239073
-0.239412
-0.239706
-0.238487
-0.239092
-0.239471
-0.239798
-0.240079
-0.238933
-0.239521
-0.239887
-0.240202
-0.24047
-0.239397
-0.239968
-0.240322
-0.240623
-0.240877
-0.241083
-0.23988
-0.240433
-0.240773
-0.241061
-0.241301
-0.241492
-0.24038
-0.240915
-0.241243
-0.241516
-0.241742
-0.241916
-0.240898
-0.241416
-0.241729
-0.241988
-0.242198
-0.242356
-0.241434
-0.241933
-0.242233
-0.242477
-0.24267
-0.242811
-0.242906
-0.241987
-0.242469
-0.242754
-0.242982
-0.243159
-0.243281
-0.243357
-0.242558
-0.243021
-0.243292
-0.243504
-0.243663
-0.243767
-0.243822
-0.243146
-0.243592
-0.243848
-0.244043
-0.244184
-0.244267
-0.244301
-0.243753
-0.24418
-0.24442
-0.244599
-0.24472
-0.244783
-0.244794
-0.244761
-0.244378
-0.244787
-0.245011
-0.245172
-0.245273
-0.245314
-0.245302
-0.245244
-0.245022
-0.245412
-0.24562
-0.245762
-0.245842
-0.24586
-0.245824
-0.245739
-0.245685
-0.246056
-0.246247
-0.246369
-0.246428
-0.246422
-0.24636
-0.246248
-0.246367
-0.24672
-0.246893
-0.246996
-0.247031
-0.247
-0.246911
-0.246771
-0.246587
-0.247071
-0.247404
-0.247559
-0.24764
-0.247652
-0.247595
-0.247477
-0.247307
-0.247092
-0.247796
-0.248109
-0.248246
-0.248305
-0.248291
-0.248206
-0.248059
-0.247858
-0.247609
-0.248543
-0.248836
-0.248953
-0.248989
-0.248949
-0.248835
-0.248657
-0.248423
-0.24814
-0.247817
-0.249314
-0.249586
-0.249683
-0.249694
-0.249627
-0.249483
-0.249271
-0.249003
-0.248684
-0.248324
-0.25011
-0.250361
-0.250436
-0.250422
-0.250325
-0.250149
-0.249903
-0.249598
-0.249242
-0.248844
-0.250933
-0.25116
-0.251213
-0.251172
-0.251044
-0.250834
-0.250552
-0.250209
-0.249814
-0.249376
-0.248901
-0.251782
-0.251987
-0.252016
-0.251946
-0.251786
-0.251541
-0.251221
-0.250837
-0.250401
-0.249921
-0.249404
-0.252662
-0.252841
-0.252845
-0.252746
-0.252552
-0.252269
-0.251908
-0.251483
-0.251004
-0.25048
-0.24992
-0.249327
-0.253572
-0.253726
-0.253703
-0.253573
-0.253342
-0.25302
-0.252617
-0.252147
-0.251623
-0.251053
-0.250447
-0.24981
-0.254515
-0.254642
-0.254592
-0.254428
-0.254159
-0.253794
-0.253347
-0.252831
-0.252259
-0.251642
-0.250988
-0.250303
-0.24959
-0.255494
-0.255592
-0.255512
-0.255313
-0.255004
-0.254595
-0.254101
-0.253536
-0.252913
-0.252246
-0.251542
-0.250809
-0.250048
-0.25651
-0.256577
-0.256466
-0.256229
-0.255878
-0.255422
-0.254879
-0.254262
-0.253588
-0.252868
-0.252112
-0.251328
-0.250518
-0.257566
-0.2576
-0.257456
-0.257179
-0.256783
-0.256279
-0.255683
-0.255013
-0.254283
-0.253508
-0.252698
-0.25186
-0.250999
-0.250113
-0.258664
-0.258663
-0.258484
-0.258165
-0.257721
-0.257165
-0.256515
-0.255788
-0.255001
-0.254168
-0.253301
-0.252409
-0.251494
-0.250556
-0.259807
-0.259769
-0.259552
-0.259189
-0.258695
-0.258084
-0.257377
-0.256591
-0.255744
-0.254851
-0.253925
-0.252974
-0.252004
-0.251014
-0.249999
-0.260998
-0.26092
-0.260663
-0.260253
-0.259705
-0.259038
-0.25827
-0.257422
-0.256513
-0.255557
-0.25457
-0.253559
-0.252531
-0.251487
-0.250421
-0.26224
-0.262119
-0.261819
-0.261359
-0.260756
-0.260028
-0.259198
-0.258285
-0.25731
-0.25629
-0.255238
-0.254166
-0.253079
-0.251978
-0.250861
-0.249718
-0.263536
-0.263368
-0.263023
-0.26251
-0.261848
-0.261058
-0.260162
-0.259182
-0.258139
-0.257051
-0.255934
-0.254797
-0.253649
-0.25249
-0.25132
-0.25013
-0.248909
-0.264889
-0.264671
-0.264278
-0.263709
-0.262986
-0.262129
-0.261164
-0.260114
-0.259001
-0.257844
-0.256658
-0.255455
-0.254244
-0.253026
-0.251801
-0.250563
-0.249304
-0.266303
-0.266031
-0.265586
-0.264959
-0.26417
-0.263245
-0.262208
-0.261086
-0.259899
-0.25867
-0.257414
-0.256144
-0.254868
-0.25359
-0.252309
-0.251022
-0.249723
-0.248408
-0.267781
-0.267451
-0.266951
-0.266261
-0.265404
-0.264407
-0.263296
-0.262098
-0.260837
-0.259533
-0.258205
-0.256866
-0.255523
-0.254183
-0.252845
-0.251508
-0.250168
-0.248825
-0.269327
-0.268934
-0.268376
-0.26762
-0.266692
-0.265619
-0.264431
-0.263155
-0.261816
-0.260437
-0.259035
-0.257624
-0.256214
-0.254811
-0.253414
-0.252024
-0.25064
-0.249265
-0.247915
-0.270943
-0.270483
-0.269863
-0.269038
-0.268034
-0.266884
-0.265616
-0.26426
-0.262841
-0.261383
-0.259906
-0.258423
-0.256944
-0.255475
-0.254018
-0.252574
-0.251142
-0.249729
-0.248353
-0.247058
-0.272635
-0.272102
-0.271416
-0.270518
-0.269436
-0.268204
-0.266854
-0.265414
-0.263914
-0.262377
-0.260822
-0.259265
-0.257715
-0.25618
-0.254661
-0.253159
-0.251675
-0.250215
-0.248801
-0.247473
-0.274405
-0.273793
-0.273038
-0.272063
-0.270899
-0.269583
-0.268147
-0.266623
-0.265039
-0.26342
-0.261786
-0.260154
-0.258532
-0.256928
-0.255344
-0.253781
-0.252239
-0.250725
-0.249258
-0.247874
-0.246662
-0.276257
-0.27556
-0.274732
-0.273677
-0.272427
-0.271024
-0.2695
-0.267888
-0.266218
-0.264516
-0.262802
-0.261093
-0.259398
-0.257723
-0.256071
-0.254441
-0.252834
-0.251256
-0.24972
-0.248258
-0.246944
-0.245755
-0.278194
-0.277407
-0.276501
-0.275361
-0.274023
-0.272529
-0.270914
-0.269213
-0.267456
-0.265669
-0.263874
-0.262086
-0.260315
-0.258567
-0.256843
-0.255142
-0.253462
-0.251807
-0.250187
-0.248624
-0.247177
-0.2458
-0.245046
-0.28022
-0.279336
-0.278348
-0.27712
-0.27569
-0.274102
-0.272394
-0.270601
-0.268755
-0.266882
-0.265003
-0.263135
-0.261286
-0.259462
-0.257662
-0.255882
-0.254121
-0.252376
-0.250655
-0.248969
-0.247362
-0.24577
-0.244669
-0.282338
-0.281351
-0.280276
-0.278956
-0.27743
-0.275746
-0.273943
-0.272056
-0.270119
-0.268158
-0.266195
-0.264244
-0.262315
-0.26041
-0.258528
-0.256663
-0.25481
-0.252963
-0.251123
-0.249293
-0.247502
-0.245675
-0.244215
-0.241353
-0.284551
-0.283454
-0.282288
-0.280872
-0.279247
-0.277464
-0.275563
-0.27358
-0.271551
-0.2695
-0.26745
-0.265415
-0.263402
-0.261413
-0.259443
-0.257485
-0.255528
-0.253565
-0.251588
-0.249594
-0.247599
-0.24552
-0.243697
-0.240556
-0.241796
-0.286863
-0.285648
-0.284387
-0.282871
-0.281144
-0.279259
-0.277257
-0.275178
-0.273053
-0.270912
-0.268774
-0.266651
-0.264551
-0.262471
-0.260406
-0.258345
-0.256273
-0.254178
-0.252048
-0.249871
-0.247654
-0.245312
-0.243128
-0.239722
-0.240029
-0.289276
-0.287937
-0.286575
-0.284956
-0.283122
-0.281133
-0.279029
-0.27685
-0.27463
-0.272396
-0.270166
-0.267954
-0.265761
-0.263586
-0.261418
-0.259242
-0.257042
-0.2548
-0.252499
-0.250123
-0.247669
-0.245054
-0.242516
-0.238858
-0.238327
-0.291793
-0.290322
-0.288856
-0.287129
-0.285186
-0.28309
-0.280882
-0.278602
-0.276284
-0.273954
-0.271631
-0.269325
-0.267035
-0.264756
-0.262476
-0.260175
-0.257833
-0.255428
-0.25294
-0.250348
-0.247644
-0.244752
-0.241868
-0.237969
-0.236689
-0.294416
-0.292805
-0.291231
-0.289393
-0.287338
-0.285132
-0.282817
-0.280434
-0.278017
-0.27559
-0.27317
-0.270765
-0.268372
-0.265982
-0.263579
-0.26114
-0.258641
-0.256057
-0.253366
-0.250544
-0.24758
-0.244406
-0.241188
-0.237058
-0.235112
-0.297147
-0.29539
-0.293702
-0.291749
-0.289579
-0.287261
-0.284838
-0.282351
-0.279832
-0.277305
-0.274784
-0.272275
-0.269772
-0.267262
-0.264724
-0.262133
-0.259462
-0.256683
-0.253773
-0.250708
-0.247476
-0.244019
-0.240478
-0.236126
-0.233592
-0.299988
-0.298077
-0.296272
-0.2942
-0.291913
-0.289481
-0.286948
-0.284353
-0.28173
-0.2791
-0.276475
-0.273856
-0.271235
-0.268594
-0.265909
-0.263151
-0.260292
-0.257303
-0.254158
-0.250838
-0.247331
-0.243591
-0.239739
-0.235172
-0.232118
-0.30294
-0.300869
-0.298941
-0.296749
-0.294341
-0.291792
-0.289147
-0.286444
-0.283714
-0.280977
-0.278242
-0.275506
-0.272757
-0.269974
-0.267128
-0.264189
-0.261126
-0.257909
-0.254517
-0.25093
-0.247144
-0.243121
-0.238971
-0.234195
-0.230684
-0.306005
-0.303765
-0.301712
-0.299395
-0.296864
-0.294197
-0.291438
-0.288624
-0.285784
-0.282936
-0.280085
-0.277225
-0.274338
-0.2714
-0.268379
-0.265242
-0.261957
-0.258498
-0.254844
-0.250983
-0.246912
-0.24261
-0.238173
-0.233193
-0.229278
-0.309183
-0.306768
-0.304586
-0.302141
-0.299484
-0.296697
-0.293822
-0.290894
-0.287942
-0.284978
-0.282005
-0.27901
-0.275974
-0.272866
-0.269654
-0.266302
-0.262781
-0.259064
-0.255136
-0.250992
-0.246635
-0.242054
-0.237342
-0.232163
-0.227891
-0.312474
-0.309877
-0.307562
-0.304987
-0.302203
-0.299294
-0.2963
-0.293257
-0.290187
-0.287102
-0.283998
-0.280859
-0.27766
-0.274369
-0.270948
-0.267365
-0.263589
-0.2596
-0.255388
-0.250953
-0.246308
-0.241453
-0.236475
-0.231103
-0.226513
-0.315878
-0.313093
-0.310642
-0.307933
-0.30502
-0.301987
-0.298873
-0.295711
-0.29252
-0.289306
-0.286063
-0.282768
-0.279393
-0.275901
-0.272255
-0.268422
-0.264376
-0.260101
-0.255595
-0.250864
-0.245931
-0.240805
-0.235571
-0.230008
-0.225135
-0.319394
-0.316414
-0.313824
-0.310981
-0.307937
-0.304778
-0.301541
-0.298256
-0.294938
-0.291589
-0.288196
-0.284732
-0.281165
-0.277456
-0.273567
-0.269467
-0.265135
-0.260561
-0.255751
-0.250721
-0.2455
-0.240107
-0.234625
-0.228876
-0.223746
-0.32302
-0.31984
-0.317108
-0.314128
-0.310952
-0.307665
-0.304303
-0.300891
-0.297441
-0.293948
-0.290393
-0.286747
-0.282971
-0.279026
-0.274875
-0.270491
-0.265858
-0.260974
-0.255853
-0.25052
-0.245011
-0.239356
-0.233635
-0.227703
-0.222339
-0.326756
-0.32337
-0.320493
-0.317375
-0.314064
-0.310649
-0.307159
-0.303615
-0.300025
-0.296378
-0.29265
-0.288805
-0.284803
-0.280603
-0.276173
-0.271487
-0.266538
-0.261333
-0.255895
-0.250257
-0.244463
-0.23855
-0.232596
-0.226485
-0.220905
-0.330597
-0.327
-0.323977
-0.32072
-0.317273
-0.313726
-0.310105
-0.306425
-0.302688
-0.298876
-0.294959
-0.290899
-0.286652
-0.282179
-0.27745
-0.272446
-0.267167
-0.261632
-0.255872
-0.249929
-0.243852
-0.237685
-0.231506
-0.225218
-0.219439
-0.33454
-0.330728
-0.327558
-0.32416
-0.320576
-0.316896
-0.31314
-0.309318
-0.305423
-0.301434
-0.297314
-0.293021
-0.288511
-0.283744
-0.278697
-0.273359
-0.26774
-0.261866
-0.25578
-0.249531
-0.243175
-0.23676
-0.230361
-0.2239
-0.217932
-0.338582
-0.334551
-0.331232
-0.327692
-0.323971
-0.320155
-0.31626
-0.312288
-0.308227
-0.304047
-0.299708
-0.295163
-0.290368
-0.285289
-0.279906
-0.274219
-0.268247
-0.262029
-0.255614
-0.249061
-0.242429
-0.23577
-0.229157
-0.222526
-0.216379
-0.342718
-0.338464
-0.334995
-0.331313
-0.327453
-0.3235
-0.31946
-0.315331
-0.311092
-0.306707
-0.30213
-0.297313
-0.292214
-0.286802
-0.281066
-0.275016
-0.268683
-0.262115
-0.25537
-0.248514
-0.24161
-0.234713
-0.227892
-0.221093
-0.214776
-0.346941
-0.342462
-0.338843
-0.335019
-0.331019
-0.326924
-0.322735
-0.31844
-0.31401
-0.309404
-0.304571
-0.299462
-0.294037
-0.288273
-0.282168
-0.275743
-0.26904
-0.262118
-0.255043
-0.247887
-0.240715
-0.233585
-0.226561
-0.219598
-0.213116
-0.351246
-0.34654
-0.34277
-0.338804
-0.334663
-0.330424
-0.326079
-0.321607
-0.316974
-0.312129
-0.30702
-0.301598
-0.295827
-0.289692
-0.283202
-0.27639
-0.269311
-0.262032
-0.254629
-0.247176
-0.239742
-0.232383
-0.22516
-0.218037
-0.211395
-0.355624
-0.35069
-0.346771
-0.342662
-0.338378
-0.333992
-0.329484
-0.324825
-0.319973
-0.314872
-0.309466
-0.303709
-0.297571
-0.291047
-0.284158
-0.27695
-0.269489
-0.261853
-0.254123
-0.246378
-0.238686
-0.231104
-0.223688
-0.216407
-0.20961
-0.360068
-0.354904
-0.350837
-0.346587
-0.342159
-0.33762
-0.332941
-0.328084
-0.322997
-0.317619
-0.311896
-0.305782
-0.299257
-0.292327
-0.285026
-0.277414
-0.269568
-0.261575
-0.253521
-0.245488
-0.237544
-0.229744
-0.22214
-0.214704
-0.207756
-0.35496
-0.350569
-0.345996
-0.3413
-0.336441
-0.331372
-0.326033
-0.32036
-0.314296
-0.307804
-0.300873
-0.293521
-0.285797
-0.277775
-0.269541
-0.261192
-0.252819
-0.244503
-0.236313
-0.2283
-0.220512
-0.212926
-0.20583
-0.34988
-0.345022
-0.339974
-0.334679
-0.329069
-0.323079
-0.316653
-0.309762
-0.302406
-0.294618
-0.286462
-0.278024
-0.269403
-0.2607
-0.252012
-0.243419
-0.234988
-0.226769
-0.218802
-0.211068
-0.203828
-0.33799
-0.332091
-0.325762
-0.318953
-0.311642
-0.303844
-0.295607
-0.28701
-0.278153
-0.269146
-0.260094
-0.251096
-0.242232
-0.233567
-0.225147
-0.217006
-0.209128
-0.201746
-0.32118
-0.31343
-0.305174
-0.296477
-0.287434
-0.278157
-0.268764
-0.259368
-0.250066
-0.240939
-0.232046
-0.22343
-0.21512
-0.207102
-0.199582
-0.297217
-0.287723
-0.278026
-0.268253
-0.258517
-0.248919
-0.239535
-0.230421
-0.221615
-0.213141
-0.204988
-0.197332
-0.257537
-0.24765
-0.238016
-0.228687
-0.219698
-0.211065
-0.202781
-0.194994
-0.217675
-0.20889
-0.200479
-0.192563
-0.226479
-0.21732
-0.208542
-0.200139
-0.192231
-0.267206
-0.257147
-0.247267
-0.237641
-0.22832
-0.219338
-0.210713
-0.202437
-0.194657
-0.296791
-0.287305
-0.277617
-0.267851
-0.258124
-0.248533
-0.239156
-0.23005
-0.221251
-0.212785
-0.204639
-0.196991
-0.327941
-0.320732
-0.312988
-0.304739
-0.296049
-0.287014
-0.277745
-0.26836
-0.258971
-0.249677
-0.240557
-0.231671
-0.223063
-0.21476
-0.206749
-0.199236
-0.343061
-0.337527
-0.331632
-0.325308
-0.318504
-0.3112
-0.303408
-0.295178
-0.286588
-0.277739
-0.268738
-0.259694
-0.250703
-0.241847
-0.233189
-0.224775
-0.216641
-0.208771
-0.201396
-0.349411
-0.344555
-0.339509
-0.334217
-0.328611
-0.322625
-0.316204
-0.309319
-0.301969
-0.294187
-0.286038
-0.277607
-0.268993
-0.260297
-0.251616
-0.24303
-0.234606
-0.226393
-0.218433
-0.210706
-0.203472
-0.358702
-0.354489
-0.350099
-0.345528
-0.340834
-0.335978
-0.330912
-0.325576
-0.319906
-0.313847
-0.307361
-0.300435
-0.293089
-0.285371
-0.277355
-0.269129
-0.260786
-0.252419
-0.24411
-0.235926
-0.22792
-0.220139
-0.212559
-0.20547
-0.359594
-0.354433
-0.350367
-0.346119
-0.341693
-0.337156
-0.332479
-0.327625
-0.32254
-0.317167
-0.311447
-0.305338
-0.298818
-0.291894
-0.284599
-0.276993
-0.269153
-0.261166
-0.253118
-0.245091
-0.237153
-0.22936
-0.221762
-0.214333
-0.207391
-0.355152
-0.35022
-0.346303
-0.342196
-0.337914
-0.333529
-0.329023
-0.324368
-0.319518
-0.31442
-0.309018
-0.303265
-0.297131
-0.290612
-0.283729
-0.276526
-0.269071
-0.261441
-0.253717
-0.245977
-0.238291
-0.230715
-0.223305
-0.21603
-0.20924
-0.350776
-0.346072
-0.342305
-0.33834
-0.3342
-0.329963
-0.32562
-0.321151
-0.31652
-0.311678
-0.306573
-0.301154
-0.295387
-0.289256
-0.282771
-0.275965
-0.268891
-0.261617
-0.25422
-0.246772
-0.239343
-0.23199
-0.224773
-0.217655
-0.21102
-0.346473
-0.341997
-0.338379
-0.334557
-0.330558
-0.326466
-0.322278
-0.317985
-0.313558
-0.308954
-0.304124
-0.299018
-0.293597
-0.287837
-0.281736
-0.275316
-0.268617
-0.2617
-0.254631
-0.247479
-0.240313
-0.233187
-0.226168
-0.219211
-0.212734
-0.342252
-0.338001
-0.334533
-0.330853
-0.326995
-0.323043
-0.319005
-0.314877
-0.31064
-0.306258
-0.301684
-0.29687
-0.291774
-0.286365
-0.280633
-0.274587
-0.268258
-0.261694
-0.254954
-0.248102
-0.241203
-0.23431
-0.227494
-0.220701
-0.214389
-0.338118
-0.334089
-0.330772
-0.327233
-0.323514
-0.3197
-0.315806
-0.311836
-0.307777
-0.303599
-0.299262
-0.29472
-0.289928
-0.284852
-0.279472
-0.273788
-0.267821
-0.261606
-0.255195
-0.248645
-0.242017
-0.235363
-0.228755
-0.222128
-0.215986
-0.334078
-0.330268
-0.3271
-0.323703
-0.320121
-0.316443
-0.312688
-0.308868
-0.304975
-0.300988
-0.29687
-0.292579
-0.288071
-0.283307
-0.278262
-0.272927
-0.267311
-0.261441
-0.255358
-0.249112
-0.242759
-0.236348
-0.229953
-0.223497
-0.217533
-0.330136
-0.326542
-0.323521
-0.320265
-0.31682
-0.313275
-0.309655
-0.305977
-0.302241
-0.298431
-0.294516
-0.290458
-0.286213
-0.281742
-0.277014
-0.272012
-0.266737
-0.261204
-0.255446
-0.249506
-0.243432
-0.237269
-0.231093
-0.224809
-0.219033
-0.326297
-0.322914
-0.320039
-0.316922
-0.313613
-0.310199
-0.306711
-0.303169
-0.299581
-0.295935
-0.292208
-0.288364
-0.284364
-0.280166
-0.275737
-0.271053
-0.266105
-0.260902
-0.255466
-0.24983
-0.244039
-0.238128
-0.232177
-0.22607
-0.220494
-0.322564
-0.319386
-0.316656
-0.313677
-0.310502
-0.307218
-0.303857
-0.300447
-0.296998
-0.293506
-0.289953
-0.286307
-0.282533
-0.278589
-0.274439
-0.270056
-0.265423
-0.260541
-0.255421
-0.25009
-0.244583
-0.238929
-0.23321
-0.227281
-0.22192
-0.318939
-0.315962
-0.313373
-0.310532
-0.307489
-0.304332
-0.301097
-0.297813
-0.294497
-0.291149
-0.287757
-0.284294
-0.280728
-0.277019
-0.27313
-0.269031
-0.264699
-0.260126
-0.255316
-0.250287
-0.245067
-0.239675
-0.234195
-0.228448
-0.223321
-0.315425
-0.312642
-0.310193
-0.307486
-0.304575
-0.301543
-0.298431
-0.29527
-0.29208
-0.288868
-0.285625
-0.282331
-0.278956
-0.275464
-0.271819
-0.267986
-0.263939
-0.259664
-0.255157
-0.250427
-0.245494
-0.240368
-0.235135
-0.229574
-0.224703
-0.312023
-0.309429
-0.307115
-0.304541
-0.301759
-0.298852
-0.295859
-0.292818
-0.28975
-0.286665
-0.283562
-0.280424
-0.277225
-0.273933
-0.270512
-0.266928
-0.263151
-0.259161
-0.254948
-0.250512
-0.245867
-0.241012
-0.236034
-0.230662
-0.226075
-0.308734
-0.306321
-0.30414
-0.301697
-0.299042
-0.296257
-0.293383
-0.290457
-0.287506
-0.284543
-0.28157
-0.278576
-0.27554
-0.272431
-0.269218
-0.265865
-0.262341
-0.258623
-0.254694
-0.250547
-0.246189
-0.241607
-0.236894
-0.231716
-0.227446
-0.305558
-0.30332
-0.301269
-0.298953
-0.296424
-0.293759
-0.291001
-0.288188
-0.28535
-0.282503
-0.279653
-0.276792
-0.273905
-0.270965
-0.267943
-0.264804
-0.261517
-0.258055
-0.254399
-0.250535
-0.246462
-0.242157
-0.237719
-0.232739
-0.228825
-0.302495
-0.300425
-0.298499
-0.296308
-0.293902
-0.291355
-0.288711
-0.28601
-0.283281
-0.280546
-0.277811
-0.275075
-0.272325
-0.269541
-0.266693
-0.263751
-0.260685
-0.257465
-0.254069
-0.250479
-0.246689
-0.242664
-0.238512
-0.233734
-0.230223
-0.299544
-0.297635
-0.295831
-0.293762
-0.291476
-0.289046
-0.286514
-0.283921
-0.281299
-0.27867
-0.276045
-0.273426
-0.270804
-0.268161
-0.265474
-0.262713
-0.25985
-0.256856
-0.253708
-0.250383
-0.246872
-0.243128
-0.239274
-0.234704
-0.23165
-0.296705
-0.294949
-0.293263
-0.291312
-0.289144
-0.286828
-0.284407
-0.281921
-0.279403
-0.276877
-0.274357
-0.271847
-0.269343
-0.26683
-0.26429
-0.261695
-0.259019
-0.256236
-0.25332
-0.25025
-0.247013
-0.243551
-0.240006
-0.23565
-0.233116
-0.293975
-0.292366
-0.290793
-0.288957
-0.286904
-0.2847
-0.282387
-0.280006
-0.27759
-0.275164
-0.272744
-0.270338
-0.267944
-0.265552
-0.263145
-0.260701
-0.258197
-0.255608
-0.25291
-0.250082
-0.247113
-0.243933
-0.24071
-0.236575
-0.234629
-0.291353
-0.289884
-0.288419
-0.286694
-0.284754
-0.282659
-0.280453
-0.278175
-0.275858
-0.27353
-0.271207
-0.268899
-0.266608
-0.264327
-0.262042
-0.259736
-0.257389
-0.254977
-0.252482
-0.249883
-0.247173
-0.244273
-0.241383
-0.237479
-0.236197
-0.288838
-0.2875
-0.28614
-0.284523
-0.282691
-0.280704
-0.278602
-0.276425
-0.274206
-0.271972
-0.269743
-0.26753
-0.265335
-0.263157
-0.260985
-0.258804
-0.256598
-0.254348
-0.25204
-0.249656
-0.247193
-0.24457
-0.242025
-0.23836
-0.237827
-0.286426
-0.285212
-0.283952
-0.282439
-0.280713
-0.278831
-0.276831
-0.274753
-0.272631
-0.27049
-0.268352
-0.266228
-0.264126
-0.262043
-0.259974
-0.257906
-0.255828
-0.253725
-0.251586
-0.249401
-0.247174
-0.244822
-0.24263
-0.239216
-0.239521
-0.284115
-0.283019
-0.281854
-0.280441
-0.278818
-0.277037
-0.275138
-0.273157
-0.271129
-0.269079
-0.26703
-0.264994
-0.262978
-0.260986
-0.259011
-0.257046
-0.255082
-0.25311
-0.251124
-0.24912
-0.247114
-0.245025
-0.243193
-0.240042
-0.241279
-0.281902
-0.280917
-0.279843
-0.278526
-0.277002
-0.27532
-0.273519
-0.271634
-0.269698
-0.267738
-0.265775
-0.263823
-0.261892
-0.259983
-0.258096
-0.256225
-0.254364
-0.252507
-0.250657
-0.248816
-0.247013
-0.245175
-0.243704
-0.240831
-0.279784
-0.278903
-0.277916
-0.27669
-0.275262
-0.273677
-0.271971
-0.27018
-0.268335
-0.266463
-0.264585
-0.262715
-0.260864
-0.259036
-0.25723
-0.255444
-0.253674
-0.251919
-0.250187
-0.248489
-0.246869
-0.245265
-0.244152
-0.277759
-0.276974
-0.276069
-0.274932
-0.273596
-0.272105
-0.270492
-0.268793
-0.267037
-0.265251
-0.263456
-0.261666
-0.259893
-0.258141
-0.256411
-0.254703
-0.253014
-0.251348
-0.249716
-0.24814
-0.24668
-0.245289
-0.275822
-0.275128
-0.274301
-0.273248
-0.272001
-0.2706
-0.269078
-0.267468
-0.2658
-0.264099
-0.262385
-0.260674
-0.258976
-0.257297
-0.255639
-0.254002
-0.252385
-0.250795
-0.249247
-0.247772
-0.246443
-0.245239
-0.27397
-0.273361
-0.272608
-0.271635
-0.270474
-0.26916
-0.267726
-0.266204
-0.264621
-0.263003
-0.261369
-0.259735
-0.258111
-0.256503
-0.254912
-0.25334
-0.251788
-0.250263
-0.248783
-0.247384
-0.246157
-0.2722
-0.271669
-0.270986
-0.270091
-0.269011
-0.267782
-0.266433
-0.264996
-0.263497
-0.26196
-0.260405
-0.258846
-0.257294
-0.255754
-0.254228
-0.252718
-0.251223
-0.249752
-0.248324
-0.24698
-0.270509
-0.270051
-0.269433
-0.268611
-0.26761
-0.266462
-0.265196
-0.263842
-0.262424
-0.260967
-0.259489
-0.258004
-0.256522
-0.255049
-0.253585
-0.252132
-0.250689
-0.249263
-0.247873
-0.246561
-0.268892
-0.268502
-0.267946
-0.267193
-0.266267
-0.265197
-0.264012
-0.262738
-0.2614
-0.260021
-0.258618
-0.257206
-0.255792
-0.254384
-0.25298
-0.251581
-0.250186
-0.248798
-0.247432
-0.267346
-0.267019
-0.266522
-0.265835
-0.26498
-0.263986
-0.262877
-0.261681
-0.260421
-0.259118
-0.257789
-0.256447
-0.255101
-0.253755
-0.25241
-0.251063
-0.249712
-0.248355
-0.265867
-0.265599
-0.265157
-0.264532
-0.263746
-0.262823
-0.261789
-0.260668
-0.259483
-0.258254
-0.256997
-0.255725
-0.254445
-0.253161
-0.251873
-0.250576
-0.249265
-0.247936
-0.264453
-0.264239
-0.263849
-0.263283
-0.262562
-0.261708
-0.260746
-0.259697
-0.258585
-0.257428
-0.256241
-0.255036
-0.25382
-0.252597
-0.251364
-0.250116
-0.248844
-0.263099
-0.262936
-0.262594
-0.262084
-0.261425
-0.260637
-0.259743
-0.258765
-0.257723
-0.256635
-0.255516
-0.254377
-0.253224
-0.25206
-0.250881
-0.24968
-0.248447
-0.261803
-0.261686
-0.26139
-0.260933
-0.260333
-0.259608
-0.25878
-0.257868
-0.256894
-0.255873
-0.25482
-0.253745
-0.252653
-0.251546
-0.25042
-0.249267
-0.260561
-0.260488
-0.260234
-0.259827
-0.259283
-0.258618
-0.257852
-0.257006
-0.256096
-0.255141
-0.254151
-0.253138
-0.252105
-0.251054
-0.249979
-0.25937
-0.259337
-0.259123
-0.258764
-0.258272
-0.257665
-0.256959
-0.256174
-0.255328
-0.254434
-0.253506
-0.252552
-0.251576
-0.250579
-0.249555
-0.258227
-0.258232
-0.258056
-0.257741
-0.2573
-0.256746
-0.256098
-0.255372
-0.254585
-0.253751
-0.252882
-0.251986
-0.251065
-0.250121
-0.257129
-0.257169
-0.257029
-0.256756
-0.256362
-0.25586
-0.255266
-0.254597
-0.253867
-0.253091
-0.252278
-0.251437
-0.25057
-0.249676
-0.256074
-0.256147
-0.25604
-0.255806
-0.255458
-0.255005
-0.254463
-0.253847
-0.253172
-0.252451
-0.251692
-0.250904
-0.250088
-0.255058
-0.255163
-0.255087
-0.254891
-0.254585
-0.254179
-0.253686
-0.253121
-0.252499
-0.25183
-0.251123
-0.250385
-0.249618
-0.254081
-0.254214
-0.254168
-0.254008
-0.253742
-0.253379
-0.252934
-0.252418
-0.251845
-0.251226
-0.250569
-0.249879
-0.253139
-0.2533
-0.253282
-0.253155
-0.252927
-0.252606
-0.252205
-0.251735
-0.25121
-0.250638
-0.250029
-0.249386
-0.25223
-0.252417
-0.252426
-0.25233
-0.252139
-0.251857
-0.251498
-0.251073
-0.250592
-0.250066
-0.249502
-0.248904
-0.251353
-0.251565
-0.251598
-0.251533
-0.251375
-0.251132
-0.250812
-0.250429
-0.249992
-0.249509
-0.248988
-0.250506
-0.250741
-0.250798
-0.250761
-0.250636
-0.250428
-0.250147
-0.249803
-0.249407
-0.248966
-0.248486
-0.249687
-0.249945
-0.250024
-0.250014
-0.24992
-0.249745
-0.2495
-0.249195
-0.248837
-0.248436
-0.248894
-0.249174
-0.249275
-0.24929
-0.249225
-0.249082
-0.248872
-0.248602
-0.248282
-0.247919
-0.248127
-0.248428
-0.248549
-0.248589
-0.248551
-0.248439
-0.248261
-0.248026
-0.247742
-0.247415
-0.247384
-0.247705
-0.247846
-0.247909
-0.247898
-0.247814
-0.247667
-0.247465
-0.247215
-0.246664
-0.247005
-0.247165
-0.247249
-0.247263
-0.247207
-0.24709
-0.246919
-0.246701
-0.245966
-0.246326
-0.246504
-0.24661
-0.246648
-0.246618
-0.246529
-0.246388
-0.246201
-0.245289
-0.245669
-0.245864
-0.245989
-0.24605
-0.246045
-0.245983
-0.24587
-0.244633
-0.245031
-0.245243
-0.245388
-0.24547
-0.245489
-0.245453
-0.245367
-0.243996
-0.244413
-0.244641
-0.244804
-0.244908
-0.244949
-0.244937
-0.244878
-0.243379
-0.243814
-0.244058
-0.244239
-0.244362
-0.244426
-0.244437
-0.244402
-0.24278
-0.243233
-0.243492
-0.243691
-0.243833
-0.243917
-0.243951
-0.2422
-0.242671
-0.242945
-0.24316
-0.243321
-0.243425
-0.24348
-0.241639
-0.242127
-0.242416
-0.242647
-0.242825
-0.242948
-0.243023
-0.241095
-0.241601
-0.241904
-0.242151
-0.242345
-0.242487
-0.240569
-0.241093
-0.24141
-0.241671
-0.241882
-0.242041
-0.240062
-0.240603
-0.240933
-0.241209
-0.241436
-0.241611
-0.239572
-0.240131
-0.240475
-0.240764
-0.241006
-0.241197
-0.239101
-0.239677
-0.240034
-0.240337
-0.240593
-0.240798
-0.238648
-0.239242
-0.239611
-0.239927
-0.240196
-0.238215
-0.238825
-0.239206
-0.239535
-0.239817
-0.2378
-0.238427
-0.23882
-0.239161
-0.239456
-0.237406
-0.238048
-0.238453
-0.238805
-0.239112
-0.237031
-0.23769
-0.238105
-0.238468
-0.238786
-0.236677
-0.237351
-0.237777
-0.23815
-0.238479
-0.236344
-0.237033
-0.237469
-0.237852
-0.23819
-0.236032
-0.236735
-0.237181
-0.237573
-0.235743
-0.236459
-0.236914
-0.237315
-0.235476
-0.236205
-0.236668
-0.237077
-0.235232
-0.235973
-0.236444
-0.236861
-0.235012
-0.235764
-0.236242
-0.236665
-0.234816
-0.235578
-0.236062
-0.236491
-0.234644
-0.235415
-0.235905
-0.23634
-0.234498
-0.235276
-0.235771
-0.23621
-0.234376
-0.235161
-0.23566
-0.236103
-0.23428
-0.23507
-0.235573
-0.236018
-0.23421
-0.235004
-0.235509
-0.235957
-0.234166
-0.234962
-0.235469
-0.235918
-0.234148
-0.234945
-0.235453
-0.235903
-0.182314
-0.184815
-0.187233
-0.189569
-0.191827
-0.194008
-0.196112
-0.198142
-0.200098
-0.201982
-0.203794
-0.205535
-0.207206
-0.208806
-0.210337
-0.211799
-0.213191
-0.214516
-0.215774
-0.216968
-0.218099
-0.219173
-0.220192
-0.221166
-0.222101
-0.22301
-0.223904
-0.2248
-0.225718
-0.171051
-0.173601
-0.176082
-0.178498
-0.180849
-0.183137
-0.185365
-0.187533
-0.189644
-0.1917
-0.193703
-0.195654
-0.197557
-0.199414
-0.201228
-0.203001
-0.204738
-0.206443
-0.20812
-0.209774
-0.211413
-0.213041
-0.214668
-0.216301
-0.21795
-0.219625
-0.221338
-0.223099
-0.22492
-0.160717
-0.163279
-0.165786
-0.168239
-0.170639
-0.172988
-0.175288
-0.177539
-0.179744
-0.181904
-0.184022
-0.186098
-0.188135
-0.190135
-0.192099
-0.194031
-0.195933
-0.197807
-0.199656
-0.201484
-0.203293