/*--------------------------------*- C++ -*----------------------------------*\
  =========                 |
  \\      /  F ield         | OpenFOAM: The Open Source CFD Toolbox
   \\    /   O peration     | Website:  https://openfoam.org
    \\  /    A nd           | Version:  7
     \\/     M anipulation  |
\*---------------------------------------------------------------------------*/
FoamFile
{
    version     2.0;
    format      ascii;
    class       surfaceScalarField;
    location    "280";
    object      phi;
}
// * * * * * * * * * * * * * * * * * * * * * * * * * * * * * * * * * * * * * //

dimensions      [0 3 -1 0 0 0 0];

internalField   nonuniform List<scalar> 
8927
(
0.0015193
0.00810261
-0.00810842
0.00149727
0.0102691
-0.0102471
0.00146679
0.0111176
-0.0110871
0.00144618
0.0103423
-0.0103217
0.00144354
0.00741411
-0.00741146
0.00145469
0.0034709
-0.00348206
0.00146476
-0.00133148
0.00132141
0.00146171
-0.00569397
0.00569701
0.00144931
-0.00924682
0.00925922
0.00143862
-0.0113921
0.0114028
0.001434
-0.0104694
0.010474
0.00143147
-0.00827835
0.00828087
0.00142591
-0.00286766
0.00287321
0.00141488
0.00216283
-0.0021518
0.00140259
0.00747234
-0.00746005
0.00139393
0.0114745
-0.0114658
0.00138933
0.0104713
-0.0104667
0.00138043
0.00985118
-0.00984228
0.00136286
0.00242096
-0.0024034
0.00134209
-0.0025999
0.00262067
0.00132668
-0.00731205
0.00732745
0.0013174
-0.012927
0.0129363
-0.00540332
0.00541635
0.00152341
0.00809575
0.00150204
0.0102905
0.00147142
0.0111482
0.00144957
0.0103641
0.00144515
0.00741853
0.00145474
0.00346131
0.00146358
-0.00134032
0.00145943
-0.00568982
0.00144596
-0.00923334
0.00143498
-0.0113811
0.00143091
-0.0104653
0.00142956
-0.008277
0.00142541
-0.00286351
0.00141571
0.00217253
0.00140481
0.00748324
0.00139667
0.0114826
0.00139199
0.0104759
0.00138225
0.00986092
0.00136338
0.00243984
0.00134177
-0.0025783
0.00132527
-0.00729555
0.00131636
-0.0129181
-0.00539138
0.00152743
0.00808777
0.00150675
0.0103112
0.00147598
0.011179
0.00145286
0.0103873
0.00144664
0.00742475
0.00145467
0.00345328
0.00146232
-0.00134797
0.00145712
-0.00568462
0.00144258
-0.00921881
0.0014313
-0.0113699
0.00142776
-0.0104618
0.00142761
-0.00827684
0.0014249
-0.0028608
0.00141656
0.00218087
0.00140706
0.00749274
0.00139944
0.0114902
0.00139468
0.0104807
0.00138414
0.00987147
0.00136398
0.00246001
0.00134155
-0.00255587
0.00132397
-0.00727796
0.00131544
-0.0129096
-0.00538054
0.00153136
0.00807862
0.0015114
0.0103311
0.00148047
0.0112099
0.00145606
0.0104117
0.00144803
0.00743279
0.0014545
0.0034468
0.00146099
-0.00135446
0.00145478
-0.0056784
0.00143919
-0.00920322
0.00142757
-0.0113582
0.00142456
-0.0104588
0.00142561
-0.00827788
0.00142437
-0.00285957
0.00141742
0.00218782
0.00140934
0.00750083
0.00140223
0.0114973
0.00139741
0.0104855
0.00138608
0.0098828
0.00136466
0.00248143
0.00134144
-0.00253265
0.00132278
-0.00725931
0.00131463
-0.0129014
-0.00537082
0.00153519
0.00806824
0.00151599
0.0103503
0.00148491
0.011241
0.00145918
0.0104374
0.0014493
0.00744267
0.00145423
0.00344188
0.0014596
-0.00135983
0.00145241
-0.0056712
0.00143577
-0.00918658
0.0014238
-0.0113463
0.00142131
-0.0104563
0.00142357
-0.00828014
0.00142384
-0.00285984
0.00141831
0.00219335
0.00141165
0.00750748
0.00140506
0.0115039
0.00140017
0.0104904
0.00138808
0.00989489
0.00136544
0.00250407
0.00134144
-0.00250866
0.00132171
-0.00723958
0.00131394
-0.0128936
-0.00536224
0.00153892
0.00805657
0.00152052
0.0103687
0.00148928
0.0112722
0.00146222
0.0104645
0.00145048
0.00745441
0.00145385
0.00343851
0.00145814
-0.00136412
0.00145001
-0.00566308
0.00143234
-0.00916891
0.00142
-0.0113339
0.001418
-0.0104543
0.00142148
-0.00828362
0.00142328
-0.00286164
0.0014192
0.00219743
0.00141398
0.00751271
0.0014079
0.01151
0.00140297
0.0104953
0.00139014
0.00990771
0.0013663
0.00252792
0.00134154
-0.00248391
0.00132076
-0.0072188
0.00131336
-0.0128862
-0.00535479
0.00154255
0.00804355
0.00152498
0.0103863
0.00149359
0.0113036
0.00146517
0.0104929
0.00145155
0.00746803
0.00145337
0.0034367
0.00145661
-0.00136737
0.0014476
-0.00565407
0.0014289
-0.00915021
0.00141616
-0.0113212
0.00141464
-0.0104528
0.00141936
-0.00828834
0.00142271
-0.00286499
0.00142011
0.00220004
0.00141633
0.00751648
0.00141077
0.0115155
0.00140579
0.0105003
0.00139225
0.00992125
0.00136724
0.00255293
0.00134176
-0.00245842
0.00131992
-0.00719696
0.0013129
-0.0128792
-0.00534849
0.00154607
0.00802912
0.00152938
0.010403
0.00149784
0.0113352
0.00146805
0.0105227
0.00145253
0.00748355
0.00145279
0.00343644
0.00145502
-0.0013696
0.00144516
-0.00564421
0.00142545
-0.0091305
0.00141229
-0.011308
0.00141123
-0.0104517
0.00141718
-0.00829429
0.00142213
-0.00286994
0.00142102
0.00220115
0.0014187
0.00751881
0.00141366
0.0115206
0.00140864
0.0105053
0.00139442
0.00993546
0.00136828
0.00257908
0.00134208
-0.00243222
0.0013192
-0.00717408
0.00131256
-0.0128726
-0.00534335
0.00154947
0.00801322
0.0015337
0.0104188
0.00150203
0.0113669
0.00147087
0.0105538
0.00145341
0.00750101
0.00145211
0.00343774
0.00145336
-0.00137084
0.0014427
-0.00563356
0.00142199
-0.00910979
0.00140839
-0.0112944
0.00140777
-0.0104511
0.00141496
-0.00830148
0.00142152
-0.0028765
0.00142194
0.00220074
0.00142108
0.00751966
0.00141656
0.0115251
0.00141151
0.0105104
0.00139664
0.00995033
0.0013694
0.00260632
0.00134252
-0.00240534
0.00131861
-0.00715017
0.00131233
-0.0128663
-0.00533937
0.00155275
0.00799577
0.00153794
0.0104336
0.00150615
0.0113986
0.00147361
0.0105864
0.00145421
0.0075204
0.00145135
0.0034406
0.00145164
-0.00137113
0.00144023
-0.00562215
0.00141853
-0.00908809
0.00140446
-0.0112804
0.00140426
-0.0104509
0.0014127
-0.00830992
0.0014209
-0.0028847
0.00142286
0.00219878
0.00142347
0.00751905
0.00141948
0.0115291
0.00141441
0.0105155
0.00139892
0.00996581
0.00137061
0.00263464
0.00134306
-0.0023778
0.00131813
-0.00712523
0.00131222
-0.0128604
-0.00533656
0.0015559
0.00797672
0.0015421
0.0104474
0.00151022
0.0114305
0.00147629
0.0106203
0.00145493
0.00754176
0.00145048
0.00344505
0.00144985
-0.0013705
0.00143773
-0.00561003
0.00141506
-0.00906542
0.0014005
-0.0112658
0.0014007
-0.0104511
0.00141039
-0.0083196
0.00142024
-0.00289456
0.00142378
0.00219525
0.00142587
0.00751695
0.00142241
0.0115326
0.00141732
0.0105206
0.00140125
0.00998189
0.0013719
0.00266398
0.00134372
-0.00234962
0.00131777
-0.00709929
0.00131222
-0.0128548
-0.00533493
0.00155892
0.00795601
0.00154617
0.0104601
0.00151423
0.0114625
0.00147891
0.0106556
0.00145556
0.00756511
0.00144953
0.00345108
0.001448
-0.00136897
0.00143522
-0.00559725
0.0014116
-0.00904179
0.00139652
-0.0112507
0.00139709
-0.0104517
0.00140803
-0.00833054
0.00141957
-0.0029061
0.00142469
0.00219012
0.00142828
0.00751336
0.00142534
0.0115355
0.00142025
0.0105256
0.00140362
0.00999852
0.00137329
0.00269432
0.00134449
-0.00232082
0.00131754
-0.00707234
0.00131233
-0.0128496
-0.00533449
0.00156179
0.00793357
0.00155016
0.0104718
0.00151818
0.0114944
0.00148147
0.0106923
0.00145612
0.00759046
0.00144849
0.00345871
0.00144608
-0.00136656
0.00143269
-0.00558386
0.00140813
-0.00901723
0.00139252
-0.0112351
0.00139344
-0.0104526
0.00140562
-0.00834272
0.00141886
-0.00291935
0.0014256
0.00218339
0.00143068
0.00750827
0.00142828
0.0115379
0.0014232
0.0105307
0.00140605
0.0100157
0.00137475
0.00272561
0.00134538
-0.00229144
0.00131743
-0.00704439
0.00131256
-0.0128448
-0.00533522
0.00156452
0.00790933
0.00155405
0.0104822
0.00152206
0.0115264
0.00148398
0.0107304
0.00145661
0.00761782
0.00144737
0.00346795
0.0014441
-0.00136329
0.00143015
-0.0055699
0.00140467
-0.00899175
0.00138849
-0.0112189
0.00138974
-0.0104538
0.00140316
-0.00835614
0.00141813
-0.00293432
0.00142649
0.00217503
0.00143308
0.00750168
0.00143122
0.0115398
0.00142616
0.0105358
0.00140852
0.0100333
0.00137631
0.00275782
0.00134637
-0.00226151
0.00131745
-0.00701547
0.00131291
-0.0128402
-0.00533715
0.00156708
0.00788322
0.00155784
0.0104915
0.00152588
0.0115584
0.00148643
0.0107698
0.00145703
0.00764723
0.00144616
0.00347882
0.00144206
-0.00135919
0.00142758
-0.00555543
0.00140121
-0.00896538
0.00138445
-0.0112022
0.00138599
-0.0104554
0.00140065
-0.0083708
0.00141736
-0.00295103
0.00142738
0.00216501
0.00143548
0.00749358
0.00143416
0.0115411
0.00142913
0.0105408
0.00141104
0.0100514
0.00137795
0.00279091
0.00134748
-0.00223104
0.00131758
-0.00698557
0.00131336
-0.012836
-0.00534027
0.00156948
0.00785518
0.00156153
0.0104994
0.00152964
0.0115903
0.00148884
0.0108107
0.00145738
0.00767868
0.00144486
0.00349134
0.00143995
-0.00135428
0.001425
-0.00554048
0.00139776
-0.00893814
0.00138039
-0.0111848
0.0013822
-0.0104572
0.00139809
-0.00838669
0.00141656
-0.0029695
0.00142824
0.00215333
0.00143786
0.00748396
0.00143709
0.0115418
0.00143211
0.0105458
0.0014136
0.0100699
0.00137967
0.00282485
0.0013487
-0.00220007
0.00131785
-0.00695472
0.00131393
-0.0128321
-0.00534459
0.0015717
0.00782515
0.00156511
0.010506
0.00153333
0.0116221
0.00149119
0.0108528
0.00145768
0.00771219
0.00144349
0.00350553
0.00143777
-0.00134856
0.0014224
-0.0055251
0.00139431
-0.00891006
0.00137632
-0.0111668
0.00137836
-0.0104592
0.00139548
-0.0084038
0.00141572
-0.00298975
0.00142909
0.00213997
0.00144023
0.00747281
0.00144002
0.0115421
0.0014351
0.0105507
0.00141621
0.0100888
0.00138148
0.00285958
0.00135003
-0.00216862
0.00131823
-0.00692292
0.00131462
-0.0128285
-0.0053501
0.00157374
0.00779305
0.00156856
0.0105112
0.00153695
0.0116537
0.0014935
0.0108962
0.00145791
0.00774778
0.00144204
0.0035214
0.00143553
-0.00134205
0.00141977
-0.00550934
0.00139087
-0.00888115
0.00137223
-0.0111482
0.00137448
-0.0104615
0.00139281
-0.00842213
0.00141484
-0.00301178
0.00142991
0.0021249
0.00144258
0.00746014
0.00144293
0.0115417
0.00143808
0.0105556
0.00141885
0.010108
0.00138337
0.00289506
0.00135148
-0.00213674
0.00131875
-0.00689019
0.00131541
-0.0128251
-0.0053568
0.00157558
0.00775881
0.00157189
0.0105149
0.00154051
0.011685
0.00149577
0.010941
0.0014581
0.00778546
0.00144051
0.00353899
0.00143322
-0.00133476
0.00141713
-0.00549326
0.00138744
-0.00885146
0.00136814
-0.0111289
0.00137056
-0.0104639
0.00139009
-0.00844166
0.00141392
-0.00303561
0.0014307
0.00210813
0.00144491
0.00744592
0.00144584
0.0115408
0.00144106
0.0105603
0.00142154
0.0101276
0.00138534
0.00293126
0.00135304
-0.00210444
0.00131939
-0.00685654
0.00131631
-0.0128221
-0.0053647
0.00157723
0.00772237
0.00157509
0.010517
0.00154398
0.0117162
0.001498
0.010987
0.00145823
0.00782522
0.00143891
0.00355831
0.00143084
-0.00132669
0.00141446
-0.00547688
0.00138402
-0.00882102
0.00136403
-0.0111089
0.0013666
-0.0104665
0.00138731
-0.00846237
0.00141295
-0.00306125
0.00143146
0.00208962
0.00144722
0.00743016
0.00144872
0.0115393
0.00144404
0.010565
0.00142425
0.0101473
0.00138739
0.00296813
0.0013547
-0.00207176
0.00132015
-0.00682198
0.00131733
-0.0128192
-0.00537379
0.00157866
0.00768367
0.00157815
0.0105175
0.00154738
0.0117469
0.00150018
0.0110342
0.00145832
0.00786708
0.00143723
0.0035794
0.00142839
-0.00131785
0.00141177
-0.00546026
0.00138061
-0.00878986
0.00135991
-0.0110882
0.00136259
-0.0104691
0.00138448
-0.00848426
0.00141194
-0.00308871
0.00143218
0.00206938
0.00144949
0.00741285
0.00145159
0.0115372
0.00144701
0.0105696
0.00142701
0.0101674
0.00138951
0.00300562
0.00135648
-0.00203872
0.00132104
-0.00678654
0.00131845
-0.0128166
-0.00538407
0.00157986
0.00764263
0.00158106
0.0105163
0.0015507
0.0117773
0.00150232
0.0110826
0.00145836
0.00791104
0.00143549
0.00360227
0.00142587
-0.00130824
0.00140906
-0.00544344
0.00137721
-0.00875801
0.00135579
-0.0110668
0.00135855
-0.0104719
0.00138159
-0.0085073
0.00141088
-0.003118
0.00143287
0.00204738
0.00145174
0.00739399
0.00145443
0.0115345
0.00144998
0.010574
0.00142979
0.0101875
0.00139172
0.00304369
0.00135837
-0.00200538
0.00132206
-0.00675023
0.00131969
-0.0128143
-0.00539553
0.00158084
0.00759918
0.00158382
0.0105134
0.00155393
0.0118072
0.00150441
0.0111321
0.00145836
0.0079571
0.00143367
0.00362696
0.00142329
-0.00129785
0.00140631
-0.00542647
0.00137382
-0.00872552
0.00135167
-0.0110446
0.00135446
-0.0104747
0.00137864
-0.00853148
0.00140976
-0.00314911
0.00143352
0.00202362
0.00145394
0.00737357
0.00145724
0.0115312
0.00145293
0.0105784
0.0014326
0.0102079
0.001394
0.00308229
0.00136037
-0.00197175
0.0013232
-0.00671306
0.00132103
-0.0128121
-0.00540818
0.00158157
0.00755326
0.00158641
0.0105085
0.00155707
0.0118365
0.00150647
0.0111827
0.00145832
0.00800525
0.00143179
0.00365348
0.00142063
-0.00128668
0.00140353
-0.00540938
0.00137044
-0.00869243
0.00134754
-0.0110217
0.00135034
-0.0104775
0.00137563
-0.00855678
0.00140859
-0.00318207
0.00143412
0.00199809
0.00145611
0.00735158
0.00146003
0.0115273
0.00145586
0.0105825
0.00143544
0.0102283
0.00139635
0.00312138
0.00136247
-0.00193787
0.00132447
-0.00667505
0.00132249
-0.0128101
-0.005422
0.00158205
0.00750482
0.00158883
0.0105017
0.00156012
0.0118652
0.00150848
0.0112343
0.00145825
0.00805549
0.00142985
0.00368188
0.00141789
-0.00127473
0.00140073
-0.00539221
0.00136707
-0.00865877
0.00134341
-0.0109981
0.00134617
-0.0104803
0.00137257
-0.00858317
0.00140736
-0.00321686
0.00143468
0.00197077
0.00145823
0.00732803
0.00146279
0.0115227
0.00145878
0.0105865
0.0014383
0.0102488
0.00139878
0.00316089
0.00136468
-0.00190377
0.00132586
-0.00663623
0.00132405
-0.0128083
-0.00543699
0.00158226
0.00745377
0.00159106
0.0104929
0.00156306
0.0118932
0.00151045
0.0112869
0.00145814
0.0081078
0.00142784
0.00371217
0.00141509
-0.00126197
0.00139788
-0.005375
0.0013637
-0.00862459
0.00133928
-0.0109736
0.00134197
-0.0104829
0.00136944
-0.00861064
0.00140607
-0.0032535
0.00143518
0.00194166
0.00146031
0.0073029
0.00146551
0.0115175
0.00146167
0.0105904
0.00144118
0.0102693
0.00140127
0.0032008
0.001367
-0.00186949
0.00132738
-0.00659661
0.00132571
-0.0128067
-0.00545315
0.00158221
0.00740007
0.00159311
0.010482
0.00156589
0.0119204
0.00151237
0.0113404
0.001458
0.00816218
0.00142578
0.00374439
0.00141221
-0.0012484
0.001395
-0.00535779
0.00136035
-0.00858994
0.00133515
-0.0109484
0.00133773
-0.0104855
0.00136624
-0.00863915
0.00140472
-0.00329198
0.00143563
0.00191076
0.00146233
0.0072762
0.00146819
0.0115117
0.00146454
0.010594
0.00144407
0.0102897
0.00140384
0.00324103
0.00136942
-0.00183507
0.00132902
-0.00655621
0.00132749
-0.0128051
-0.00547046
0.00158186
0.00734365
0.00159495
0.0104689
0.00156861
0.0119468
0.00151425
0.0113948
0.00145783
0.0082186
0.00142366
0.00377856
0.00140926
-0.001234
0.00139208
-0.00534061
0.001357
-0.00855486
0.00133102
-0.0109225
0.00133345
-0.010488
0.00136299
-0.00866868
0.00140331
-0.0033323
0.00143602
0.00187805
0.0014643
0.00724792
0.00147083
0.0115051
0.00146738
0.0105975
0.00144699
0.0103101
0.00140647
0.00328155
0.00137194
-0.00180054
0.00133079
-0.00651506
0.00132937
-0.0128037
-0.00548891
0.00158122
0.00728446
0.00159658
0.0104536
0.00157121
0.0119721
0.00151607
0.0114499
0.00145763
0.00827704
0.00142149
0.0038147
0.00140623
-0.00121875
0.00138911
-0.00532349
0.00135366
-0.00851941
0.0013269
-0.0108957
0.00132914
-0.0104902
0.00135967
-0.00869921
0.00140183
-0.00337446
0.00143635
0.00184352
0.00146622
0.00721805
0.00147343
0.0114979
0.00147019
0.0106007
0.00144991
0.0103304
0.00140916
0.0033223
0.00137456
-0.00176594
0.00133268
-0.00647318
0.00133136
-0.0128024
-0.00550849
0.00158027
0.00722245
0.00159798
0.0104359
0.00157368
0.0119964
0.00151784
0.0115058
0.00145741
0.00833747
0.00141926
0.00385285
0.00140313
-0.00120262
0.0013861
-0.00530645
0.00135032
-0.00848363
0.00132278
-0.0108682
0.00132478
-0.0104922
0.00135628
-0.00873071
0.00140028
-0.00341846
0.00143662
0.00180718
0.00146807
0.0071866
0.00147598
0.01149
0.00147297
0.0106037
0.00145284
0.0103505
0.00141192
0.00336322
0.00137728
-0.00173131
0.00133469
-0.00643059
0.00133346
-0.0128012
-0.0055292
0.00157901
0.00715756
0.00159916
0.0104157
0.00157601
0.0120196
0.00151956
0.0115622
0.00145716
0.00839987
0.00141699
0.00389302
0.00139996
-0.00118559
0.00138303
-0.00528953
0.00134699
-0.00844758
0.00131866
-0.0108398
0.00132039
-0.0104939
0.00135283
-0.00876314
0.00139867
-0.0034643
0.00143683
0.00176902
0.00146986
0.00715356
0.00147848
0.0114814
0.00147571
0.0106065
0.00145578
0.0103705
0.00141473
0.00340427
0.0013801
-0.00169667
0.00133683
-0.00638733
0.00133566
-0.0128
-0.005551
0.00157743
0.00708975
0.00160008
0.0103931
0.00157819
0.0120415
0.00152121
0.0116192
0.00145689
0.00846419
0.00141466
0.00393525
0.0013967
-0.00116763
0.00137992
-0.00527275
0.00134365
-0.00841132
0.00131455
-0.0108107
0.00131597
-0.0104953
0.0013493
-0.00879648
0.00139698
-0.00351198
0.00143696
0.00172904
0.00147159
0.00711894
0.00148093
0.0114721
0.00147841
0.010609
0.00145872
0.0103902
0.0014176
0.0034454
0.00138301
-0.00166208
0.0013391
-0.00634342
0.00133797
-0.0127989
-0.0055739
0.00157551
0.00701898
0.00160076
0.0103678
0.00158022
0.012062
0.0015228
0.0116766
0.00145659
0.0085304
0.0014123
0.00397954
0.00139338
-0.0011487
0.00137675
-0.00525612
0.00134032
-0.00837488
0.00131045
-0.0107809
0.00131151
-0.0104964
0.00134571
-0.00883069
0.00139522
-0.00356149
0.00143704
0.00168723
0.00147325
0.00708272
0.00148333
0.011462
0.00148107
0.0106113
0.00146166
0.0104096
0.00142053
0.00348653
0.00138601
-0.00162756
0.00134148
-0.00629889
0.00134038
-0.0127978
-0.00559788
0.00157325
0.00694523
0.00160117
0.0103399
0.00158209
0.0120811
0.00152431
0.0117344
0.00145627
0.00859844
0.0014099
0.00402591
0.00138997
-0.00112878
0.00137352
-0.00523966
0.00133698
-0.00833834
0.00130636
-0.0107503
0.00130701
-0.0104971
0.00134205
-0.00886573
0.00139339
-0.00361283
0.00143704
0.00164358
0.00147484
0.00704492
0.00148567
0.0114511
0.00148369
0.0106132
0.0014646
0.0104287
0.0014235
0.00352763
0.0013891
-0.00159317
0.00134398
-0.00625376
0.0013429
-0.0127967
-0.00562291
0.00157064
0.00686846
0.00160131
0.0103092
0.00158378
0.0120987
0.00152576
0.0117924
0.00145593
0.00866827
0.00140745
0.00407439
0.0013865
-0.00110783
0.00137023
-0.0052234
0.00133363
-0.00830175
0.00130227
-0.0107189
0.00130248
-0.0104973
0.00133832
-0.00890157
0.00139149
-0.00366599
0.00143697
0.0015981
0.00147636
0.00700553
0.00148795
0.0114396
0.00148626
0.0106149
0.00146754
0.0104474
0.00142653
0.00356864
0.00139229
-0.00155892
0.00134661
-0.00620809
0.00134552
-0.0127956
-0.00564897
0.00156769
0.00678866
0.00160117
0.0102757
0.00158529
0.0121145
0.00152713
0.0118506
0.00145558
0.00873982
0.00140498
0.00412499
0.00138295
-0.00108579
0.00136688
-0.00520733
0.00133028
-0.00826515
0.00129819
-0.0106868
0.00129792
-0.010497
0.00133452
-0.00893818
0.00138951
-0.00372098
0.00143683
0.00155078
0.00147781
0.00696455
0.00149018
0.0114272
0.00148879
0.0106163
0.00147046
0.0104657
0.0014296
0.0036095
0.00139555
-0.00152488
0.00134936
-0.00616189
0.00134824
-0.0127945
-0.00567605
0.0015644
0.00670582
0.00160075
0.0102394
0.00158662
0.0121287
0.00152841
0.0119088
0.00145521
0.00881303
0.00140248
0.00417771
0.00137933
-0.00106264
0.00136346
-0.00519146
0.00132692
-0.00822862
0.00129411
-0.010654
0.00129332
-0.0104962
0.00133065
-0.0089755
0.00138746
-0.00377779
0.00143663
0.00150161
0.00147919
0.006922
0.00149235
0.011414
0.00149126
0.0106174
0.00147337
0.0104836
0.00143272
0.00365015
0.00139891
-0.00149106
0.00135222
-0.00611521
0.00135106
-0.0127933
-0.00570412
0.00156076
0.00661991
0.00160005
0.0102001
0.00158777
0.0121409
0.00152964
0.0119669
0.00145484
0.00888782
0.00139997
0.00423258
0.00137564
-0.00103831
0.00135997
-0.00517578
0.00132354
-0.0081922
0.00129004
-0.0106205
0.00128869
-0.0104949
0.00132669
-0.00901351
0.00138532
-0.00383641
0.00143636
0.00145057
0.0014805
0.00687785
0.00149446
0.0114001
0.0014937
0.0106182
0.00147628
0.010501
0.00143588
0.00369055
0.00140234
-0.00145752
0.0013552
-0.00606807
0.00135399
-0.0127921
-0.00573316
0.00155684
0.00653095
0.00159908
0.0101579
0.00158874
0.0121513
0.00153079
0.0120249
0.00145447
0.00896414
0.00139743
0.00428962
0.00137186
-0.00101274
0.00135638
-0.00516031
0.00132014
-0.00815595
0.00128597
-0.0105863
0.00128403
-0.0104929
0.00132268
-0.00905216
0.00138312
-0.00389685
0.00143603
0.00139766
0.00148176
0.00683211
0.00149653
0.0113853
0.00149608
0.0106186
0.00147917
0.0105179
0.00143907
0.00373065
0.00140585
-0.0014243
0.0013583
-0.00602053
0.00135701
-0.0127908
-0.00576313
0.00155297
0.00643904
0.00159804
0.0101128
0.00158953
0.0121598
0.00153171
0.0120827
0.00145376
0.00904209
0.00139451
0.00434887
0.00136765
-0.000985882
0.00135261
-0.00514527
0.00131662
-0.00811996
0.00128198
-0.0105517
0.00127947
-0.0104904
0.00131871
-0.0090914
0.001381
-0.00395914
0.00143571
0.00134295
0.00148308
0.00678475
0.00149858
0.0113698
0.00149841
0.0106188
0.00148211
0.0105342
0.00144212
0.00377064
0.00140954
-0.00139172
0.00136137
-0.00597236
0.00135999
-0.0127894
-0.00579416
0.00487123
0.00637514
0.00486853
0.0101155
0.00480913
0.0122192
0.00472155
0.0121703
0.00466489
0.00909875
0.00470441
0.00430935
0.00480882
-0.00109029
0.00488831
-0.00522477
0.00482571
-0.00805735
0.00470108
-0.010427
0.0046085
-0.0103978
0.0045936
-0.0090765
0.00463482
-0.00400035
0.00467029
0.00130748
0.00472585
0.00672918
0.00474502
0.0113506
0.00475778
0.010606
0.00475913
0.0105329
0.00467075
0.00385902
0.00459995
-0.00132092
0.00442022
-0.00579262
0.00437259
-0.0127418
-0.00585682
0.00503567
0.00629891
0.00504408
0.0101071
0.00499117
0.0122721
0.00490143
0.01226
0.00483517
0.00916502
0.00487072
0.0042738
0.00497678
-0.00119635
0.00506425
-0.00531224
0.00499902
-0.00799213
0.00486016
-0.0102882
0.00475284
-0.0102905
0.00473349
-0.00905715
0.00478278
-0.00404964
0.00482404
0.00126623
0.00489058
0.00666264
0.00490858
0.0113326
0.00492088
0.0105937
0.00492846
0.0105253
0.00483685
0.00395063
0.00477073
-0.0012548
0.00457658
-0.00559848
0.00451839
-0.0126836
-0.00592422
0.00520784
0.00620954
0.00522817
0.0100868
0.00518306
0.0123172
0.00509399
0.0123491
0.00502225
0.00923675
0.00505292
0.00424313
0.00515882
-0.00130225
0.00525121
-0.00540462
0.00518296
-0.00792388
0.00502872
-0.0101339
0.00490509
-0.0101669
0.00488033
-0.00903239
0.00493794
-0.00410725
0.00498637
0.0012178
0.00506157
0.00658744
0.0050797
0.0113145
0.00509076
0.0105827
0.00510428
0.0105118
0.00501506
0.00403985
0.00495074
-0.00119048
0.00474445
-0.00539219
0.00467345
-0.0126126
-0.00599514
0.00538849
0.00610486
0.005423
0.0100522
0.00538803
0.0123522
0.00530208
0.012435
0.00522669
0.00931215
0.00525196
0.00421786
0.00535468
-0.00140496
0.0054496
-0.00549955
0.00537779
-0.00785207
0.00520736
-0.00996351
0.0050655
-0.010025
0.00503383
-0.00900073
0.00510053
-0.00417394
0.00515679
0.00116153
0.00524124
0.00650299
0.00525927
0.0112965
0.0052683
0.0105736
0.00528836
0.0104917
0.00520321
0.00412499
0.0051418
-0.00112907
0.00492373
-0.00517412
0.00483808
-0.0125269
-0.00606843
0.00557754
0.00598228
0.00562909
0.0100007
0.00560692
0.0123743
0.00552682
0.0125151
0.00544996
0.00938901
0.00546937
0.00419844
0.00556548
-0.00150107
0.00566004
-0.00559411
0.00558388
-0.00777591
0.00539653
-0.00977616
0.00523457
-0.00986305
0.00519426
-0.00896042
0.00527055
-0.00425023
0.00533549
0.00109659
0.00542987
0.00640861
0.00544779
0.0112785
0.00545378
0.0105676
0.00548078
0.0104647
0.00540157
0.0042042
0.00534441
-0.0010719
0.00511508
-0.00494479
0.00501285
-0.0124247
-0.00614271
0.00577488
0.00583907
0.0058465
0.00992907
0.00583996
0.0123809
0.00576906
0.012586
0.00569356
0.00946452
0.00570663
0.00418536
0.00579242
-0.00158686
0.00588306
-0.00568475
0.00580147
-0.00769433
0.00559662
-0.0095713
0.00541271
-0.00967915
0.00536175
-0.00890946
0.00544807
-0.00433655
0.0055227
0.00102196
0.00562772
0.0063036
0.00564563
0.0112606
0.00564742
0.0105658
0.00568166
0.0104305
0.00561041
0.00427545
0.00555906
-0.00102055
0.00531912
-0.00470484
0.00519833
-0.0123039
-0.00621638
0.00598028
0.00567248
0.00607497
0.00983438
0.00608712
0.0123687
0.00602948
0.0126437
0.00595858
0.00953542
0.00596495
0.004179
0.00603654
-0.00165845
0.00611908
-0.00576728
0.00603066
-0.00760591
0.00580788
-0.00934852
0.00560033
-0.0094716
0.00553646
-0.00884559
0.00563304
-0.00443313
0.00571856
0.000936432
0.00583502
0.00618713
0.0058532
0.0112424
0.00584949
0.0105696
0.00589113
0.0103889
0.00583
0.00433658
0.0057862
-0.000976753
0.00553642
-0.00445507
0.00539505
-0.0121626
-0.00628764
0.00619325
0.00547993
0.00631393
0.0097137
0.0063482
0.0123345
0.00630836
0.0126835
0.00624554
0.00959824
0.00624512
0.00417942
0.00629866
-0.00171199
0.00636839
-0.00583701
0.00627138
-0.00750891
0.00603045
-0.0091076
0.00579777
-0.00923892
0.0057185
-0.00876632
0.00582533
-0.00453996
0.00592314
0.000838625
0.00605202
0.00605825
0.00607091
0.0112236
0.00606034
0.0105801
0.00610931
0.0103399
0.00606061
0.00438529
0.00602622
-0.000942366
0.00576751
-0.00419636
0.0056035
-0.0119985
-0.00635448
0.00641311
0.00525913
0.0065626
0.00956421
0.00662265
0.0122744
0.00660534
0.0127008
0.00655431
0.00964927
0.0065474
0.00418633
0.00657924
-0.00174383
0.00663108
-0.00588886
0.00652338
-0.0074012
0.00626431
-0.00884853
0.00600534
-0.00897995
0.00590801
-0.00866899
0.00602471
-0.00465665
0.00613637
0.000726963
0.00627888
0.00591575
0.00629922
0.0112032
0.00628047
0.0105989
0.00633648
0.0102839
0.00630252
0.00441925
0.00627949
-0.000919332
0.00601282
-0.00392969
0.00582412
-0.0118099
-0.00641469
0.00663894
0.00500828
0.00681988
0.00938327
0.00690944
0.0121848
0.00691946
0.0126908
0.00688404
0.00968469
0.00687138
0.00419899
0.00687832
-0.00175077
0.00690701
-0.00591754
0.00678617
-0.00728037
0.0065092
-0.00857156
0.00622325
-0.00869401
0.0061051
-0.00855083
0.00623084
-0.00478239
0.00635806
0.000599738
0.00651566
0.00575815
0.00653861
0.0111803
0.00651056
0.0106269
0.00657308
0.0102214
0.00655609
0.00443624
0.00654632
-0.000909559
0.00627272
-0.00365608
0.00605727
-0.0115944
-0.00646593
0.00686959
0.00472633
0.00708428
0.00916858
0.00720701
0.0120621
0.00724905
0.0126488
0.00723311
0.00970063
0.00721589
0.00421621
0.00719535
-0.00173023
0.00719567
-0.00591786
0.00705903
-0.00714372
0.00676468
-0.00827721
0.00645162
-0.00838095
0.00630986
-0.00840907
0.00644324
-0.00491578
0.00658779
0.000455195
0.00676226
0.00558368
0.00678955
0.011153
0.00675152
0.010665
0.00681983
0.010153
0.00682175
0.00443432
0.00682696
-0.000914777
0.00654745
-0.00337656
0.00630318
-0.0113501
-0.00650566
0.0071037
0.00441309
0.007354
0.00891827
0.0075133
0.0119028
0.00759172
0.0125703
0.00759907
0.00969328
0.00757894
0.00423634
0.00752915
-0.00168044
0.00749623
-0.00588494
0.00734095
-0.00698844
0.00703001
-0.00796628
0.00669043
-0.00804137
0.00652239
-0.00824103
0.00666136
-0.00505474
0.00682488
0.000291671
0.00701834
0.00539022
0.00705246
0.0111188
0.00700452
0.0107129
0.00707778
0.0100798
0.00710002
0.00441209
0.00712158
-0.000936343
0.00683712
-0.0030921
0.00656198
-0.011075
-0.00653125
0.0073397
0.00406949
0.00762686
0.00863112
0.00782566
0.011704
0.00794434
0.0124517
0.00797867
0.00965896
0.00795771
0.0042573
0.00787781
-0.00160055
0.00780738
-0.0058145
0.00763063
-0.0068117
0.00730422
-0.00763986
0.00693951
-0.00767666
0.00674279
-0.00804431
0.00688447
-0.00519642
0.00706835
0.00010779
0.00728323
0.00517534
0.00732763
0.0110744
0.00727101
0.0107695
0.00734834
0.0100025
0.00739157
0.00436886
0.00743021
-0.000974986
0.00714165
-0.00280354
0.00683366
-0.010767
-0.00653994
0.0075759
0.00369762
0.00790035
0.00830667
0.00814091
0.0114635
0.00830314
0.0122894
0.00836789
0.0095942
0.00834858
0.00427661
0.0082387
-0.00149067
0.00812736
-0.00570316
0.00792652
-0.00661086
0.00758602
-0.00729936
0.00719848
-0.00728912
0.00697114
-0.00781697
0.00711178
-0.00533706
0.00731685
-9.72816e-05
0.00755579
0.00493641
0.00761508
0.0110151
0.00755255
0.0108321
0.00763331
0.0099217
0.00769717
0.004305
0.0077527
-0.00103052
0.00746076
-0.00251159
0.00711799
-0.0104242
-0.0065289
0.00781042
0.00330084
0.00817164
0.00794546
0.00845537
0.0111797
0.00866373
0.0120811
0.00876212
0.00949581
0.00874721
0.00429153
0.00860844
-0.0013519
0.00845393
-0.00554866
0.00822678
-0.0063837
0.00787387
-0.00694645
0.00746675
-0.006882
0.0072075
-0.00755771
0.00734244
-0.005472
0.00756866
-0.000323507
0.00783436
0.0046707
0.00791444
0.0109351
0.00785074
0.0108958
0.00793475
0.00983769
0.00801761
0.00422214
0.00808864
-0.00110155
0.00779382
-0.00221678
0.00741456
-0.010045
-0.00649528
0.00804128
0.00288384
0.00843759
0.00754915
0.00876494
0.0108524
0.00902132
0.0118247
0.00915621
0.00936092
0.00914863
0.00429911
0.00898302
-0.00118629
0.00878437
-0.00535001
0.00852932
-0.00612865
0.00816598
-0.00658311
0.00774348
-0.0064595
0.00745191
-0.00726614
0.00757556
-0.00559565
0.00782168
-0.000569622
0.00811667
0.00437571
0.00822474
0.010827
0.00816692
0.0109536
0.00825477
0.00974984
0.0083536
0.00412331
0.0084372
-0.00118515
0.00813986
-0.00191943
0.00772269
-0.0096278
-0.00643625
0.0082662
0.00245257
0.00869478
0.00712056
0.00906521
0.010482
0.00937078
0.0115191
0.00954466
0.00918704
0.00954738
0.00429639
0.00935783
-0.00099674
0.00911553
-0.00510771
0.0088319
-0.00584501
0.00846039
-0.00621161
0.0080276
-0.00602671
0.00770435
-0.00694289
0.00781035
-0.00570166
0.00807348
-0.000832749
0.00839971
0.00404948
0.00854422
0.0106825
0.00850182
0.010996
0.00859516
0.0096565
0.00870552
0.00401295
0.00879708
-0.0012767
0.00849741
-0.00161976
0.00804143
-0.00917182
-0.00634909
0.00848249
0.00201426
0.0089394
0.00666365
0.00935156
0.0100698
0.00970693
0.0111637
0.00992177
0.00897221
0.00993764
0.00428051
0.00972782
-0.000786916
0.00944391
-0.0048238
0.00913215
-0.00553325
0.00875501
-0.00583447
0.00831775
-0.00558945
0.00796468
-0.00658982
0.00804603
-0.00578301
0.0083215
-0.00110822
0.00867983
0.00369115
0.00887015
0.0104922
0.00885513
0.011011
0.00895693
0.0095547
0.00907312
0.00389676
0.00916624
-0.00136982
0.00886443
-0.00131795
0.00836948
-0.00867687
-0.00623131
0.00868688
0.00157741
0.00916726
0.00618327
0.0096193
0.00961776
0.0100246
0.0107584
0.0102818
0.00871507
0.0103133
0.00424896
0.0100877
-0.00056125
0.00976582
-0.00450195
0.00942772
-0.00519514
0.00904776
-0.00545452
0.00861241
-0.00515409
0.00823262
-0.00621003
0.0082821
-0.00583248
0.00856307
-0.00138919
0.00895277
0.00330145
0.00919868
0.0102463
0.00922494
0.0109847
0.00933964
0.00943999
0.00945513
0.00378126
0.00954184