/*--------------------------------*- C++ -*----------------------------------*\
  =========                 |
  \\      /  F ield         | OpenFOAM: The Open Source CFD Toolbox
   \\    /   O peration     | Website:  https://openfoam.org
    \\  /    A nd           | Version:  7
     \\/     M anipulation  |
\*---------------------------------------------------------------------------*/
FoamFile
{
    version     2.0;
    format      ascii;
    class       volScalarField;
    location    "120";
    object      p;
}
// * * * * * * * * * * * * * * * * * * * * * * * * * * * * * * * * * * * * * //

dimensions      [0 2 -2 0 0 0 0];

internalField   nonuniform List<scalar> 
4575
(
-0.391789
-0.392058
-0.39232
-0.392652
-0.393122
-0.393786
-0.394684
-0.395849
-0.397309
-0.399093
-0.401238
-0.40379
-0.406808
-0.410365
-0.414566
-0.419419
-0.425008
-0.390895
-0.391243
-0.391565
-0.391943
-0.392442
-0.393116
-0.394001
-0.395127
-0.396517
-0.398195
-0.400193
-0.402549
-0.405315
-0.408556
-0.412365
-0.416738
-0.421761
-0.390018
-0.390442
-0.390824
-0.391245
-0.39177
-0.39245
-0.393319
-0.3944
-0.395713
-0.397277
-0.399117
-0.401264
-0.403761
-0.406665
-0.410058
-0.41392
-0.418335
-0.389172
-0.389671
-0.390111
-0.390573
-0.391122
-0.391806
-0.392654
-0.393686
-0.394917
-0.39636
-0.398032
-0.399958
-0.402172
-0.404721
-0.407678
-0.411003
-0.414774
-0.388373
-0.388944
-0.38944
-0.389942
-0.390513
-0.391198
-0.392023
-0.393003
-0.394148
-0.395463
-0.39696
-0.398656
-0.400575
-0.402755
-0.405259
-0.408024
-0.411123
-0.387635
-0.388277
-0.388826
-0.389367
-0.389959
-0.390643
-0.391443
-0.392369
-0.393423
-0.394607
-0.395924
-0.397382
-0.398996
-0.400796
-0.402834
-0.405022
-0.407427
-0.386974
-0.387684
-0.388285
-0.388863
-0.389474
-0.390157
-0.390931
-0.3918
-0.392762
-0.393811
-0.394943
-0.396158
-0.39746
-0.398871
-0.400434
-0.402033
-0.403727
-0.386405
-0.387179
-0.387831
-0.388444
-0.389074
-0.389756
-0.390502
-0.391314
-0.392182
-0.393094
-0.394038
-0.395005
-0.395991
-0.397007
-0.398089
-0.399092
-0.400065
-0.386777
-0.387477
-0.388125
-0.388773
-0.389452
-0.390171
-0.390925
-0.391699
-0.392473
-0.393227
-0.393945
-0.394611
-0.395228
-0.395826
-0.39623
-0.39648
-0.38649
-0.387237
-0.387918
-0.388584
-0.38926
-0.389952
-0.390648
-0.391328
-0.391964
-0.392528
-0.392994
-0.393339
-0.393556
-0.393671
-0.393477
-0.393005
-0.38633
-0.387121
-0.387835
-0.388518
-0.389192
-0.389857
-0.390497
-0.391083
-0.391582
-0.391956
-0.392171
-0.392194
-0.392011
-0.391646
-0.390857
-0.389669
-0.386308
-0.387141
-0.387886
-0.388586
-0.389258
-0.389898
-0.390482
-0.390977
-0.39134
-0.391525
-0.39149
-0.391191
-0.39061
-0.389769
-0.388392
-0.386498
-0.386432
-0.387305
-0.38808
-0.388796
-0.389468
-0.390083
-0.390614
-0.391019
-0.391248
-0.391247
-0.390963
-0.390345
-0.389368
-0.388055
-0.3861
-0.383509
-0.38671
-0.387619
-0.388424
-0.389157
-0.389828
-0.390421
-0.390901
-0.391219
-0.391317
-0.391132
-0.390602
-0.389666
-0.388295
-0.386517
-0.383992
-0.380716
-0.387148
-0.388091
-0.388923
-0.389673
-0.390345
-0.390917
-0.391348
-0.391583
-0.391553
-0.391188
-0.390414
-0.389164
-0.387401
-0.385163
-0.382078
-0.378127
-0.387748
-0.388722
-0.38958
-0.390347
-0.391021
-0.391575
-0.391961
-0.392115
-0.391962
-0.39142
-0.390407
-0.388844
-0.386692
-0.383998
-0.380363
-0.375742
-0.389514
-0.390397
-0.391181
-0.391858
-0.392395
-0.392739
-0.392818
-0.392547
-0.391833
-0.390584
-0.388713
-0.386173
-0.383025
-0.378849
-0.373558
-0.390466
-0.391372
-0.392172
-0.392854
-0.393378
-0.393684
-0.393692
-0.393307
-0.392427
-0.390948
-0.388771
-0.385845
-0.382245
-0.377534
-0.371566
-0.391575
-0.392502
-0.393318
-0.394006
-0.394519
-0.394791
-0.394733
-0.394242
-0.393201
-0.391498
-0.38902
-0.385709
-0.381656
-0.376416
-0.369753
-0.392834
-0.39378
-0.394613
-0.395307
-0.395812
-0.396054
-0.395936
-0.395344
-0.394151
-0.39223
-0.389456
-0.385762
-0.381255
-0.375489
-0.368101
-0.395199
-0.396047
-0.396748
-0.397248
-0.397464
-0.397292
-0.396607
-0.395269
-0.393138
-0.390076
-0.386
-0.381034
-0.37475
-0.366591
-0.396749
-0.39761
-0.398319
-0.398815
-0.399009
-0.398788
-0.398017
-0.396544
-0.394213
-0.39087
-0.386417
-0.380988
-0.374195
-0.3652
-0.398418
-0.399289
-0.400005
-0.400498
-0.400673
-0.400409
-0.399559
-0.39796
-0.395439
-0.391827
-0.387001
-0.381105
-0.37382
-0.363912
-0.40019
-0.401069
-0.401791
-0.402281
-0.402439
-0.402135
-0.401214
-0.399497
-0.396798
-0.392929
-0.387738
-0.381368
-0.373614
-0.362681
-0.402933
-0.403657
-0.404144
-0.404286
-0.403945
-0.402958
-0.401133
-0.398267
-0.394155
-0.38861
-0.381759
-0.373561
-0.361339
-0.404864
-0.405586
-0.406066
-0.40619
-0.405814
-0.404765
-0.402839
-0.399819
-0.395478
-0.389597
-0.382279
-0.373717
-0.359728
-0.406842
-0.407556
-0.408024
-0.408127
-0.407715
-0.406605
-0.404584
-0.401419
-0.396867
-0.390673
-0.382923
-0.374144
-0.35882
-0.409546
-0.409995
-0.410072
-0.40962
-0.408449
-0.406336
-0.403034
-0.398284
-0.391806
-0.383634
-0.374221
-0.358373
-0.411535
-0.411957
-0.412
-0.411501
-0.410265
-0.408059
-0.404624
-0.399688
-0.39295
-0.384408
-0.374442
-0.357797
-0.413503
-0.413886
-0.413885
-0.413331
-0.412022
-0.409719
-0.406154
-0.401039
-0.394057
-0.385161
-0.374785
-0.357126
-0.415763
-0.415705
-0.415084
-0.413693
-0.411286
-0.407586
-0.402298
-0.395086
-0.385845
-0.375149
-0.356406
-0.41757
-0.417439
-0.416738
-0.415252
-0.412732
-0.408892
-0.40343
-0.395997
-0.386425
-0.37547
-0.355633
-0.419073
-0.418275
-0.416681
-0.414034
-0.410045
-0.404408
-0.396761
-0.386871
-0.375697
-0.354796
-0.420593
-0.419683
-0.417964
-0.415178
-0.411031
-0.405213
-0.397354
-0.387166
-0.375784
-0.353899
-0.421991
-0.420952
-0.419094
-0.416156
-0.411839
-0.405836
-0.397766
-0.387308
-0.375702
-0.35298
-0.422081
-0.420069
-0.416965
-0.412471
-0.406281
-0.397999
-0.387313
-0.37544
-0.352111
-0.423071
-0.420891
-0.417611
-0.412934
-0.406557
-0.398064
-0.387206
-0.374945
-0.351234
-0.421568
-0.418103
-0.413241
-0.406687
-0.398003
-0.38706
-0.374091
-0.349898
-0.422113
-0.418456
-0.41341
-0.4067
-0.397888
-0.387047
-0.373031
-0.348306
-0.418683
-0.413455
-0.406615
-0.397767
-0.387307
-0.372768
-0.351518
-0.418799
-0.413387
-0.406428
-0.397592
-0.387598
-0.373966
-0.368277
-0.413212
-0.406125
-0.397293
-0.387669
-0.374719
-0.372373
-0.405695
-0.396818
-0.387347
-0.374717
-0.37239
-0.40513
-0.396143
-0.386628
-0.374093
-0.370793
-0.395264
-0.38555
-0.372943
-0.368208
-0.384159
-0.371371
-0.365083
-0.382507
-0.369474
-0.361704
-0.367336
-0.358237
-0.354778
-0.367183
-0.37271
-0.370438
-0.378841
-0.374274
-0.373749
-0.37938
-0.375632
-0.37706
-0.381001
-0.379692
-0.376724
-0.380262
-0.381935
-0.380373
-0.379748
-0.377478
-0.38315
-0.380792
-0.379611
-0.379517
-0.377818
-0.385383
-0.380722
-0.379636
-0.378747
-0.37897
-0.377641
-0.386527
-0.380808
-0.3794
-0.37851
-0.377837
-0.378095
-0.376756
-0.384354
-0.379474
-0.378197
-0.377464
-0.376963
-0.377048
-0.375454
-0.369301
-0.380058
-0.378311
-0.377148
-0.376551
-0.37622
-0.376081
-0.3752
-0.365629
-0.379014
-0.377342
-0.376284
-0.37582
-0.375701
-0.375548
-0.375888
-0.366753
-0.380378
-0.378184
-0.376586
-0.37563
-0.375302
-0.375427
-0.375439
-0.376783
-0.368287
-0.379711
-0.377579
-0.376057
-0.375204
-0.375014
-0.375381
-0.375643
-0.377696
-0.369919
-0.381832
-0.379266
-0.377205
-0.375766
-0.375017
-0.374967
-0.37556
-0.37612
-0.378709
-0.371968
-0.381528
-0.379041
-0.377064
-0.375716
-0.375077
-0.375169
-0.375975
-0.376864
-0.37988
-0.374451
-0.384185
-0.381427
-0.379034
-0.377153
-0.37591
-0.375389
-0.375627
-0.376637
-0.377871
-0.381231
-0.377267
-0.384169
-0.381518
-0.379235
-0.377468
-0.376341
-0.375949
-0.376342
-0.37755
-0.379134
-0.382783
-0.380334
-0.384318
-0.381789
-0.379634
-0.377996
-0.377003
-0.376753
-0.377308
-0.378717
-0.380645
-0.384554
-0.383594
-0.387234
-0.384618
-0.382228
-0.380216
-0.378725
-0.377882
-0.377789
-0.378518
-0.380131
-0.382398
-0.386555
-0.386991
-0.387529
-0.385056
-0.382818
-0.380966
-0.379639
-0.378963
-0.379041
-0.379956
-0.381782
-0.384377
-0.388782
-0.390479
-0.387934
-0.385614
-0.383543
-0.381866
-0.380719
-0.380225
-0.38049
-0.381604
-0.383651
-0.386564
-0.391218
-0.394016
-0.390709
-0.388432
-0.386278
-0.384386
-0.382897
-0.381944
-0.381647
-0.382113
-0.383438
-0.385714
-0.388935
-0.393839
-0.397568
-0.391134
-0.389011
-0.38703
-0.385327
-0.384038
-0.383291
-0.383204
-0.383883
-0.385429
-0.387941
-0.391458
-0.39661
-0.401109
-0.391617
-0.389654
-0.387854
-0.386349
-0.385269
-0.384738
-0.38487
-0.385772
-0.387546
-0.390298
-0.3941
-0.399496
-0.404618
-0.394009
-0.392145
-0.390346
-0.388733
-0.387432
-0.386568
-0.38626
-0.386619
-0.38775
-0.389757
-0.39275
-0.396825
-0.402456
-0.408079
-0.394427
-0.392705
-0.391073
-0.389651
-0.388558
-0.387914
-0.387833
-0.388422
-0.389786
-0.392028
-0.395261
-0.399596
-0.405452
-0.41148
-0.394863
-0.393283
-0.391821
-0.390591
-0.389707
-0.389284
-0.389431
-0.390252
-0.391848
-0.394324
-0.397792
-0.402375
-0.408445
-0.414804
-0.395303
-0.393867
-0.392575
-0.391537
-0.390861
-0.390658
-0.391032
-0.392081
-0.393907
-0.396612
-0.400308
-0.405126
-0.411399
-0.418036
-0.397105
-0.395738
-0.394445
-0.393322
-0.392472
-0.392002
-0.392015
-0.39261
-0.393883
-0.395931
-0.398858
-0.402773
-0.407813
-0.414277
-0.421156
-0.397407
-0.396155
-0.395004
-0.394047
-0.393383
-0.393112
-0.393335
-0.394143
-0.395631
-0.397893
-0.401031
-0.405154
-0.410402
-0.417045
-0.424142
-0.397682
-0.396545
-0.395534
-0.394738
-0.394253
-0.394175
-0.394598
-0.39561
-0.397302
-0.399766
-0.403103
-0.40742
-0.412861
-0.41967
-0.426969
-0.397921
-0.396898
-0.396022
-0.395382
-0.395069
-0.395175
-0.395787
-0.396991
-0.398874
-0.401525
-0.405045
-0.409542
-0.415159
-0.42212
-0.429608
-0.399122
-0.398115
-0.397203
-0.39646
-0.395969
-0.395819
-0.396096
-0.396885
-0.398267
-0.400325
-0.403148
-0.406835
-0.411493
-0.41727
-0.424366
-0.432032
-0.399172
-0.398256
-0.397454
-0.396837
-0.396487
-0.39649
-0.396927
-0.397879
-0.399423
-0.401639
-0.404615
-0.40845
-0.413249
-0.419166
-0.42638
-0.434208
-0.399162
-0.398338
-0.397641
-0.397145
-0.396928
-0.397072
-0.397656
-0.398755
-0.400444
-0.4028
-0.40591
-0.409871
-0.414791
-0.420824
-0.428134
-0.436108
-0.399088
-0.398354
-0.397759
-0.397377
-0.397284
-0.397558
-0.398274
-0.399504
-0.401319
-0.403795
-0.407017
-0.411082
-0.416099
-0.422225
-0.429606
-0.437704
-0.398944
-0.398299
-0.397803
-0.397527
-0.397548
-0.397939
-0.398773
-0.400117
-0.40204
-0.404615
-0.407927
-0.412073
-0.417161
-0.423352
-0.430775
-0.438968
-0.398728
-0.39817
-0.397768
-0.397592
-0.397716
-0.398212
-0.399148
-0.400588
-0.402599
-0.405253
-0.408631
-0.412832
-0.417964
-0.424189
-0.431624
-0.439879
-0.398437
-0.397965
-0.397652
-0.397568
-0.397785
-0.398373
-0.399396
-0.400916
-0.402995
-0.405705
-0.409126
-0.413355
-0.418502
-0.424729
-0.43214
-0.440418
-0.39807
-0.397682
-0.397453
-0.397454
-0.397755
-0.398422
-0.399516
-0.401098
-0.403226
-0.40597
-0.409409
-0.413639
-0.418771
-0.424964
-0.432315
-0.440569
-0.398032
-0.39763
-0.397323
-0.397174
-0.397252
-0.397625
-0.398359
-0.399511
-0.401137
-0.403295
-0.406051
-0.409484
-0.413687
-0.418771
-0.424894
-0.432143
-0.440324
-0.397434
-0.397118
-0.39689
-0.396816
-0.396963
-0.397401
-0.398189
-0.399384
-0.401037
-0.403206
-0.405952
-0.409354
-0.413503
-0.418506
-0.424521
-0.431628
-0.439676
-0.396768
-0.396538
-0.396387
-0.396383
-0.396593
-0.397085
-0.397917
-0.399141
-0.400806
-0.402967
-0.405683
-0.409029
-0.413095
-0.417985
-0.423853
-0.430774
-0.43862
-0.396041
-0.395896
-0.39582
-0.395881
-0.396148
-0.396686
-0.39755
-0.39879
-0.400453
-0.402588
-0.405253
-0.40852
-0.412475
-0.41722
-0.422902
-0.429586
-0.437176
-0.395259
-0.3952
-0.395196
-0.395317
-0.395635
-0.396211
-0.397098
-0.398343
-0.399989
-0.402082
-0.404677
-0.407842
-0.411658
-0.416225
-0.421682
-0.428082
-0.435403
-0.394432
-0.394457
-0.394522
-0.394702
-0.395065
-0.395671
-0.396572
-0.397811
-0.399426
-0.401462
-0.403969
-0.40701
-0.410661
-0.415019
-0.420214
-0.426288
-0.433267
-0.393571
-0.393678
-0.393811
-0.394044
-0.394447
-0.395078
-0.395985
-0.397207
-0.398781
-0.400745
-0.403147
-0.406043
-0.409506
-0.413624
-0.41852
-0.424227
-0.430799
-0.392685
-0.392874
-0.393073
-0.393357
-0.393795
-0.394445
-0.395351
-0.396548
-0.398069
-0.399949
-0.402229
-0.404962
-0.408213
-0.412064
-0.416628
-0.421927
-0.428034
-0.441323
-0.46592
-0.501715
-0.529302
-0.548938
-0.541552
-0.506481
-0.442926
-0.371495
-0.306024
-0.436613
-0.458958
-0.492285
-0.517508
-0.53554
-0.527488
-0.493417
-0.432263
-0.364126
-0.301676
-0.431711
-0.451617
-0.48233
-0.505028
-0.521385
-0.512686
-0.479697
-0.421027
-0.356259
-0.296864
-0.426682
-0.443967
-0.47193
-0.491944
-0.506544
-0.497213
-0.465353
-0.409236
-0.347895
-0.291572
-0.42159
-0.43608
-0.461171
-0.478345
-0.491095
-0.481125
-0.450431
-0.396913
-0.339034
-0.285788
-0.416499
-0.428031
-0.450143
-0.464328
-0.475127
-0.464489
-0.434973
-0.38408
-0.329682
-0.279502
-0.411473
-0.419896
-0.43894
-0.449994
-0.458729
-0.447379
-0.419043
-0.370745
-0.319845
-0.27271
-0.406571
-0.41175
-0.427656
-0.435445
-0.442
-0.429871
-0.402698
-0.356938
-0.309533
-0.265413
-0.40185
-0.403666
-0.416385
-0.420789
-0.42504
-0.412046
-0.385978
-0.34271
-0.298761
-0.257616
-0.397361
-0.395715
-0.405217
-0.406131
-0.407954
-0.393988
-0.368945
-0.328096
-0.287545
-0.249333
-0.39315
-0.387961
-0.394239
-0.391576
-0.39085
-0.375789
-0.351665
-0.313136
-0.275908
-0.240581
-0.389255
-0.380467
-0.383533
-0.377226
-0.373834
-0.357542
-0.334211
-0.297877
-0.263875
-0.231388
-0.38571
-0.373286
-0.373175
-0.363178
-0.357016
-0.339273
-0.316658
-0.282374
-0.251478
-0.221786
-0.38254
-0.366468
-0.36323
-0.349525
-0.340492
-0.321105
-0.299098
-0.266689
-0.238753
-0.211816
-0.379765
-0.360055
-0.353759
-0.33635
-0.324364
-0.30575
-0.281628
-0.250902
-0.225723
-0.201527
-0.377394
-0.35408
-0.344813
-0.323727
-0.308685
-0.287888
-0.264281
-0.235267
-0.212278
-0.190972
-0.375433
-0.348571
-0.336433
-0.311725
-0.293573
-0.270521
-0.247165
-0.21963
-0.198742
-0.180211
-0.373878
-0.343547
-0.328653
-0.300403
-0.279129
-0.253912
-0.230378
-0.204026
-0.185248
-0.169308
-0.372719
-0.339021
-0.321499
-0.28981
-0.26543
-0.238058
-0.21402
-0.188541
-0.171875
-0.158329
-0.371938
-0.334998
-0.314988
-0.279983
-0.252534
-0.22298
-0.198189
-0.173247
-0.158708
-0.147347
-0.371513
-0.331475
-0.309127
-0.270951
-0.240489
-0.208725
-0.182982
-0.158235
-0.14583
-0.136436
-0.371414
-0.328441
-0.303918
-0.262733
-0.229334
-0.195352
-0.168487
-0.144034
-0.132944
-0.125666
-0.371603
-0.325881
-0.299352
-0.255339
-0.219098
-0.182911
-0.154786
-0.130522
-0.120369
-0.115105
-0.372046
-0.323778
-0.295416
-0.24877
-0.209801
-0.171442
-0.14195
-0.1177
-0.108262
-0.104814
-0.372741
-0.322108
-0.292083
-0.24302
-0.201454
-0.160976
-0.129941
-0.105652
-0.0966821
-0.0948567
-0.37367
-0.320812
-0.289321
-0.238076
-0.194059
-0.151513
-0.118935
-0.0944694
-0.0856947
-0.0852903
-0.0996602
-0.374457
-0.31982
-0.287106
-0.233921
-0.187607
-0.143065
-0.112658
-0.0842443
-0.0753614
-0.0761655
-0.0919494
-0.375118
-0.319281
-0.285411
-0.230527
-0.18209
-0.13555
-0.102509
-0.0749509
-0.0657293
-0.0675247
-0.0845485
-0.375801
-0.31909
-0.28411
-0.227833
-0.177498
-0.128963
-0.0940073
-0.0661485
-0.0568266
-0.0594023
-0.0774839
-0.376465
-0.319185
-0.28317
-0.225761
-0.173805
-0.12332
-0.0871482
-0.0583418
-0.0486797
-0.0518245
-0.0707762
-0.377019
-0.319469
-0.282596
-0.224447
-0.170889
-0.119178
-0.0809527
-0.0515043
-0.0413064
-0.0448103
-0.0644401
-0.377385
-0.319914
-0.282318
-0.223712
-0.168844
-0.115912
-0.0759783
-0.0456001
-0.0347208
-0.0383719
-0.0584851
-0.377486
-0.320489
-0.28228
-0.223492
-0.167574
-0.113562
-0.0720893
-0.0406258
-0.0289305
-0.032516
-0.0529166
-0.377242
-0.321156
-0.282443
-0.223755
-0.167028
-0.112125
-0.0692083
-0.0365837
-0.0239384
-0.0272464
-0.0477365
-0.376565
-0.321864
-0.28276
-0.224442
-0.167155
-0.111546
-0.0673081
-0.0334712
-0.019743
-0.0225654
-0.0429464
-0.375348
-0.32252
-0.283142
-0.225435
-0.167832
-0.111711
-0.066313
-0.0312776
-0.0163269
-0.0184724
-0.038552
-0.37352
-0.32307
-0.283557
-0.226671
-0.168983
-0.112542
-0.066149
-0.0299538
-0.0136788
-0.0149657
-0.0345471
-0.371207
-0.323779
-0.284385
-0.228582
-0.171056
-0.114435
-0.0671151
-0.0293364
-0.01194
-0.0120846
-0.0308701
-0.0644315
-0.368239
-0.324711
-0.285808
-0.231459
-0.174374
-0.117724
-0.0695269
-0.0298255
-0.011313
-0.00995974
-0.0275944
-0.0602838
-0.362238
-0.323085
-0.28462
-0.231619
-0.175059
-0.118801
-0.0704211
-0.0346462
-0.010563
-0.00847019
-0.0255962
-0.0578216
-0.343648
-0.313838
-0.275546
-0.223542
-0.167163
-0.111591
-0.0630321
-0.0250562
-0.00410919
-0.00317749
-0.0221401
-0.0564182
-0.320743
-0.294258
-0.257257
-0.209092
-0.156929
-0.10617
-0.0619293
-0.0288779
-0.00869825
-0.00795829
-0.0262399
-0.0589318
-0.300879
-0.275148
-0.239634
-0.196162
-0.149303
-0.103651
-0.0635087
-0.033367
-0.0159619
-0.0159395
-0.0330779
-0.0630695
-0.282568
-0.257085
-0.223395
-0.184877
-0.143625
-0.103147
-0.0676074
-0.0403965
-0.0251454
-0.0251446
-0.0403698
-0.0670214
-0.263446
-0.239954
-0.208501
-0.174799
-0.139007
-0.103636
-0.0723462
-0.0484025
-0.0348932
-0.0344592
-0.0472289
-0.0700457
-0.244722
-0.223819
-0.195741
-0.165679
-0.134846
-0.104279
-0.077011
-0.0560416
-0.0439695
-0.042901
-0.0530161
-0.0717844
-0.226662
-0.208489
-0.183242
-0.157151
-0.130759
-0.104571
-0.0809651
-0.0626044
-0.0517143
-0.0499422
-0.0574643
-0.0723152
-0.209476
-0.193993
-0.171713
-0.149102
-0.126581
-0.104246
-0.0838801
-0.067797
-0.057895
-0.0554623
-0.0606551
-0.0719845
-0.193301
-0.180327
-0.16095
-0.14141
-0.122211
-0.103205
-0.0856818
-0.0715885
-0.0625413
-0.0595635
-0.0627873
-0.0710965
-0.178177
-0.16746
-0.150798
-0.133983
-0.117629
-0.101478
-0.0864305
-0.0740781
-0.0657947
-0.0624103
-0.0640351
-0.0698345
-0.164088
-0.155353
-0.14116
-0.126761
-0.11285
-0.0991408
-0.0862358
-0.0754109
-0.0678261
-0.0641689
-0.0645354
-0.0683012
-0.150984
-0.143965
-0.131973
-0.11971
-0.107905
-0.0962794
-0.0852236
-0.0757416
-0.068805
-0.0649932
-0.0643969
-0.0665447
-0.138802
-0.133255
-0.123197
-0.112811
-0.102825
-0.0929814
-0.0835191
-0.0752193
-0.0688889
-0.0650216
-0.0637059
-0.0645887
-0.127478
-0.123182
-0.114806
-0.106061
-0.0976469
-0.0893296
-0.0812402
-0.0739815
-0.0682194
-0.0643761
-0.0625402
-0.0624531
-0.116948
-0.11371
-0.106787
-0.0994658
-0.0924089
-0.0854001
-0.0784941
-0.0721529
-0.066923
-0.0631662
-0.0609724
-0.0601538
-0.107155
-0.104805
-0.0991266
-0.0930365
-0.0871483
-0.0812622
-0.0753773
-0.0698449
-0.0651126
-0.0614904
-0.0590671
-0.057713
-0.098046
-0.096434
-0.0918187
-0.0867858
-0.0819015
-0.0769785
-0.0719754
-0.0671566
-0.0628885
-0.0594371
-0.0568877
-0.0551538
-0.0895715
-0.0885692
-0.0848559
-0.0807273
-0.0767022
-0.0726049
-0.0683639
-0.0641751
-0.0603385
-0.0570844
-0.0544883
-0.0525007
-0.081687
-0.0811831
-0.0782318
-0.074873
-0.0715811
-0.0681908
-0.0646085
-0.060976
-0.057539
-0.0545011
-0.0519173
-0.0497775
-0.074351
-0.0742501
-0.0719396
-0.0692336
-0.0665652
-0.063779
-0.0607662
-0.057625
-0.0545545
-0.0517172
-0.0492165
-0.0470069
-0.0675252
-0.0677462
-0.0659717
-0.0638171
-0.0616772
-0.0594064
-0.0568856
-0.0541792
-0.0514492
-0.0488396
-0.0464319
-0.0442114
-0.0611741
-0.0616484
-0.0603203
-0.0586296
-0.056936
-0.0551039
-0.053008
-0.0506858
-0.048269
-0.0458821
-0.0435957
-0.0414108
-0.0552648
-0.0559347
-0.0549765
-0.0536745
-0.0523566
-0.0508968
-0.0491674
-0.0471845
-0.0450542
-0.042884
-0.0407368
-0.0386225
-0.0497669
-0.0505844
-0.0499309
-0.0489534
-0.0479505
-0.0468059
-0.0453918
-0.0437079
-0.0418391
-0.0398776
-0.0378803
-0.0358619
-0.0446519
-0.0455772
-0.0451734
-0.0444656
-0.0437258
-0.0428472
-0.0417039
-0.0402831
-0.0386521
-0.0368897
-0.0350474
-0.0331423
-0.0398937
-0.040894
-0.0406936
-0.0402089
-0.039688
-0.039033
-0.0381219
-0.0369321
-0.0355164
-0.0339423
-0.0322558
-0.0304755
-0.035468
-0.0365164
-0.0364804
-0.0361795
-0.0358398
-0.0353722
-0.0346595
-0.0336723
-0.0324508
-0.031053
-0.0295203
-0.0278709
-0.031352
-0.0324269
-0.0325227
-0.0323724
-0.032182
-0.0318707
-0.0313272
-0.0305169
-0.0294702
-0.0282368
-0.026853
-0.0253368
-0.0275249
-0.0286089
-0.0288093
-0.0287816
-0.0287135
-0.028532
-0.0281321
-0.027476
-0.0265863
-0.0255048
-0.0242636
-0.0228797
-0.0239672
-0.0250465
-0.0253289
-0.0254003
-0.0254317
-0.0253573
-0.025079
-0.0245572
-0.0238071
-0.0228653
-0.0217593
-0.0205048
-0.0206607
-0.0217246
-0.0220703
-0.0222212
-0.0223327
-0.0223463
-0.0221706
-0.0217651
-0.0211394
-0.0203253
-0.019346
-0.0182161
-0.0175888
-0.0186288
-0.0190223
-0.0192363
-0.019412
-0.0194972
-0.0194074
-0.0191026
-0.0185888
-0.0178897
-0.017028
-0.0160163
-0.0147359
-0.0157457
-0.0161743
-0.0164377
-0.0166639
-0.0168069
-0.0167888
-0.0165706
-0.0161553
-0.0155604
-0.0148075
-0.0139074
-0.0120874
-0.0130624
-0.0135156
-0.0138171
-0.0140826
-0.0142715
-0.0143128
-0.0141686
-0.0138382
-0.0133383
-0.0126859
-0.0118905
-0.00962987
-0.0105669
-0.0110362
-0.0113663
-0.0116617
-0.0118866
-0.0119766
-0.0118954
-0.0116404
-0.0112251
-0.0106642
-0.00996587
-0.00735087
-0.00824786
-0.00872626
-0.00907711
-0.00939452
-0.00964721
-0.00977675
-0.00974893
-0.0095597
-0.00922006
-0.00874228
-0.00813346
-0.00523875
-0.00609447
-0.00657636
-0.00694158
-0.00727454
-0.00754801
-0.00770938
-0.00772669
-0.00759438
-0.00732178
-0.00691923
-0.00639256
-0.00328274
-0.00409671
-0.0045776
-0.00495188
-0.00529507
-0.00558351
-0.00577005
-0.00582504
-0.00574226
-0.00552897
-0.00519399
-0.00474212
-0.00147279
-0.00224514
-0.00272142
-0.00310047
-0.0034495
-0.0037481
-0.00395415
-0.0040404
-0.00400029
-0.00383932
-0.00356482
-0.00318076
0.000200416
-0.000530901
-0.000999765
-0.00138005
-0.00173137
-0.00203614
-0.00225696
-0.002369
-0.00236531
-0.00225007
-0.00202948
-0.00170673
0.00174552
0.00105429
0.000595032
0.000216331
-0.000134399
-0.000442089
-0.00067366
-0.000806603
-0.000833924
-0.000758628
-0.000585886
-0.000318219
0.00317057
0.00251818
0.00207018
0.00169532
0.00134748
0.00103953
0.000800582
0.000650897
0.000597338
0.000637921
0.000768401
0.00098678
0.00448301
0.00386802
0.00343247
0.00306323
0.00272009
0.002414
0.00217048
0.00200762
0.00193202
0.0019426
0.00203593
0.00221041
0.00568976
0.00511053
0.00468828
0.00432601
0.00398896
0.00368642
0.00344062
0.00326766
0.00317373
0.00315847
0.00321919
0.00335478
0.00679721
0.006252
0.00584354
0.00548927
0.00515935
0.00486166
0.00461545
0.00443495
0.00432594
0.00428861
0.00432084
0.00442206
0.00781127
0.00729824
0.00690382
0.00655827
0.00623622
0.00594433
0.00569918
0.00551329
0.00539198
0.00533597
0.00534339
0.00541445
0.00873739
0.00825464
0.00787426
0.00753789
0.0072242
0.0069388
0.00669585
0.00650628
0.00637481
0.00630187
0.00628912
0.00633408
0.00958055
0.00912613
0.00875962
0.00843269
0.00812762
0.00784918
0.00760939
0.00741769
0.0072786
0.00719325
0.00716167
0.00718331
0.0103453
0.00991725
0.00956425
0.00924681
0.00895044
0.00867921
0.00844325
0.00825072
0.00810572
0.00800962
0.00796237
0.00796386
0.0110358
0.0106321
0.0102921
0.00998402
0.00969628
0.0094323
0.00920062
0.00900822
0.00885872
0.00875356
0.00869303
0.00867723
0.0116557
0.0112743
0.0109467
0.0106477
0.0103683
0.0101115
0.00988435
0.00969274
0.00953997
0.00942738
0.00935553
0.00932491
0.0122081
0.0118471
0.0115311
0.0112408
0.0109694
0.0107195
0.0104969
0.0103066
0.0101515
0.010033
0.00995173
0.00990846
0.012696
0.0123532
0.0120479
0.0117658
0.011502
0.0112586
0.0110405
0.0108518
0.0106951
0.0105718
0.0104829
0.0104289
0.0131216
0.0127949
0.0124994
0.0122248
0.0119679
0.0117305
0.0115167
0.0113298
0.0111722
0.0110452
0.0109497
0.010887
0.0134866
0.013174
0.0128872
0.0126194
0.0123686
0.0121366
0.0119267
0.0117417
0.0115836
0.0114538
0.0113534
0.0112834
0.0137922
0.0134916
0.0132123
0.0129503
0.0127049
0.0124777
0.0122713
0.0120881
0.0119299
0.011798
0.0116935
0.0116175
0.014039
0.0137481
0.0134751
0.013218
0.012977
0.0127538
0.0125504
0.0123688
0.0122106
0.0120771
0.0119696
0.0118889
0.0142268
0.0139434
0.0136752
0.0134219
0.0131845
0.0129643
0.0127633
0.012583
0.0124249
0.0122903
0.0121805
0.0120965
0.0143544
0.0140761
0.0138113
0.0135607
0.0133256
0.0131076
0.0129082
0.0127288
0.0125709
0.0124356
0.0123243
0.012238
0.0144201
0.0141444
0.0138812
0.013632
0.0133982
0.0131813
0.0129827
0.0128038
0.0126459
0.0125104
0.0123983
0.0123109
-0.324793
-0.32746
-0.330284
-0.33335
-0.336772
-0.340721
-0.345441
-0.351323
-0.358726
-0.36996
-0.304376
-0.307607
-0.311012
-0.314623
-0.318468
-0.322568
-0.32691
-0.331569
-0.336054
-0.34323
-0.281414
-0.284181
-0.286978
-0.289818
-0.292717
-0.295709
-0.298816
-0.302236
-0.305587
-0.311375
-0.259207
-0.261753
-0.264331
-0.266956
-0.269649
-0.272434
-0.275307
-0.278386
-0.281315
-0.285753
-0.239001
-0.241408
-0.243819
-0.246238
-0.248666
-0.251114
-0.25357
-0.256115
-0.258541
-0.261918
-0.219973
-0.222205
-0.224426
-0.226639
-0.228847
-0.231059
-0.233272
-0.235535
-0.237733
-0.240479
-0.202316
-0.20442
-0.206511
-0.208591
-0.210659
-0.21272
-0.21477
-0.216834
-0.218856
-0.221178
-0.185972
-0.18796
-0.189933
-0.191891
-0.193835
-0.195766
-0.197683
-0.1996
-0.201493
-0.20355
-0.170814
-0.172694
-0.174559
-0.176411
-0.17825
-0.180076
-0.18189
-0.183696
-0.185489
-0.187367
-0.156776
-0.158553
-0.160319
-0.162073
-0.163815
-0.165547
-0.167267
-0.168979
-0.170682
-0.172429
-0.143773
-0.145451
-0.14712
-0.14878
-0.15043
-0.152072
-0.153706
-0.155331
-0.15695
-0.15859
-0.131731
-0.133313
-0.134888
-0.136456
-0.138017
-0.139572
-0.141121
-0.142663
-0.144202
-0.145745
-0.120581
-0.122069
-0.123553
-0.125031
-0.126505
-0.127974
-0.12944
-0.1309
-0.132359
-0.133811
-0.110257
-0.111654
-0.113048
-0.11444
-0.115828
-0.117213
-0.118597
-0.119977
-0.121356
-0.122721
-0.100697
-0.102007
-0.103315
-0.104621
-0.105926
-0.10723
-0.108532
-0.109833
-0.111135
-0.112414
-0.0918448
-0.0930702
-0.094295
-0.0955193
-0.0967432
-0.0979669
-0.0991908
-0.100414
-0.101639
-0.102837
-0.0836462
-0.0847909
-0.0859357
-0.087081
-0.0882267
-0.0893732
-0.0905206
-0.0916683
-0.092819
-0.0939381
-0.0760514
-0.077119
-0.0781875
-0.0792569
-0.0803275
-0.0813995
-0.0824731
-0.0835476
-0.0846257
-0.0856696
-0.0690143
-0.0700086
-0.0710042
-0.0720013
-0.0729999
-0.0740004
-0.075003
-0.0760069
-0.0770149
-0.0779872
-0.0624921
-0.0634169
-0.0643433
-0.0652715
-0.0662016
-0.0671338
-0.0680683
-0.0690044
-0.069945
-0.0708492
-0.0564454
-0.0573046
-0.0581655
-0.0590283
-0.0598932
-0.0607603
-0.0616299
-0.0625014
-0.0633772
-0.0642171
-0.0516353
-0.0524343
-0.0532353
-0.0540385
-0.0548439
-0.0556518
-0.0564616
-0.0572758
-0.0580548
-0.0463756
-0.0471164
-0.0478591
-0.0486039
-0.0493509
-0.0501004
-0.0508517
-0.0516074
-0.0523291
-0.0414949
-0.0421808
-0.0428687
-0.0435586
-0.0442505
-0.0449448
-0.045641
-0.0463411
-0.0470091
-0.0369647
-0.0375994
-0.0382357
-0.038874
-0.0395142
-0.0401566
-0.0408007
-0.0414485
-0.0420661
-0.0327594
-0.033346
-0.0339341
-0.034524
-0.0351157
-0.0357093
-0.0363045
-0.0369031
-0.0374736
-0.028855
-0.0293966
-0.0299398
-0.0304844
-0.0310306
-0.0315786
-0.032128
-0.0326805
-0.0332069
-0.0252296
-0.0257294
-0.0262305
-0.0267329
-0.0272367
-0.0277421
-0.0282487
-0.0287579
-0.0292434
-0.0218631
-0.022324
-0.022786
-0.0232491
-0.0237133
-0.0241789
-0.0246456
-0.0251145
-0.025562
-0.018737
-0.0191617
-0.0195873
-0.0200139
-0.0204414
-0.02087
-0.0212995
-0.021731
-0.022143
-0.0158344
-0.0162255
-0.0166174
-0.01701
-0.0174033
-0.0177976
-0.0181926
-0.0185892
-0.0189684
-0.0131396
-0.0134996
-0.0138601
-0.0142212
-0.014583
-0.0149454