/*--------------------------------*- C++ -*----------------------------------*\
  =========                 |
  \\      /  F ield         | OpenFOAM: The Open Source CFD Toolbox
   \\    /   O peration     | Website:  https://openfoam.org
    \\  /    A nd           | Version:  7
     \\/     M anipulation  |
\*---------------------------------------------------------------------------*/
FoamFile
{
    version     2.0;
    format      ascii;
    class       surfaceScalarField;
    location    "120";
    object      phi;
}
// * * * * * * * * * * * * * * * * * * * * * * * * * * * * * * * * * * * * * //

dimensions      [0 3 -1 0 0 0 0];

internalField   nonuniform List<scalar> 
8899
(
-1.13672e-05
-0.000272358
0.000277464
-1.80817e-05
-0.000339443
0.000346158
-2.63886e-05
-0.000400871
0.000409178
-3.62117e-05
-0.000456745
0.000466568
-4.74198e-05
-0.000507637
0.000518845
-5.98398e-05
-0.000554511
0.000566931
-7.3275e-05
-0.000598586
0.000612022
-8.7527e-05
-0.000641184
0.000655436
-0.000102415
-0.000683575
0.000698462
-0.00011779
-0.000726849
0.000742225
-0.000133546
-0.000771838
0.000787594
-0.000149613
-0.000819069
0.000835136
-0.000165952
-0.000868757
0.000885095
-0.000182535
-0.000920814
0.000937397
-0.000199332
-0.000974863
0.00099166
-0.000216292
-0.00103022
0.00104718
-0.00108582
0.00110289
-0.000233367
-1.38592e-05
-0.000266262
-2.17264e-05
-0.000331576
-3.13113e-05
-0.000391286
-4.2509e-05
-0.000445547
-5.51695e-05
-0.000494977
-6.91119e-05
-0.000540569
-8.41429e-05
-0.000583555
-0.000100078
-0.000625249
-0.000116761
-0.000666892
-0.000134078
-0.000709532
-0.000151966
-0.00075395
-0.000170408
-0.000800627
-0.000189422
-0.000849742
-0.000209044
-0.000901192
-0.000229303
-0.000954604
-0.000250199
-0.00100933
-0.00106429
-0.000271722
-1.63059e-05
-0.000259202
-2.52896e-05
-0.000322592
-3.6104e-05
-0.000380472
-4.86149e-05
-0.000433036
-6.26538e-05
-0.000480938
-7.80313e-05
-0.000525191
-9.45565e-05
-0.00056703
-0.000112057
-0.000607748
-0.000130399
-0.00064855
-0.0001495
-0.000690431
-0.000169335
-0.000734115
-0.000189935
-0.000780026
-0.000211375
-0.000828302
-0.000233749
-0.000878818
-0.000257146
-0.000931207
-0.000281615
-0.000984856
-0.00103872
-0.000307186
-1.8687e-05
-0.000251207
-2.87435e-05
-0.000312536
-4.0731e-05
-0.000368484
-5.44866e-05
-0.00041928
-6.98226e-05
-0.000465602
-8.65412e-05
-0.000508473
-0.000104452
-0.000549119
-0.000123394
-0.000588807
-0.00014325
-0.000628693
-0.000163965
-0.000669717
-0.000185548
-0.000712532
-0.000208073
-0.000757501
-0.000231665
-0.00080471
-0.000256475
-0.000854008
-0.000282649
-0.000905033
-0.000310289
-0.000957217
-0.00100955
-0.000339461
-2.09829e-05
-0.000242318
-3.20611e-05
-0.000301458
-4.51586e-05
-0.000355387
-6.00834e-05
-0.000404356
-7.66292e-05
-0.000449056
-9.4589e-05
-0.000490513
-0.000113772
-0.000529936
-0.000134024
-0.000568555
-0.000155243
-0.000607475
-0.000177393
-0.000647566
-0.000200514
-0.000689412
-0.000224715
-0.0007333
-0.000250166
-0.00077926
-0.00027707
-0.000827104
-0.000305631
-0.000876473
-0.000336
-0.000926848
-0.000977266
-0.000368285
-2.31748e-05
-0.000232579
-3.52167e-05
-0.000289416
-4.9354e-05
-0.000341249
-6.53666e-05
-0.000388343
-8.30294e-05
-0.000431393
-0.000102125
-0.000471417
-0.000122462
-0.000509599
-0.000143889
-0.000547128
-0.000166313
-0.000585051
-0.000189714
-0.000624165
-0.000214152
-0.000664973
-0.000239768
-0.000707685
-0.000266768
-0.000752259
-0.000295405
-0.000798467
-0.000325935
-0.000845943
-0.000358564
-0.000894219
-0.000942395
-0.000393435
-2.52444e-05
-0.000222043
-3.81856e-05
-0.000276475
-5.32866e-05
-0.000326148
-7.02997e-05
-0.00037133
-8.89815e-05
-0.000412711
-0.000109105
-0.000451294
-0.000130472
-0.000488231
-0.000152934
-0.000524667
-0.000176402
-0.000561583
-0.000200865
-0.000599702
-0.000226395
-0.000639442
-0.000253155
-0.000680925
-0.000281383
-0.000724032
-0.000311373
-0.000768476
-0.000343434
-0.000813881
-0.000377824
-0.000859829
-0.00090549
-0.000414728
-2.71743e-05
-4.09443e-05
-0.000262705
-5.69268e-05
-0.000310166
-7.48481e-05
-0.000353409
-9.44467e-05
-0.000393113
-0.000115484
-0.000430257
-0.000137756
-0.000465959
-0.000161111
-0.000501312
-0.00018546
-0.000537234
-0.000210792
-0.00057437
-0.000237185
-0.000613049
-0.000264813
-0.000653297
-0.000293938
-0.000694907
-0.000324889
-0.000737524
-0.000358026
-0.000780745
-0.00039366
-0.000824196
-0.00086713
-0.000432019
-4.347e-05
-0.000248183
-6.02467e-05
-0.000293389
-7.8979e-05
-0.000334676
-9.93878e-05
-0.000372704
-0.000121222
-0.000408422
-0.000144272
-0.00044291
-0.000168376
-0.000477208
-0.00019344
-0.00051217
-0.000219448
-0.000548363
-0.000246474
-0.000586023
-0.000274692
-0.000625079
-0.000304377
-0.000665222
-0.00033589
-0.000706011
-0.000369635
-0.000747
-0.000405978
-0.000787853
-0.00082791
-0.000445198
-4.57414e-05
-0.000232991
-6.32197e-05
-0.000275911
-8.26613e-05
-0.000315235
-0.00010377
-0.000351595
-0.000126283
-0.000385909
-0.000149978
-0.000419215
-0.000174686
-0.000452499
-0.000200301
-0.000486555
-0.000226792
-0.000521871
-0.00025422
-0.000558595
-0.000282751
-0.000596548
-0.000312661
-0.000635312
-0.00034433
-0.000674342
-0.000378206
-0.000713125
-0.000414713
-0.000751345
-0.000788438
-0.000454185
-4.77381e-05
-0.000217215
-6.58207e-05
-0.000257828
-8.58655e-05
-0.00029519
-0.00010756
-0.000329901
-0.000130627
-0.000362842
-0.000154836
-0.000395006
-0.000180001
-0.000427334
-0.000206001
-0.000460555
-0.000232785
-0.000495088
-0.000260388
-0.000530991
-0.000288957
-0.00056798
-0.000318757
-0.000605512
-0.000350178
-0.00064292
-0.000383703
-0.0006796
-0.000419821
-0.000715228
-0.00074933
-0.000458928
-4.94412e-05
-0.000200949
-6.80263e-05
-0.000239243
-8.85639e-05
-0.000274652
-0.000110725
-0.00030774
-0.000134222
-0.000339345
-0.000158807
-0.000370421
-0.000184282
-0.000401859
-0.000210503
-0.000434334
-0.000237389
-0.000468202
-0.000264946
-0.000503435
-0.000293283
-0.000539642
-0.000322644
-0.000576151
-0.000353414
-0.00061215
-0.000386107
-0.000646907
-0.000421275
-0.00068006
-0.000711213
-0.000459392
-5.08337e-05
-0.000184287
-6.98147e-05
-0.000220262
-9.07302e-05
-0.000253737
-0.000113237
-0.000285233
-0.000137032
-0.00031555
-0.000161855
-0.000345598
-0.00018749
-0.000376224
-0.000213766
-0.000408059
-0.000240568
-0.000441399
-0.000267859
-0.000476144
-0.000295703
-0.000511798
-0.000324303
-0.000547552
-0.000354026
-0.000582427
-0.000385406
-0.000615527
-0.000419059
-0.000646407
-0.000674719
-0.000455554
-5.19e-05
-0.000167331
-7.11662e-05
-0.000200996
-9.23402e-05
-0.000232563
-0.000115064
-0.000262509
-0.000139023
-0.000291591
-0.000163942
-0.000320679
-0.000189584
-0.000350582
-0.000215748
-0.000381894
-0.000242281
-0.000414866
-0.000269093
-0.000449332
-0.00029619
-0.000484702
-0.000323716
-0.000520025
-0.000352005
-0.000554138
-0.000381595
-0.000585937
-0.000413168
-0.000614834
-0.000640489
-0.000447397
-5.26265e-05
-0.000150184
-7.20628e-05
-0.00018156
-9.33712e-05
-0.000211254
-0.000116181
-0.000239699
-0.000140165
-0.000267608
-0.000165031
-0.000295812
-0.000190522
-0.000325092
-0.000216405
-0.000356011
-0.000242484
-0.000388787
-0.000268607
-0.000423209
-0.000294709
-0.0004586
-0.000320861
-0.000493873
-0.000347339
-0.00052766
-0.000374669
-0.000558607
-0.000403593
-0.00058591
-0.000609176
-0.000434907
-5.30018e-05
-7.24891e-05
-0.000162072
-9.38032e-05
-0.00018994
-0.000116562
-0.000216941
-0.000140424
-0.000243745
-0.000165084
-0.000271152
-0.00019026
-0.000299915
-0.000215689
-0.000330581
-0.000241125
-0.000363352
-0.000266351
-0.000397983
-0.000291219
-0.000433733
-0.000315708
-0.000469383
-0.000340012
-0.000503356
-0.000364623
-0.000533996
-0.00039033
-0.000560203
-0.000581443
-0.000418063
-7.24318e-05
-0.000142657
-9.36186e-05
-0.000168753
-0.000116183
-0.000194377
-0.000139772
-0.000220157
-0.000164063
-0.00024686
-0.000188755
-0.000275224
-0.000213548
-0.000305788
-0.000238147
-0.000338753
-0.000262267
-0.000373863
-0.000285665
-0.000410334
-0.000308213
-0.000446835
-0.000329997
-0.000481573
-0.000351442
-0.000512551
-0.000373368
-0.000538277
-0.00055797
-0.000396841
-7.18811e-05
-0.00012344
-9.28029e-05
-0.000147831
-0.000115024
-0.000172155
-0.000138181
-0.000197
-0.000161934
-0.000223107
-0.00018596
-0.000251199
-0.000209926
-0.000281821
-0.000233488
-0.000315191
-0.000256287
-0.000351064
-0.000277982
-0.000388639
-0.00029832
-0.000426498
-0.000317251
-0.000462641
-0.000335102
-0.0004947
-0.000352692
-0.000520687
-0.000539447
-0.000371215
-7.08304e-05
-0.000104549
-9.13461e-05
-0.000127316
-0.000113071
-0.00015043
-0.000135628
-0.000174443
-0.000158664
-0.000200071
-0.000181832
-0.000228031
-0.000204768
-0.000258885
-0.000227078
-0.00029288
-0.000248333
-0.00032981
-0.000268088
-0.000368884
-0.000285953
-0.000408633
-0.000301719
-0.000446875
-0.000315569
-0.00048085
-0.000328285
-0.000507971
-0.000526573
-0.000341158
-6.92779e-05
-8.92427e-05
-0.000107351
-0.000110312
-0.00012936
-0.000132096
-0.000152659
-0.000154225
-0.000177942
-0.00017633
-0.000205926
-0.000198017
-0.000237198
-0.000218847
-0.000272051
-0.000238319
-0.000310338
-0.000255887
-0.000351316
-0.000271019
-0.000393502
-0.000283321
-0.000434573
-0.000292792
-0.000471378
-0.000300124
-0.000500639
-0.000520045
-0.000306652
-8.64931e-05
-8.80843e-05
-0.000106743
-0.00010911
-0.000127573
-0.000131829
-0.000148596
-0.000156919
-0.00016942
-0.000185102
-0.000189624
-0.000216995
-0.000208723
-0.000252951
-0.000226156
-0.000292905
-0.000241278
-0.000336194
-0.000253409
-0.00038137
-0.000261961
-0.000426022
-0.000266707
-0.000466632
-0.000268189
-0.000499157
-0.000520541
-0.000267693
-8.31039e-05
-6.96643e-05
-0.000102368
-8.98458e-05
-0.000122057
-0.000112141
-0.000141764
-0.000137211
-0.000161078
-0.000165789
-0.000179545
-0.000198527
-0.000196645
-0.000235851
-0.000211758
-0.000277793
-0.00022415
-0.000323802
-0.000233004
-0.000372516
-0.000237526
-0.0004215
-0.000237231
-0.000466927
-0.000232456
-0.000503932
-0.000528692
-0.000224306
-7.90889e-05
-5.22395e-05
-9.71982e-05
-7.17364e-05
-0.000115554
-9.37845e-05
-0.000133731
-0.000119035
-0.00015129
-0.00014823
-0.000167753
-0.000182064
-0.000182562
-0.000221042
-0.000195048
-0.000265307
-0.0002044
-0.00031445
-0.000209678
-0.000367238
-0.000209889
-0.000421288
-0.000204272
-0.000472545
-0.000192903
-0.0005153
-0.000545029
-0.000176565
-7.44695e-05
-9.12553e-05
-5.49507e-05
-0.000108085
-7.69545e-05
-0.000124509
-0.000102611
-0.000140063
-0.000132676
-0.000154237
-0.00016789
-0.000166443
-0.000208836
-0.000175968
-0.000255782
-0.00018194
-0.000308478
-0.000183314
-0.000365864
-0.000178922
-0.00042568
-0.000167729
-0.000483738
-0.00014951
-0.000533519
-0.000569915
-0.000124625
-8.45709e-05
-3.96552e-05
-9.96814e-05
-6.1844e-05
-0.000114129
-8.81633e-05
-0.000127419
-0.000119386
-0.000139011
-0.000156297
-0.000148285
-0.000199562
-0.000154491
-0.000249576
-0.000156709
-0.00030626
-0.000153815
-0.000368759
-0.000144497
-0.000434997
-0.000127478
-0.000500758
-0.000102278
-0.000558719
-0.000603361
-6.88311e-05
-7.71869e-05
-2.60119e-05
-9.03878e-05
-4.86431e-05
-0.000102636
-7.59148e-05
-0.000113403
-0.000108619
-0.000122115
-0.000147586
-0.000128115
-0.000193562
-0.000130625
-0.000247066
-0.000128689
-0.000308196
-0.000121125
-0.000376324
-0.000106508
-0.000449614
-8.32985e-05
-0.000523968
-5.09426e-05
-0.000591075
-0.000643165
-1.11387e-05
-6.91549e-05
-8.02624e-05
-3.75356e-05
-9.00948e-05
-6.60824e-05
-9.80838e-05
-0.00010063
-0.000103616
-0.000142054
-0.000106
-0.000191178
-0.000104427
-0.000248638
-9.79181e-05
-0.000314705
-8.52569e-05
-0.000388985
-6.49501e-05
-0.000469921
-3.50961e-05
-0.000553822
6.93964e-06
-0.000633111
-0.000692008
5.57822e-05
-6.93753e-05
-2.8696e-05
-7.65837e-05
-5.88739e-05
-8.15482e-05
-9.56657e-05
-8.36105e-05
-0.000139992
-8.20407e-05
-0.000192748
-7.60011e-05
-0.000254678
-6.44954e-05
-0.000326211
-4.63014e-05
-0.000407179
-1.98935e-05
-0.000496328
1.6563e-05
-0.000590278
6.47697e-05
-0.000681317
-0.000752979
0.00012574
-5.78062e-05
-2.22869e-05
-6.21959e-05
-5.44842e-05
-6.39034e-05
-9.39582e-05
-6.22211e-05
-0.000141674
-5.6375e-05
-0.000198594
-4.54963e-05
-0.000265556
-2.85791e-05
-0.000343128
-4.41556e-06
-0.000431342
2.8508e-05
-0.000529252
7.21204e-05
-0.000633891
0.000128214
-0.000737411
-0.000823496
0.000198732
-4.56428e-05
-4.70344e-05
-5.30926e-05
-4.52706e-05
-9.57221e-05
-3.95891e-05
-0.000147356
-2.91674e-05
-0.000209015
-1.31032e-05
-0.000281621
9.61643e-06
-0.000365847
4.01697e-05
-0.000461896
8.0006e-05
-0.000569088
0.000131009
-0.000684893
0.000195202
-0.000801604
-0.000903022
0.000274728
-3.12083e-05
-5.48603e-05
-2.57796e-05
-0.000101151
-1.58692e-05
-0.000157266
-6.02703e-07
-0.000224282
2.09595e-05
-0.000303183
4.98349e-05
-0.000394723
8.71585e-05
-0.000499219
0.000134276
-0.000616206
0.000192936
-0.000743553
0.000265255
-0.000873923
-0.000991069
0.000353303
-1.48275e-05
-5.56255e-06
-0.000110416
8.77921e-06
-0.000171608
2.91277e-05
-0.00024463
5.64582e-05
-0.000330513
9.1793e-05
-0.000430058
0.000136214
-0.000543641
0.000190933
-0.000670925
0.00025747
-0.00081009
0.000337919
-0.000954373
-0.00108708
0.000433927
1.52522e-05
-0.000123667
3.42013e-05
-0.000190557
5.98329e-05
-0.000270262
9.31593e-05
-0.00036384
0.000135203
-0.000472101
0.000186985
-0.000595422
0.000249557
-0.000733498
0.000324131
-0.000884663
0.000412687
-0.00104293
-0.00119038
0.000515987
3.65474e-05
-0.000141034
6.02536e-05
-0.000214263
9.13371e-05
-0.000301345
0.000130843
-0.000403345
0.000179787
-0.000521046
0.00023912
-0.000654756
0.00030972
-0.000804097
0.000392415
-0.000967359
0.000489013
-0.00113953
-0.00130016
0.000598795
5.82207e-05
8.68118e-05
-0.000242854
0.000123485
-0.000338018
0.000169311
-0.000449171
0.000225291
-0.000577026
0.000292292
-0.000721757
0.000370999
-0.000882804
0.000461816
-0.00105818
0.000566323
-0.00124403
-0.00141544
0.000681607
0.000113774
-0.000276438
0.000156146
-0.00038039
0.000208393
-0.000501417
0.000271486
-0.000640119
0.000346193
-0.000796464
0.000432989
-0.0009696
0.000531835
-0.00115702
0.000644029
-0.00135623
-0.00153505
0.000763634
0.000141064
0.000189218
-0.000428545
0.000247944
-0.000560144
0.000318169
-0.000710343
0.000400541
-0.000878835
0.000495297
-0.00106436
0.00060198
-0.0012637
0.000721459
-0.00147571
-0.0016577
0.000844116
0.000222617
-0.000482536
0.00028784
-0.000625367
0.000365151
-0.000787655
0.000455066
-0.00096875
0.000557573
-0.00116686
0.000671847
-0.00137798
0.000797796
-0.00160166
-0.00178239
0.000922479
0.000256277
0.000327961
-0.00069705
0.000412234
-0.000871929
0.000509472
-0.00106599
0.000619483
-0.00127687
0.000741312
-0.00149981
0.000872631
-0.00173298
-0.00190801
0.00099825
0.000368181
-0.000775091
0.000459186
-0.000962933
0.000563365
-0.00117017
0.000680454
-0.00139396
0.000809996
-0.00162935
0.000947783
-0.00187076
-0.00203007
0.00106984
0.000408368
0.000505743
-0.00106031
0.00061625
-0.00128067
0.000739439
-0.00151715
0.000875064
-0.00176497
0.00102292
-0.00201862
-0.0022348
0.00122766
0.000551621
0.000667635
-0.00139669
0.000795581
-0.0016451
0.000934921
-0.00190432
0.0010847
-0.0021684
-0.00241433
0.00126423
0.000717113
-0.00151726
0.000848368
-0.00177635
0.000988958
-0.0020449
0.00113669
-0.00231613
-0.00257706
0.00129942
0.000764332
0.000897509
-0.00190953
0.00103757
-0.00218497
0.00118157
-0.00246012
-0.00272705
0.00133156
0.000942746
0.00108089
-0.00232311
0.00121999
-0.00259923
-0.00286646
0.0013594
0.00111887
-0.00245815
0.00125226
-0.00273262
-0.00299642
0.00138222
0.00115145
0.00127851
-0.00285967
-0.00311752
0.00139961
0.00129884
-0.00323011
0.00141143
0.00141774
0.0034808
0.00158236
0.00147394
0.00307557
0.00336451
0.00159024
0.00132858
0.00262403
0.00146577
0.00293838
0.00323731
0.00159297
0.00130503
0.00247111
0.0014515
0.00279192
0.00309853
0.00159028
0.00111635
0.00198974
0.00127556
0.00231189
0.00143087
0.00263661
0.00294737
0.00158203
0.00091602
0.00152752
0.00107589
0.00182987
0.00124026
0.00214752
0.00140368
0.00247318
0.00278267
0.00156838
0.000870845
0.00137813
0.00103121
0.00166951
0.00119929
0.00197944
0.0013697
0.00230278
0.00260262
0.00154975
0.000677537
0.000979415
0.000823676
0.00123199
0.000982856
0.00151033
0.00115282
0.00180948
0.00132857
0.00212702
0.00240395
0.00152724
0.000508317
0.000646847
0.000633713
0.000854019
0.000775322
0.00109038
0.000931564
0.00135409
0.00110079
0.00164025
0.00127856
0.00194926
0.00217998
0.00150253
0.000471582
0.000544492
0.000590761
0.00073484
0.000726702
0.000954437
0.000878339
0.00120245
0.00104418
0.0014744
0.00121803
0.00177541
0.00202984
0.00136816
0.000341125
0.000302609
0.000437014
0.000448603
0.000549471
0.000622383
0.000678841
0.000825067
0.000824469
0.00105682
0.000984495
0.00131438
0.00115498
0.00160493
0.00187263
0.0013122
0.000315733
0.000228046
0.000405135
0.000359201
0.000510589
0.000516929
0.00063278
0.000702876
0.000771519
0.000918082
0.000925133
0.00116076
0.0010923
0.00143776
0.00171239
0.00125254
0.000224216
6.46777e-05
0.000293318
0.000158945
0.000376378
0.000276141
0.000474764
0.000418543
0.000589449
0.000588191
0.000720726
0.000786805
0.000867402
0.00101409
0.00102946
0.00127571
0.0015508
0.00119105
0.000210019
1.21283e-05
0.000274038
9.49257e-05
0.000351046
0.000199133
0.000442499
0.00032709
0.000549591
0.000481099
0.000673026
0.00066337
0.00081218
0.000874935
0.000967667
0.00112022
0.00138956
0.00112891
0.000149662
-9.1237e-05
0.000198546
-3.67562e-05
0.000257939
3.55329e-05
0.000329306
0.000127766
0.000414132
0.000242265
0.000513759
0.000381472
0.000629206
0.000547923
0.000760441
0.0007437
0.000908468
0.000972192
0.00123065
0.00106737
0.000143986
-0.000128595
0.000189678
-8.24484e-05
0.000244948
-1.97373e-05
0.000311176
6.15381e-05
0.000389822
0.000163619
0.000482309
0.000288985
0.000589879
0.000440353
0.000713051
0.000620528
0.000853128
0.000832116
0.00107587
0.00100791
0.000104855
-0.000188732
0.000140238
-0.000163978
0.000183206
-0.000125417
0.000234879
-7.141e-05
0.000296527
-1.10135e-07
0.000369547
9.05992e-05
0.000455383
0.000203149
0.000555421
0.000340315
0.000670642
0.000505307
0.000802606
0.000700152
0.000926596
0.000951883
0.000104387
-0.000216442
0.000138164
-0.000197756
0.000178854
-0.000166107
0.000227447
-0.000120004
0.000285099
-5.77613e-05
0.000353113
2.25848e-05
0.000432908
0.000123353
0.000525947
0.000247276
0.000633563
0.00039769
0.00075755
0.000576165
0.000783772
0.000900374
0.000104978
-0.000243355
0.000137474
-0.000230252
0.000176286
-0.000204919
0.000222289
-0.000166006
0.000276515
-0.000111988
0.000340169
-4.10687e-05
0.000414607
4.89152e-05
0.000501315
0.000160568
0.000601869
0.000297136
0.00071826
0.000459774
0.000647944
0.000854088
8.0046e-05
-0.000267182
0.00010637
-0.000269679
0.000137853
-0.000261735
0.000175134
-0.000242199
0.00021898
-0.000209852
0.000270316
-0.000163324
0.000330238
-0.000100991
0.000400025
-2.08722e-05
0.000481146
7.94473e-05
0.000575319
0.000202964
0.000684675
0.000350417
0.000519301
0.000813318
8.24115e-05
-0.000288742
0.000108299
-0.000295567
0.000138978
-0.000292414
0.000175008
-0.000278229
0.000217067
-0.000251912
0.000265983
-0.00021224
0.000322753
-0.000157761
0.000388572
-8.66909e-05
0.000464864
3.1555e-06
0.000553404
0.000114424
0.000656391
0.00024743
0.000397736
0.000777956
8.49578e-05
-0.000310227
0.000110508
-0.000321117
0.000140531
-0.000322437
0.000175522
-0.000313219
0.000216088
-0.000292478
0.000262976
-0.000259128
0.000317098
-0.000211883
0.000379567
-0.00014916
0.000451747
-6.90245e-05
0.000535404
3.07667e-05
0.000632725
0.000150109
0.000282925
0.000747536
6.60606e-05
-0.00030868
8.74937e-05
-0.00033166
0.000112757
-0.00034638
0.000142212
-0.000351892
0.000176306
-0.000347313
0.000215593
-0.000331765
0.000260757
-0.000304292
0.000312642
-0.000263768
0.000372287
-0.000208804
0.000440989
-0.000137727
0.000520457
-4.87017e-05
0.000612794
5.77725e-05
0.000174402
0.000721317
6.8479e-05
-0.000326697
8.98448e-05
-0.000353026
0.000114824
-0.00037136
0.000143745
-0.000380813
0.00017702
-0.000380588
0.000215165
-0.00036991
0.000258821
-0.000347948
0.000308779
-0.000313725
0.000366016
-0.000266042
0.000431763
-0.000203474
0.000507638
-0.000124578
0.000595603
-3.01924e-05
7.16272e-05
0.000698378
7.06069e-05
-0.000344774
9.18561e-05
-0.000374275
0.000116515
-0.000396018
0.000144887
-0.000409185
0.000177362
-0.000413063
0.000214432
-0.000406981
0.000256711
-0.000390226
0.00030495
-0.000361965
0.000360083
-0.000321174
0.000423272
-0.000266663
0.00049603
-0.000197336
0.000580142
-0.000114304
-2.59513e-05
0.000677721
5.42807e-05
-0.000323713
7.23394e-05
-0.000362833
9.33942e-05
-0.00039533
0.000117661
-0.000420285
0.000145429
-0.000436953
0.000177073
-0.000444708
0.000213075
-0.000442982
0.00025403
-0.000431182
0.00030067
-0.000408605
0.00035389
-0.000374393
0.000414794
-0.000327567
0.000484784
-0.000267327
0.000565451
-0.000194971
-0.000118849
0.000658349
5.56463e-05
-0.000338978
7.35883e-05
-0.000380775
9.43479e-05
-0.000416089
0.000118126
-0.000444063
0.0001452
-0.000464027
0.000175943
-0.00047545
0.00021083
-0.00047787
0.000250453
-0.000470805
0.000295531
-0.000453683
0.000346933
-0.000425795
0.000405712
-0.000386345
0.000473159
-0.000334774
0.000550677
-0.000272489
-0.000207513
0.00063934
5.657e-05
-0.000354176
7.42816e-05
-0.000398487
9.46279e-05
-0.000436436
0.000117798
-0.000467233
0.000144066
-0.000490295
0.000173804
-0.000505189
0.000207492
-0.000511558
0.000245723
-0.000509036
0.000289212
-0.000497172
0.000338809
-0.000475392
0.000395521
-0.000443058
0.000460542
-0.000399795
0.0005351
-0.000347047
-0.000292299
0.000619886
5.70068e-05
-0.000369192
7.43634e-05
-0.000415843
9.41659e-05
-0.000456238
0.000116596
-0.000489663
0.000141927
-0.000515626
0.000170536
-0.000533798
0.000202911
-0.000543932
0.000239651
-0.000545776
0.000281472
-0.000538993
0.000329211
-0.000523131
0.000383839
-0.000497686
0.000446459
-0.000462415
0.000518151
-0.000418738
-0.000373462
0.000599314
4.22123e-05
-0.00032983
5.69232e-05
-0.000383903
7.37929e-05
-0.000432713
9.29137e-05
-0.000475359
0.000114462
-0.000511212
0.000138715
-0.000539879
0.000166058
-0.00056114
0.000196986
-0.000574861
0.000232109
-0.000580899
0.000272147
-0.00057903
0.000317928
-0.000568912
0.00037039
-0.000550148
0.000430563
-0.000522588
0.000499399
-0.000487574
-0.00045116
0.000577096
4.20166e-05
-0.00034215
5.62961e-05
-0.000398183
7.25436e-05
-0.00044896
9.08413e-05
-0.000493657
0.000111364
-0.000531735
0.000134393
-0.000562908
0.000160323
-0.00058707
0.00018966
-0.000604198
0.000223025
-0.000614264
0.000261141
-0.000617146
0.000304829
-0.000612601
0.000355
-0.000600319
0.000412621
-0.000580209
0.000478543
-0.000553496
-0.00052545
0.000552834
4.13919e-05
-0.000354094
5.51122e-05
-0.000411903
7.06018e-05
-0.00046445
8.79355e-05
-0.00051099
0.000107289
-0.000551088
0.000128948
-0.000584568
0.000153319
-0.00061144
0.000180918
-0.000631798
0.000212375
-0.00064572
0.000248415
-0.000653186
0.000289854
-0.00065404
0.000337578
-0.000648043
0.000392501
-0.000635132
0.000455396
-0.000616391
-0.000596309
0.000526255
4.03325e-05
-0.000365544
5.33673e-05
-0.000424938
6.79659e-05
-0.000479048
8.41985e-05
-0.000527223
0.000102242
-0.000569132
0.000122392
-0.000604717
0.00014506
-0.000634108
0.000170775
-0.000657513
0.000200172
-0.000675117
0.000233978
-0.000686992
0.000273001
-0.000693063
0.000318101
-0.000693144
0.000370151
-0.000687182
0.000429861
-0.000676101
-0.000663638
0.00049719
2.79965e-05
-0.000311204
3.88395e-05
-0.000376387
5.10657e-05
-0.000437164
6.46451e-05
-0.000492628
7.96457e-05
-0.000542224
9.62485e-05
-0.000585735
0.000114755
-0.000623224
0.000135586
-0.000654939
0.000159277
-0.000681204
0.000186467
-0.000702306
0.00021788
-0.000718406
0.000254313
-0.000729495
0.000296604
-0.000735435
0.000345586
-0.000736164
0.000401919
-0.000732434
-0.000727281
0.000465562
2.6795e-05
-0.00032003
3.69192e-05
-0.000386512
4.82191e-05
-0.000448464
6.06583e-05
-0.000505067
7.4305e-05
-0.00055587
8.93446e-05
-0.000600774
0.000106085
-0.000639964
0.000124954
-0.000673808
0.000146491
-0.000702742
0.000171334
-0.000727149
0.000200201
-0.000747273
0.000233874
-0.000763168
0.000273166
-0.000774727
0.000318873
-0.000781871
0.000371617
-0.000785178
-0.000787037
0.000431373
2.52837e-05
-0.000328234
3.45834e-05
-0.000395811
4.48464e-05
-0.000458727
5.60335e-05
-0.000516254
6.82147e-05
-0.000568052
8.15807e-05
-0.00061414
9.64453e-05
-0.000654829
0.000113241
-0.000690604
0.000132506
-0.000722007
0.000154874
-0.000749517
0.000181051
-0.00077345
0.000211798
-0.000793915
0.000247903
-0.000810832
0.000290127
-0.000824095
0.000339055
-0.000834106
-0.000842673
0.000394692
2.34726e-05
-0.000335724
3.18484e-05
-0.000404187
4.09727e-05
-0.000467851
5.0806e-05
-0.000526087
6.14224e-05
-0.000578668
7.30179e-05
-0.000625736
8.59108e-05
-0.000667721
0.000100534
-0.000705227
0.000117424
-0.000738897
0.000137202
-0.000769294
0.000160557
-0.000796805
0.000188226
-0.000821584
0.000220964
-0.00084357
0.000259498
-0.000862628
0.00030438
-0.000878988
-0.000893943
0.00035565
2.13748e-05
-0.000342412
2.87351e-05
-0.000411547
3.66285e-05
-0.000475745
4.50182e-05
-0.000534477
5.39836e-05
-0.000587633
6.3726e-05
-0.000635478
7.45665e-05
-0.000678562
8.69361e-05
-0.000717597
0.000101362
-0.000753323
0.00011845
-0.000786382
0.000138866
-0.000817221
0.000163316
-0.000846035
0.000192522
-0.000872775
0.000227168
-0.000897274
0.000267779
-0.0009196
-0.000940594
0.00031443
1.90065e-05
-0.000348217
2.52686e-05
-0.000417809
3.18496e-05
-0.000482326
3.87183e-05
-0.000541346
4.59605e-05
-0.000594875
5.37823e-05
-0.0006433
6.25054e-05
-0.000687285
7.25553e-05
-0.000727647
8.44459e-05
-0.000765213
9.87613e-05
-0.000800698
0.000116139
-0.000834598
0.000137248
-0.000867145
0.000162769
-0.000898297
0.000193347
-0.000927852
0.000229477
-0.00095573
-0.000982383
0.000271266
1.63866e-05
-0.000353069
2.14773e-05
-0.0004229
2.66761e-05
-0.000487525
3.19595e-05
-0.000546629
3.74206e-05
-0.000600337
4.32698e-05
-0.000649149
4.9827e-05
-0.000693842
5.75086e-05
-0.000735328
6.68102e-05
-0.000774515
7.8289e-05
-0.000812176
9.25469e-05
-0.000848856
0.000110213
-0.000884811
0.000131921
-0.000920005
0.000158271
-0.000954203
0.000189729
-0.000987187
-0.00101909
0.000226432
1.35366e-05
-0.0003569
1.7393e-05
-0.000426756
2.11516e-05
-0.000491283
2.47988e-05
-0.000550276
2.84358e-05
-0.000603974
3.22761e-05
-0.00065299
3.66355e-05
-0.000698202
4.19174e-05
-0.00074061
4.85947e-05
-0.000781192
5.71922e-05
-0.000820774
6.82713e-05
-0.000859935
8.24141e-05
-0.000898953
0.000100205
-0.000937795
0.000122196
-0.000976194
0.00014882
-0.00101381
-0.00105051
0.00018024
7.72353e-06
-0.000285103
1.04805e-05
-0.000359657
1.30501e-05
-0.000429326
1.53228e-05
-0.000493556
1.72966e-05
-0.00055225
1.90811e-05
-0.000605758
2.08917e-05
-0.0006548
2.3038e-05
-0.000700348
2.59065e-05
-0.000743479
2.99429e-05
-0.000785228
3.56353e-05
-0.000826466
4.34992e-05
-0.000867799
5.40653e-05
-0.000909519
6.78639e-05
-0.000951594
8.53958e-05
-0.000993726
0.000107059
-0.00103547
-0.00107648
0.000133035
5.60831e-06
-0.000286944
7.24392e-06
-0.000361293
8.48524e-06
-0.000430567
9.23849e-06
-0.000494309
9.51528e-06
-0.000552527
9.43339e-06
-0.000605676
9.20921e-06
-0.000654576
9.14319e-06
-0.000700282
9.60215e-06
-0.000743938
1.10008e-05
-0.000786627
1.37856e-05
-0.000829251
1.84223e-05
-0.000872436
2.5386e-05
-0.000916483
3.51494e-05
-0.000961357
4.81591e-05
-0.00100674
6.47759e-05
-0.00105209
-0.0010969
8.51892e-05
3.37666e-06
-0.000287846
3.85391e-06
-0.00036177
3.7365e-06
-0.00043045
2.94926e-06
-0.000493522
1.51864e-06
-0.000551096
-4.29115e-07
-0.000603728
-2.67847e-06
-0.000652327
-4.93972e-06
-0.000698021
-6.86891e-06
-0.000742008
-8.08575e-06
-0.00078541
-8.18868e-06
-0.000829148
-6.76529e-06
-0.000873859
-3.39945e-06
-0.000919849
2.3206e-06
-0.000967077
1.07866e-05
-0.0010152
2.23266e-05
-0.00106363
-0.00111165
3.70765e-05
1.04724e-06
-0.000287779
3.38767e-07
-0.000361062
-1.15681e-06
-0.000428954
-3.49352e-06
-0.000491185
-6.62897e-06
-0.000547961