/*--------------------------------*- C++ -*----------------------------------*\
  =========                 |
  \\      /  F ield         | OpenFOAM: The Open Source CFD Toolbox
   \\    /   O peration     | Website:  https://openfoam.org
    \\  /    A nd           | Version:  7
     \\/     M anipulation  |
\*---------------------------------------------------------------------------*/
FoamFile
{
    version     2.0;
    format      ascii;
    class       surfaceScalarField;
    location    "200";
    object      phi;
}
// * * * * * * * * * * * * * * * * * * * * * * * * * * * * * * * * * * * * * //

dimensions      [0 3 -1 0 0 0 0];

internalField   nonuniform List<scalar> 
20169
(
-3.19104e-06
3.19104e-06
4.93288e-15
-1.10796e-05
7.8886e-06
3.42965e-15
-2.25581e-05
1.14784e-05
-3.88028e-15
-3.65491e-05
1.3991e-05
-1.20603e-14
-5.20285e-05
1.54793e-05
-1.56572e-14
-6.8063e-05
1.60345e-05
-1.01138e-14
-8.38582e-05
1.57952e-05
5.70749e-15
-9.88253e-05
1.49671e-05
2.64073e-14
-0.000112665
1.384e-05
3.97793e-14
-0.000125403
1.27374e-05
3.1118e-14
1.20469e-05
-9.01718e-16
-0.00013745
-3.14324e-06
6.33428e-06
-1.08933e-05
1.56387e-05
-2.2136e-05
2.27211e-05
-3.57841e-05
2.76391e-05
-5.07992e-05
3.04945e-05
-6.623e-05
3.14653e-05
-8.12589e-05
3.08241e-05
-9.52702e-05
2.89784e-05
-0.000107938
2.65075e-05
-0.000119266
2.40655e-05
2.24231e-05
-0.000129642
-3.04826e-06
9.38253e-06
-1.05228e-05
2.31132e-05
-2.12961e-05
3.34945e-05
-3.42611e-05
4.0604e-05
-4.83519e-05
4.45853e-05
-6.25803e-05
4.56938e-05
-7.6083e-05
4.43268e-05
-8.81901e-05
4.10855e-05
-9.85209e-05
3.68384e-05
-0.000107039
3.25836e-05
2.94667e-05
-0.000114083
-2.90725e-06
1.22898e-05
-9.97182e-06
3.01778e-05
-2.00464e-05
4.3569e-05
-3.19941e-05
5.25517e-05
-4.47079e-05
5.72991e-05
-5.71455e-05
5.81313e-05
-6.83743e-05
5.55556e-05
-7.76435e-05
5.03547e-05
-8.44899e-05
4.36848e-05
-8.88146e-05
3.69084e-05
3.15331e-05
-9.08811e-05
-2.72189e-06
1.50117e-05
-9.24601e-06
3.67019e-05
-1.83983e-05
5.27213e-05
-2.90027e-05
6.31561e-05
-3.98983e-05
6.81947e-05
-4.99708e-05
6.82039e-05
-5.81962e-05
6.3781e-05
-6.3715e-05
5.58734e-05
-6.59528e-05
4.59226e-05
-6.47335e-05
3.56891e-05
2.7001e-05
-6.02014e-05
-2.49418e-06
1.75059e-05
-8.35207e-06
4.25598e-05
-1.63659e-05
6.07352e-05
-2.53113e-05
7.21014e-05
-3.39611e-05
7.68445e-05
-4.11129e-05
7.53557e-05
-4.56291e-05
6.82972e-05
-4.65116e-05
5.67559e-05
-4.30359e-05
4.2447e-05
-3.49904e-05
2.76435e-05
1.43551e-05
-2.23444e-05
-2.22635e-06
1.97322e-05
-7.29748e-06
4.76309e-05
-1.39649e-05
6.74026e-05
-2.09471e-05
7.90836e-05
-2.69398e-05
8.28372e-05
-3.06373e-05
7.90532e-05
-3.07676e-05
6.84276e-05
-2.61678e-05
5.21561e-05
-1.58872e-05
3.21663e-05
8.85185e-07
1.08711e-05
-7.33519e-06
2.25754e-05
-1.92065e-06
2.16529e-05
-6.0899e-06
5.18002e-05
-1.12115e-05
7.25242e-05
-1.59387e-05
8.38109e-05
-1.88803e-05
8.57788e-05
-1.86139e-05
7.87868e-05
-1.37151e-05
6.35288e-05
-2.8289e-06
4.12699e-05
1.51698e-05
1.41677e-05
4.08684e-05
-1.48276e-05
-4.08655e-05
7.43988e-05
-1.57922e-06
2.32321e-05
-4.73663e-06
5.49576e-05
-8.12119e-06
7.59087e-05
-1.0314e-05
8.60036e-05
-9.82761e-06
8.52924e-05
-5.1122e-06
7.40714e-05
5.42546e-06
5.29912e-05
2.33574e-05
2.33379e-05
5.00629e-05
-1.25378e-05
8.64343e-05
-5.11989e-05
-8.70011e-05
0.00013257
-1.20386e-06
2.44359e-05
-3.2441e-06
5.69978e-05
-4.70813e-06
7.73728e-05
-4.09801e-06
8.53935e-05
1.76855e-07
8.10175e-05
9.80168e-06
6.44466e-05
2.65533e-05
3.62395e-05
5.22452e-05
-2.35393e-06
8.85571e-05
-4.88498e-05
0.000136694
-9.93354e-05
-0.000147168
0.000196861
-7.95952e-07
2.52319e-05
-1.61746e-06
5.78193e-05
-9.83704e-07
7.6739e-05
2.68773e-06
8.17221e-05
1.10957e-05
7.26095e-05
2.60691e-05
4.94732e-05
4.95748e-05
1.27338e-05
8.36865e-05
-3.64656e-05
0.000130423
-9.55864e-05
0.000191363
-0.000160275
-0.000222714
0.000266908
-3.56426e-07
2.55883e-05
1.40424e-07
5.73225e-05
3.04347e-06
7.3836e-05
1.00272e-05
7.47384e-05
2.29024e-05
5.97343e-05
4.36428e-05
2.87329e-05
7.44097e-05
-1.80331e-05
0.000117547
-7.96028e-05
0.000175446
-0.000153486
0.000250137
-0.000234966
-0.0003149
0.000342323
1.14981e-07
2.54733e-05
2.02543e-06
5.5412e-05
7.36797e-06
6.84934e-05
1.79096e-05
6.41968e-05
3.55771e-05
4.20667e-05
6.24888e-05
1.82116e-06
0.000100997
-5.65412e-05
0.000153714
-0.00013232
0.000223429
-0.0002232
0.000312704
-0.000324241
-0.000424896
0.000422701
6.17152e-07
2.48562e-05
4.03912e-06
5.19901e-05
1.19872e-05
6.05454e-05
2.63289e-05
4.9855e-05
4.91091e-05
1.92866e-05
8.25878e-05
-3.16576e-05
0.000129298
-0.000103251
0.000192105
-0.000195127
0.000274198
-0.000305294
0.000378757
-0.000428799
-0.00055374
0.000507601
1.15165e-06
2.37045e-05
6.18064e-06
4.69611e-05
1.68997e-05
4.98263e-05
3.52819e-05
3.14729e-05
6.34932e-05
-8.92474e-06
0.000103932
-7.20968e-05
0.000159296
-0.000158614
0.000232671
-0.000268503
0.000327623
-0.000400246
0.000448003
-0.00054918
-0.000702288
0.000596551
1.71861e-06
2.19859e-05
8.44992e-06
4.02298e-05
2.21036e-05
3.61725e-05
4.47647e-05
8.8118e-06
7.87255e-05
-4.28856e-05
0.000126522
-0.000119893
0.000190995
-0.000223087
0.000275406
-0.000352914
0.000383627
-0.000508467
0.000520192
-0.000685744
-0.000871139
0.000689043
2.31823e-06
1.96677e-05
1.08455e-05
3.17025e-05
2.75939e-05
1.94242e-05
5.47682e-05
-1.83624e-05
9.47951e-05
-8.29125e-05
0.00015035
-0.000175448
0.000224405
-0.000297142
0.000320338
-0.000448847
0.000442215
-0.000630344
0.000595153
-0.000838682
-0.00106054
0.000784551
2.94999e-06
1.67177e-05
1.33635e-05
2.1289e-05
3.33596e-05
-5.7203e-07
6.5272e-05
-5.02748e-05
0.000111674
-0.000129314
0.000175392
-0.000239166
0.000259526
-0.000381276
0.000367519
-0.000556839
0.000503484
-0.000766309
0.000672871
-0.00100807
-0.00127023
0.000882568
3.61236e-06
1.31053e-05
1.59958e-05
8.90557e-06
3.93807e-05
-2.39569e-05
7.62385e-05
-8.71326e-05
0.000129304
-0.00018238
0.000201577
-0.00031144
0.000296306
-0.000476005
0.000416982
-0.000677515
0.000567617
-0.000916945
0.000753551
-0.001194
-0.00149943
0.000982747
4.30248e-06
8.80286e-06
1.87299e-05
-5.52182e-06
4.56257e-05
-5.08527e-05
8.76064e-05
-0.000129113
0.000147585
-0.000242358
0.000228766
-0.000392621
0.000334603
-0.000581842
0.000468697
-0.000811609
0.000634887
-0.00108313
0.000837659
-0.00139677
-0.00174711
0.00108534
5.01612e-06
3.78674e-06
2.15479e-05
-2.20536e-05
5.20505e-05
-8.13553e-05
9.92878e-05
-0.000176351
0.000166361
-0.000309432
0.000256718
-0.000482977
0.000374111
-0.000699236
0.000522491
-0.000959988
0.000705809
-0.00126645
0.000926585
-0.00161755
-0.00201233
0.0011918
5.74784e-06
-1.9611e-06
2.44277e-05
-4.07335e-05
5.85994e-05
-0.000115527
0.000111167
-0.000228919
0.000185418
-0.000383683
0.000285055
-0.000582615
0.000414238
-0.000828419
0.000577663
-0.00112341
0.000780687
-0.00146948
0.00102616
-0.00186302
-0.002289
0.00130283
6.49159e-06
-8.45269e-06
2.73444e-05
-6.15864e-05
6.52095e-05
-0.000153392
0.000123111
-0.00028682
0.000204491
-0.000465062
0.000313268
-0.000691392
0.000453983
-0.000969134
0.000632159
-0.00130159
0.00085542
-0.00169274
0.00114001
-0.00214761
-0.00269613
0.00154714
7.24098e-06
-1.56937e-05
3.02719e-05
-8.46173e-05
7.18146e-05
-0.000194935
0.000134979
-0.000349984
0.0002233
-0.000553383
0.0003408
-0.000808893
0.000492145
-0.00112048
0.000683037
-0.00149248
0.000921207
-0.00193091
0.00121987
-0.00244627
-0.00307003
0.00159377
7.99049e-06
-2.36842e-05
3.31868e-05
-0.000109814
7.83554e-05
-0.000240103
0.000146646
-0.000418275
0.000241609
-0.000648346
0.000367218
-0.000934502
0.000527949
-0.00128121
0.000728956
-0.00169349
0.000976265
-0.00217822
0.00127699
-0.002747
-0.00342552
0.00163247
8.7356e-06
-3.24198e-05
3.60692e-05
-0.000137147
8.4782e-05
-0.000288816
0.000158014
-0.000491507
0.000259244
-0.000749576
0.000392258
-0.00106752
0.000561096
-0.00145005
0.000769962
-0.00190235
0.0010228
-0.00243105
0.00132206
-0.00304626
-0.00376682
0.00166336
9.473e-06
-4.18928e-05
3.89036e-05
-0.000166578
9.10546e-05
-0.000340967
0.000169005
-0.000569458
0.000276087
-0.000856658
0.00041578
-0.00120721
0.000591537
-0.0016258
0.00080647
-0.00211729
0.0010626
-0.00268718
0.00135923
-0.00334289
-0.00409673
0.00168914
1.02003e-05
-5.2093e-05
4.16771e-05
-0.000198055
9.71416e-05
-0.000396432
0.000179562
-0.000651878
0.000292055
-0.000969151
0.000437707
-0.00135286
0.000619297
-0.00180739
0.000838839
-0.00233683
0.0010967
-0.00294504
0.00139008
-0.00363627
-0.00441706
0.00171042
1.09155e-05
-6.30085e-05
4.43793e-05
-0.000231518
0.000103016
-0.000455068
0.000189635
-0.000738498
0.00030708
-0.0010866
0.000457979
-0.00150376
0.000644394
-0.00199381
0.000867283
-0.00255972
0.00112563
-0.00320339
0.00141518
-0.00392581
-0.00472859
0.0017267
1.16167e-05
-7.46252e-05
4.69993e-05
-0.000266901
0.00010865
-0.000516718
0.000199177
-0.000829025
0.000321095
-0.00120851
0.000476526
-0.00165919
0.000666795
-0.00218408
0.000891864
-0.00278479
0.00114955
-0.00346108
0.00143453
-0.00421079
-0.00503129
0.00173723
1.23017e-05
-8.69269e-05
4.95255e-05
-0.000304125
0.000114015
-0.000581208
0.000208135
-0.000923145
0.000334023
-0.0013344
0.000493256
-0.00181842
0.00068641
-0.00237723
0.000912512
-0.00301089
0.00116837
-0.00371694
0.00144786
-0.00449027
-0.00532465
0.00174122
1.29673e-05
-9.98943e-05
5.19437e-05
-0.000343101
0.000119078
-0.000648343
0.000216448
-0.00102051
0.000345772
-0.00146373
0.000508048
-0.0019807
0.000703099
-0.00257228
0.000929067
-0.00323686
0.00118188
-0.00396976
0.00145479
-0.00476318
-0.00560783
0.00173796
1.36096e-05
-0.000113504
5.42371e-05
-0.000383729
0.0001238
-0.000717906
0.000224046
-0.00112076
0.000356238
-0.00159592
0.000520761
-0.00214522
0.000716685
-0.00276821
0.000941316
-0.00346149
0.00118981
-0.00421825
0.00145492
-0.00502829
-0.00587978
0.00172687
1.42235e-05
-0.000127727
5.6386e-05
-0.000425891
0.000128136
-0.000789656
0.000230853
-0.00122348
0.000365301
-0.00173037
0.000531234
-0.00231116
0.000726972
-0.00296394
0.00094903
-0.00368355
0.00119188
-0.0044611
0.00144793
-0.00528433
-0.00613939
0.00170753
1.48031e-05
-0.00014253
5.83679e-05
-0.000469456
0.000132036
-0.000863324
0.000236782
-0.00132822
0.000372838
-0.00186642
0.000539305
-0.00247762
0.000733761
-0.0031584
0.000951986
-0.00390177
0.00118787
-0.00469698
0.00143356
-0.00553002
-0.00638552
0.00167969
1.53418e-05
-0.000157872
6.01582e-05
-0.000514272
0.000135449
-0.000938615
0.000241745
-0.00143452
0.000378721
-0.0020034
0.000544809
-0.00264371
0.000736866
-0.00335046
0.000949995
-0.0041149
0.00117759
-0.00492458
0.00141168
-0.00576411
-0.00661712
0.00164328
1.58325e-05
-0.000173705
6.17313e-05
-0.000560171
0.000138321
-0.0010152
0.000245656
-0.00154185
0.000382826
-0.00214057
0.000547596
-0.00280848
0.000736127
-0.00353899
0.000942911
-0.00432168
0.00116096
-0.00514263
0.00138228
-0.00598544
-0.00683322
0.00159838
1.62674e-05
-0.000189972
6.30605e-05
-0.000606964
0.000140597
-0.00109274
0.000248426
-0.00164968
0.000385039
-0.00227718
0.000547533
-0.00297097
0.000731417
-0.00372287
0.000930645
-0.00452091
0.00113795
-0.00534993
0.00134545
-0.00619294
-0.00703299
0.00154522
1.6639e-05
-0.000206611
6.41196e-05
-0.000654445
0.000142224
-0.00117085
0.000249977
-0.00175744
0.000385257
-0.00241246
0.000544514
-0.00313023
0.000722649
-0.00390101
0.000913167
-0.00471143
0.00110863
-0.0055454
0.00130138
-0.00638568
-0.00721575
0.00148414
1.69397e-05
-0.000223551
6.48833e-05
-0.000702389
0.000143156
-0.00124912
0.000250237
-0.00186452
0.000383396
-0.00254562
0.000538458
-0.00328529
0.000709781
-0.00407233
0.000890511
-0.00489216
0.00107315
-0.00572804
0.00125037
-0.00656289
-0.00738099
0.0014156
1.71621e-05
-0.000240713
6.5328e-05
-0.000750555
0.000143347
-0.00132714
0.000249145
-0.00197031
0.000379389
-0.00267587
0.000529321
-0.00343522
0.000692818
-0.00423583
0.000862769
-0.00506211
0.00103173
-0.005897
0.00119277
-0.00672393
-0.00752833
0.00134012
1.72994e-05
-0.000258012
6.54324e-05
-0.000798688
0.000142759
-0.00140446
0.000246652
-0.00207421
0.000373195
-0.00280241
0.000517088
-0.00357912
0.00067181
-0.00439055
0.000830092
-0.00522039
0.000984647
-0.00605156
0.00112903
-0.00686832
-0.00765757
0.00125827
1.73455e-05
-0.000275358
6.51779e-05
-0.00084652
0.000141364
-0.00148065
0.000242726
-0.00217557
0.000364793
-0.00292448
0.000501781
-0.0037161
0.000646853
-0.00453562
0.000792681
-0.00536622
0.000932232
-0.00619111
0.00105962
-0.00699571
-0.00776863
0.00117068
1.7295e-05
-0.000292653
6.45494e-05
-0.000893774
0.000139137
-0.00155524
0.000237346
-0.00227378
0.000354187
-0.00304132
0.000483455
-0.00384537
0.000618083
-0.00467025
0.000750783
-0.00549892
0.000874864
-0.00631519
0.000985046
-0.00710589
-0.00786154
0.00107796
1.71453e-05
-0.000309798
6.35393e-05
-0.000940168
0.00013607
-0.00162777
0.000230515
-0.00236822
0.000341412
-0.00315221
0.000462204
-0.00396616
0.000585684
-0.00479373
0.000704695
-0.00561793
0.000812962
-0.00642346
0.000905852
-0.00719878
-0.00793647
0.000980776
1.68891e-05
-0.000326687
6.21322e-05
-0.000985411
0.000132147
-0.00169778
0.000222232
-0.00245831
0.000326502
-0.00325648
0.000438126
-0.00407779
0.000549842
-0.00490545
0.00065471
-0.0057228
0.000746936
-0.00651569
0.000822553
-0.0072744
-0.00799364
0.000879722
1.65258e-05
-0.000343213
6.03281e-05
-0.00102921
0.000127377
-0.00176483
0.000212529
-0.00254346
0.000309538
-0.00335349
0.000411371
-0.00417962
0.0005108
-0.00500488
0.000601178
-0.00581318
0.00067724
-0.00659175
0.000735697
-0.00733285
-0.00803336
0.000775418
1.60541e-05
-0.000359267
5.81277e-05
-0.00107129
0.000121772
-0.00182848
0.000201448
-0.00262314
0.00029061
-0.00344265
0.000382105
-0.00427112
0.000468815
-0.00509159
0.000544456
-0.00588882
0.000604326
-0.00665162
0.00064581
-0.00737434
-0.00805599
0.000668446
1.54735e-05
-0.000374741
5.55353e-05
-0.00111135
0.000115354
-0.00188829
0.000189043
-0.00269683
0.00026983
-0.00352344
0.000350514
-0.0043518
0.000424164
-0.00516524
0.00048491
-0.00594956
0.000528642
-0.00669535
0.000553404
-0.0073991
-0.00806195
0.000559358
1.4785e-05
-0.000389526
5.25598e-05
-0.00114912
0.00010815
-0.00194388
0.000175383
-0.00276406
0.000247323
-0.00359538
0.000316801
-0.00442128
0.000377135
-0.00522557
0.000422916
-0.00599534
0.000450632
-0.00672307
0.00045897
-0.00740744
-0.00805165
0.00044867
1.39906e-05
-0.000403516
4.92136e-05
-0.00118435
0.0001002
-0.00199487
0.000160548
-0.00282441
0.000223231
-0.00365806
0.000281181
-0.00447923
0.000328027
-0.00527242
0.000358845
-0.00602616
0.000370726
-0.00673495
0.000362977
-0.00739969
-0.00802553
0.000336857
1.30934e-05
-0.00041661
4.55131e-05
-0.00121677
9.15462e-05
-0.0020409
0.000144625
-0.00287749
0.000197705
-0.00371114
0.000243884
-0.00452541
0.000277145
-0.00530568
0.000293071
-0.00604209
0.00028934
-0.00673122
0.000265862
-0.00737621
-0.00798404
0.000224375
1.20975e-05
-0.000428707
4.14781e-05
-0.00124615
8.22397e-05
-0.00208167
0.000127715
-0.00292296
0.000170908
-0.00375434
0.000205143
-0.00455964
0.000224797
-0.00532533
0.000225962
-0.00604325
0.000206876
-0.00671213
0.000167973
-0.00733731
-0.00792775
0.000111681
1.10081e-05
-0.000439715
3.71314e-05
-0.00127227
7.23364e-05
-0.00211687
0.000109923
-0.00296055
0.000143008
-0.00378742
0.000165198
-0.00458183
0.000171293
-0.00533143
0.000157894
-0.00602986
0.000123773
-0.00667801
6.96332e-05
-0.00728317
-0.00785446
-3.65231e-06
9.83124e-06
-0.000449547
3.24986e-05
-0.00129494
6.18969e-05
-0.00214627
9.13581e-05
-0.00299001
0.000114179
-0.00381024
0.000124292
-0.00459195
0.000116941
-0.00532408
8.92236e-05
-0.00600214
4.04087e-05
-0.00662919
-2.80503e-05
-0.00721471
-0.00776922
-0.000113295
8.57385e-06
-0.00045812
2.76075e-05
-0.00131397
5.09851e-05
-0.00216965
7.21362e-05
-0.00301116
8.45951e-05
-0.0038227
8.26639e-05
-0.00459001
6.20395e-05
-0.00530345
2.02907e-05
-0.00596039
-4.28891e-05
-0.00656601
-0.000125773
-0.00713182
-0.00767015
-0.000224838
7.24348e-06
-0.000465364
2.24876e-05
-0.00132922
3.96674e-05
-0.00218683
5.23733e-05
-0.00302387
5.44325e-05
-0.00382476
4.05501e-05
-0.00457613
6.88539e-06
-0.00526979
-4.85689e-05
-0.00590493
-0.000125739
-0.00648884
-0.000222556
-0.00703501
-0.00755748
-0.00033523
5.84834e-06
-0.000471212
1.71698e-05
-0.00134054
2.80114e-05
-0.00219767
3.21852e-05
-0.00302804
2.38635e-05
-0.00381644
-1.80755e-06
-0.00455046
-4.82455e-05
-0.00522335
-0.000117027
-0.00583615
-0.000207799
-0.00639807
-0.000318239
-0.00692457
-0.00743147
-0.000444248
4.39713e-06
-0.000475609
1.16857e-05
-0.00134783
1.60848e-05
-0.00220207
1.1687e-05
-0.00302364
-6.94614e-06
-0.00379781
-4.4222e-05
-0.00451319
-0.000103074
-0.0051645
-0.000184762
-0.00575447
-0.000288721
-0.00629411
-0.000412494
-0.00680079
-0.00729233
-0.000551635
2.89984e-06
-0.000478509
6.06743e-06
-0.00135099
3.955e-06
-0.00219995
-9.01183e-06
-0.00301067
-3.78411e-05
-0.00376898
-8.6451e-05
-0.00446458
-0.000157342
-0.00509361
-0.000251466
-0.00566034
-0.000368157
-0.00617742
-0.00050498
-0.00666397
-0.00714017
-0.000657141
1.36834e-06
-0.000479878
3.39729e-07
-0.00134996
-8.31502e-06
-0.0021913
-2.98061e-05
-0.00298918
-6.86661e-05
-0.00373012
-0.000128314
-0.00440493
-0.000210811
-0.00501111
-0.000316843
-0.00555431
-0.000445748
-0.00604852
-0.000595335
-0.00651438
-0.00697498
-0.000760517
-2.47443e-07
-0.00047963
-5.45616e-06
-0.00134476
-2.06595e-05
-0.0021761
-5.05937e-05
-0.00295925
-9.92867e-05
-0.00368142
-0.000169639
-0.00433457
-0.000263269
-0.00491748
-0.000380619
-0.00543696
-0.000521133
-0.005908
-0.000683157
-0.00635236
-0.0067966
-0.000861542
-1.80827e-06
-0.000477822
-1.12932e-05
-0.00133527
-3.30203e-05
-0.00215437
-7.1283e-05
-0.00292099
-0.00012958
-0.00362313
-0.000210276
-0.00425388
-0.000314536
-0.00481322
-0.000442554
-0.00530894
-0.000593951
-0.0057566
-0.000767995
-0.00617832
-0.00660459
-0.000960006
-3.41604e-06
-0.000474406
-1.71463e-05
-0.00132154
-4.53407e-05
-0.00212617
-9.17889e-05
-0.00287454
-0.000159436
-0.00355548
-0.0002501
-0.00416322
-0.000364472
-0.00469885
-0.000502457
-0.00517096
-0.000663863
-0.0055952
-0.000849284
-0.0059929
-0.00639845
-0.00105542
-5.03033e-06
-0.000469375
-2.29865e-05
-0.00130358
-5.75674e-05
-0.00209159
-0.000112033
-0.00282007
-0.000188761
-0.00347875
-0.000289013
-0.00406296
-0.000412986
-0.00457487
-0.000560211
-0.00502374
-0.000730531
-0.00542488
-0.000925964
-0.00579746
-0.00617709
-0.00114733
-6.64221e-06
-0.000462733
-2.87862e-05
-0.00128144
-6.96494e-05
-0.00205073
-0.000131943
-0.00275778
-0.000217471
-0.00339322
-0.000326942
-0.00395349
-0.00046005
-0.00444176
-0.000615853
-0.00486793
-0.000793783
-0.00524695
-0.000996697
-0.00559455
-0.00593674
-0.00123705
-8.24087e-06
-0.000454492
-3.45138e-05
-0.00125517
-8.15306e-05
-0.00200371
-0.000151441
-0.00268787
-0.000245477
-0.00329919
-0.000363817
-0.00383515
-0.000505684
-0.0042999
-0.000669687
-0.00470393
-0.000854299
-0.00506234
-0.0010567
-0.00539214
-0.00571352
-0.00127992
-9.82395e-06
-0.000444668
-4.0154e-05
-0.00122484
-9.31775e-05
-0.00195069
-0.000170474
-0.00261057
-0.000272716
-0.00319695
-0.000399584
-0.00370828
-0.000549899
-0.00414958
-0.000721976
-0.00453185
-0.000914035
-0.00487028
-0.00112419
-0.00518199
-0.00548311
-0.0013546
-1.13808e-05
-0.000433288
-4.56765e-05
-0.00119054
-0.000104536
-0.00189183
-0.000188968
-0.00252614
-0.000299095
-0.00308682
-0.000434126
-0.00357325
-0.000592537
-0.00399117
-0.00077243
-0.00435196
-0.000971968
-0.00467074
-0.0011897
-0.00496426
-0.00524678
-0.00142603
-1.29041e-05
-0.000420383
-5.10574e-05
-0.00115239
-0.000115562
-0.00182733
-0.000206856
-0.00243485
-0.000324525
-0.00296915
-0.000467332
-0.00343045
-0.000633428
-0.00382508
-0.000820723
-0.00416466
-0.00102729
-0.00446417
-0.00125171
-0.00473984
-0.00500486
-0.00149364
-1.43866e-05
-0.000405997
-5.62739e-05
-0.0011105
-0.000126214
-0.00175739
-0.000224078
-0.00233698
-0.000348931
-0.0028443
-0.000499105
-0.00328027
-0.000672446
-0.00365173
-0.000866678
-0.00397043
-0.00107977
-0.00425108
-0.00131022
-0.00450938
-0.00475778
-0.0015573
-1.58214e-05
-0.000390175
-6.13047e-05
-0.00106502
-0.000136452
-0.00168224
-0.000240579
-0.00223286
-0.000372244
-0.00271263
-0.000529369
-0.00312315
-0.00070951
-0.00347159
-0.000910214
-0.00376973
-0.00112935
-0.00403195
-0.00136535
-0.00427338
-0.00450588
-0.00161725
-1.72024e-05
-0.000372973
-6.61303e-05
-0.00101609
-0.000146243
-0.00160213
-0.000256312
-0.00212279
-0.000394407
-0.00257454
-0.000558062
-0.00295949
-0.000744563
-0.00328509
-0.000951295
-0.00356299
-0.00117604
-0.0038072
-0.00141719
-0.00403223
-0.00424936
-0.00167371
-1.85238e-05
-0.000354449
-7.07329e-05
-0.000963881
-0.000155554
-0.0015173
-0.000271233
-0.00200711
-0.000415372
-0.0024304
-0.000585139
-0.00278972
-0.00077757
-0.00309266
-0.000989907
-0.00335066
-0.00121987
-0.00357724
-0.00146585
-0.00378625
-0.00398842
-0.00172679
-1.978e-05
-0.000334669
-7.50964e-05
-0.000908564
-0.000164359
-0.00142804
-0.000285306
-0.00188616
-0.000435099
-0.0022806
-0.000610562
-0.00261426
-0.000808504
-0.00289472
-0.00102605
-0.00313312
-0.00126087
-0.00334242
-0.00151137
-0.00353575
-0.00372323
-0.00177656
-2.09664e-05
-0.000313703
-7.92062e-05
-0.000850325
-0.000172631
-0.00133462
-0.000298498
-0.00176029
-0.000453552
-0.00212555
-0.000634299
-0.00243351
-0.000837345
-0.00269167
-0.00105971
-0.00291076
-0.00129904
-0.00310308
-0.0015538
-0.00328099
-0.00345397
-0.00182306
-2.20785e-05
-0.000291624
-8.3049e-05
-0.000789354
-0.00018035
-0.00123732
-0.000310781
-0.00162986
-0.0004707
-0.00196563
-0.000656324
-0.00224789
-0.000864072
-0.00248393
-0.00109088
-0.00268395
-0.00133441
-0.00285955
-0.00159314
-0.00302225
-0.00318085
-0.00186626
-2.31121e-05
-0.000268512
-8.6613e-05
-0.000725853
-0.000187494
-0.00113644
-0.00032213
-0.00149523
-0.000486518
-0.00180124
-0.000676611
-0.0020578
-0.000888669
-0.00227187
-0.00111956
-0.00245306
-0.00136695
-0.00261216
-0.00162939
-0.00275981
-0.00290409
-0.00190615
-2.40637e-05
-0.000244449
-8.98874e-05
-0.00066003
-0.000194046
-0.00103228
-0.00033252
-0.00135675
-0.000500979
-0.00163278
-0.000695138
-0.00186364
-0.000911114
-0.00205589
-0.00114572
-0.00221845
-0.00139665
-0.00236124
-0.00166251
-0.00249395
-0.00262392
-0.00194267
-2.49298e-05
-0.000219519
-9.28624e-05
-0.000592097
-0.000199989
-0.000925151
-0.000341932
-0.00121481
-0.000514063
-0.00146065
-0.000711883
-0.00166582
-0.000931389
-0.00183639
-0.00116935
-0.00198049
-0.00142349
-0.0021071
-0.00169247
-0.00222496
-0.00234063
-0.00197577
-2.57075e-05
-0.000193811
-9.55292e-05
-0.000522275
-0.000205309
-0.00081537
-0.000350346
-0.00106977
-0.000525747
-0.00128525
-0.000726826
-0.00146474
-0.000949474
-0.00161374
-0.00119043
-0.00173953
-0.00144744
-0.0018501
-0.00171924
-0.00195316
-0.00205449
-0.00200538
-2.63941e-05
-0.000167417
-9.78801e-05
-0.000450789
-0.000209994
-0.000703257
-0.000357747
-0.000922018
-0.000536014
-0.00110699
-0.000739948
-0.0012608
-0.00096535
-0.00138834
-0.00120894
-0.00149594
-0.00146848
-0.00159056
-0.00174277
-0.00167886
-0.00176582
-0.00203144
-2.69871e-05
-0.00014043
-9.99081e-05
-0.000377868
-0.00021403
-0.000589135
-0.000364118
-0.00077193
-0.000544846
-0.000926259
-0.00075123
-0.00105442
-0.000978997
-0.00116057
-0.00122485
-0.00125009
-0.00148657
-0.00132884
-0.00176303
-0.0014024
-0.00147495
-0.0020539
-2.74845e-05
-0.000112946
-0.000101607
-0.000303746
-0.000217409
-0.000473333
-0.000369448
-0.000619891
-0.00055223
-0.000743477
-0.000760657
-0.000845992
-0.000990398
-0.000930829
-0.00123814
-0.00100235
-0.00150169
-0.00106528
-0.00177997
-0.00112413
-0.00118222
-0.0020727
-2.78845e-05
-8.5061e-05
-0.000102973
-0.000228657
-0.000220123
-0.000356183
-0.000373725
-0.000466289
-0.000558152
-0.000559049
-0.000768217
-0.000635928
-0.000999538
-0.000699508
-0.0012488
-0.000753096
-0.00151382
-0.000800258
-0.00179356
-0.000844386
-0.000887992
-0.00208779
-2.81858e-05
-5.68752e-05
-0.000104
-0.000152843
-0.000222164
-0.000238019
-0.00037694
-0.000311513
-0.000562603
-0.000373386
-0.000773896
-0.000424635
-0.00100641
-0.000466999
-0.0012568
-0.000502699
-0.00152294
-0.000534123
-0.00180378
-0.000563541
-0.000592629
-0.00209915
-2.83872e-05
-2.8488e-05
-0.000104687
-7.65429e-05
-0.000223527
-0.000119179
-0.000379088
-0.000155953
-0.000565575
-0.000186899
-0.000777687
-0.000212522
-0.00101099
-0.000233698
-0.00126215
-0.00025154
-0.00152902
-0.000267247
-0.00181061
-0.000281956
-0.000296505
-0.00210673
-2.8488e-05
-7.6935e-16
-0.000105031
-5.73362e-16
-0.00022421
-9.91811e-16
-0.000380162
-3.00281e-15
-0.000567062
-6.49026e-15
-0.000779584
-9.87182e-15
-0.00101328
-1.00353e-14
-0.00126482
-3.73993e-15
-0.00153207
9.47161e-15
-0.00181402
2.49723e-14
3.46057e-14
-0.00211053
-2.8488e-05
2.8488e-05
-0.000105031
7.65429e-05
-0.00022421
0.000119179
-0.000380162
0.000155953
-0.000567062
0.000186899
-0.000779584
0.000212522
-0.00101328
0.000233698
-0.00126482
0.00025154
-0.00153207
0.000267247
-0.00181402
0.000281956
0.000296505
-0.00211053
-2.83872e-05
5.68752e-05
-0.000104687
0.000152843
-0.000223527
0.000238019
-0.000379088
0.000311513
-0.000565575
0.000373386
-0.000777687
0.000424635
-0.00101099
0.000466999
-0.00126215
0.000502699
-0.00152902
0.000534123
-0.00181061
0.000563541
0.000592629
-0.00210673
-2.81858e-05
8.5061e-05
-0.000104
0.000228657
-0.000222164
0.000356183
-0.00037694
0.000466289
-0.000562603
0.000559049
-0.000773896
0.000635928
-0.00100641
0.000699508
-0.0012568
0.000753096
-0.00152294
0.000800258
-0.00180378
0.000844386
0.000887992
-0.00209915
-2.78845e-05
0.000112946
-0.000102973
0.000303746
-0.000220123
0.000473333
-0.000373725
0.000619891
-0.000558152
0.000743477
-0.000768217
0.000845992
-0.000999538
0.000930829
-0.0012488
0.00100235
-0.00151382
0.00106528
-0.00179356
0.00112413
0.00118222
-0.00208779
-2.74845e-05
0.00014043
-0.000101607
0.000377868
-0.000217409
0.000589135
-0.000369448
0.00077193
-0.00055223
0.000926259
-0.000760657
0.00105442
-0.000990398
0.00116057
-0.00123814
0.00125009
-0.00150169
0.00132884
-0.00177997
0.0014024
0.00147495
-0.0020727
-2.69871e-05
0.000167417
-9.99081e-05
0.000450789
-0.00021403
0.000703257
-0.000364118
0.000922018
-0.000544846
0.00110699
-0.00075123
0.0012608
-0.000978997
0.00138834
-0.00122485
0.00149594
-0.00148657
0.00159056
-0.00176303
0.00167886
0.00176582
-0.0020539
-2.63941e-05
0.000193811
-9.78801e-05
0.000522275
-0.000209994
0.00081537
-0.000357747
0.00106977
-0.000536014
0.00128525
-0.000739948
0.00146474
-0.00096535
0.00161374
-0.00120894
0.00173953
-0.00146848
0.0018501
-0.00174277
0.00195316
0.00205449
-0.00203144
-2.57075e-05
0.000219519
-9.55292e-05
0.000592097
-0.000205309
0.000925151
-0.000350346
0.00121481
-0.000525747
0.00146065
-0.000726826
0.00166582
-0.000949474
0.00183639
-0.00119043
0.00198049
-0.00144744
0.0021071
-0.00171924
0.00222496
0.00234063
-0.00200538
-2.49298e-05
0.000244449
-9.28624e-05
0.00066003
-0.000199989
0.00103228
-0.000341932
0.00135675
-0.000514063
0.00163278
-0.000711883
0.00186364
-0.000931389
0.00205589
-0.00116935
0.00221845
-0.00142349
0.00236124
-0.00169247
0.00249395
0.00262392
-0.00197577
-2.40637e-05
0.000268512
-8.98874e-05
0.000725853
-0.000194046
0.00113644
-0.00033252
0.00149523
-0.000500979
0.00180124
-0.000695138
0.0020578
-0.000911114
0.00227187
-0.00114572
0.00245306
-0.00139665
0.00261216
-0.00166251
0.00275981
0.00290409
-0.00194267
-2.31121e-05
0.000291624
-8.6613e-05
0.000789354
-0.000187494
0.00123732
-0.00032213
0.00162986
-0.000486518
0.00196563
-0.000676611
0.00224789
-0.000888669
0.00248393
-0.00111956
0.00268395
-0.00136695
0.00285955
-0.00162939
0.00302225
0.00318085
-0.00190615
-2.20785e-05
0.000313703
-8.3049e-05
0.000850325
-0.00018035
0.00133462
-0.000310781
0.00176029
-0.0004707
0.00212555
-0.000656324
0.00243351
-0.000864072
0.00269167
-0.00109088
0.00291076
-0.00133441
0.00310308
-0.00159314
0.00328099
0.00345397
-0.00186626
-2.09664e-05
0.000334669
-7.92062e-05
0.000908564
-0.000172631
0.00142804
-0.000298498
0.00188616
-0.000453552
0.0022806
-0.000634299
0.00261426
-0.000837345
0.00289472
-0.00105971
0.00313312
-0.00129904
0.00334242
-0.0015538
0.00353575
0.00372323
-0.00182306
-1.978e-05
0.000354449
-7.50964e-05
0.000963881
-0.000164359
0.0015173
-0.000285306
0.00200711
-0.000435099
0.0024304
-0.000610562
0.00278972
-0.000808504
0.00309266
-0.00102605
0.00335066
-0.00126087
0.00357724
-0.00151137
0.00378625
0.00398842
-0.00177656
-1.85238e-05
0.000372973
-7.07329e-05
0.00101609
-0.000155554
0.00160213
-0.000271233
0.00212279
-0.000415372
0.00257454
-0.000585139
0.00295949
-0.00077757
0.00328509
-0.000989907
0.00356299
-0.00121987
0.0038072
-0.00146585
0.00403223
0.00424936
-0.00172679
-1.72024e-05
0.000390175
-6.61303e-05
0.00106502
-0.000146243
0.00168224
-0.000256312
0.00223286
-0.000394407
0.00271263
-0.000558062
0.00312315
-0.000744563
0.00347159
-0.000951295
0.00376973
-0.00117604
0.00403195
-0.00141719
0.00427338
0.00450588
-0.00167371
-1.58214e-05
0.000405997
-6.13047e-05
0.0011105
-0.000136452
0.00175739
-0.000240579
0.00233698
-0.000372244
0.0028443
-0.000529369
0.00328027
-0.00070951
0.00365173
-0.000910214
0.00397043
-0.00112935
0.00425108
-0.00136535
0.00450938
0.00475778
-0.00161725
-1.43866e-05
0.000420383
-5.62739e-05
0.00115239
-0.000126214
0.00182733
-0.000224078
0.00243485
-0.000348931
0.00296915
-0.000499105
0.00343045
-0.000672446
0.00382508
-0.000866678
0.00416466
-0.00107977
0.00446417
-0.00131022
0.00473984
0.00500486
-0.0015573
-1.29041e-05
0.000433288
-5.10574e-05
0.00119054
-0.000115562
0.00189183
-0.000206856
0.00252614
-0.000324525
0.00308682
-0.000467332
0.00357325
-0.000633428
0.00399117
-0.000820723
0.00435196
-0.00102729
0.00467074
-0.00125171
0.00496426
0.00524678
-0.00149364
-1.13808e-05
0.000444668
-4.56765e-05
0.00122484
-0.000104536
0.00195069
-0.000188968
0.00261057
-0.000299095
0.00319695
-0.000434126
0.00370828
-0.000592537
0.00414958
-0.00077243
0.00453185
-0.000971968
0.00487028
-0.0011897
0.00518199
0.00548311
-0.00142603
-9.82395e-06
0.000454492
-4.0154e-05
0.00125517
-9.31775e-05
0.00200371
-0.000170474
0.00268787
-0.000272716
0.00329919
-0.000399584
0.00383515
-0.000549899
0.0042999
-0.000721976
0.00470393
-0.000914035
0.00506234
-0.00112419
0.00539214
0.00571352
-0.0013546
-8.24087e-06
0.000462733
-3.45138e-05
0.00128144
-8.15306e-05
0.00205073