/*--------------------------------*- C++ -*----------------------------------*\
  =========                 |
  \\      /  F ield         | OpenFOAM: The Open Source CFD Toolbox
   \\    /   O peration     | Website:  https://openfoam.org
    \\  /    A nd           | Version:  7
     \\/     M anipulation  |
\*---------------------------------------------------------------------------*/
FoamFile
{
    version     2.0;
    format      ascii;
    class       volVectorField;
    location    "240";
    object      U;
}
// * * * * * * * * * * * * * * * * * * * * * * * * * * * * * * * * * * * * * //

dimensions      [0 1 -1 0 0 0 0];

internalField   nonuniform List<vector> 
4575
(
(0.821079 -0.340144 -6.13836e-23)
(0.80441 -0.365793 5.13044e-23)
(0.78684 -0.336097 -6.84037e-23)
(0.780071 -0.251551 -5.36248e-23)
(0.784003 -0.118772 -1.09037e-22)
(0.796663 0.0172874 -1.51633e-23)
(0.803456 0.156887 3.54677e-23)
(0.80233 0.258587 4.65095e-23)
(0.794262 0.321458 -1.92903e-23)
(0.79195 0.31968 -4.55064e-23)
(0.789537 0.238666 -1.59407e-23)
(0.792531 0.133529 6.41501e-23)
(0.788481 -0.0360773 1.2373e-23)
(0.78627 -0.156641 -5.7805e-23)
(0.777003 -0.271921 5.50246e-23)
(0.77867 -0.305554 1.38231e-23)
(0.773618 -0.230292 -8.24921e-24)
(0.77654 -0.162537 -3.88623e-24)
(0.762565 0.0508437 -1.20927e-23)
(0.759681 0.139377 -4.69936e-24)
(0.746349 0.240524 8.70002e-25)
(0.75326 0.280043 -1.09878e-23)
(0.737425 0.0653934 3.01754e-23)
(0.82165 -0.339476 3.73876e-23)
(0.804837 -0.364751 -1.5573e-22)
(0.787207 -0.335392 3.87592e-23)
(0.780504 -0.251519 -1.36638e-22)
(0.784437 -0.119299 5.61648e-23)
(0.796806 0.0166822 -1.23504e-22)
(0.803329 0.156689 -1.21768e-22)
(0.802183 0.258796 -1.68255e-22)
(0.794363 0.321724 5.49119e-24)
(0.792193 0.319809 1.10655e-22)
(0.78976 0.238685 -1.00681e-22)
(0.792826 0.133581 -7.17498e-23)
(0.788737 -0.0358774 2.83046e-24)
(0.786429 -0.156346 8.22686e-24)
(0.77675 -0.271707 -3.34444e-23)
(0.778087 -0.305488 -4.43137e-23)
(0.773041 -0.230238 1.97779e-22)
(0.77592 -0.16233 -6.70445e-23)
(0.762504 0.0512078 -1.32971e-22)
(0.759908 0.139691 2.98062e-23)
(0.746979 0.240666 -7.13021e-23)
(0.754298 0.28021 -1.29297e-23)
(0.737346 0.0657462 -6.21653e-23)
(0.82232 -0.33878 -2.09784e-22)
(0.805357 -0.363704 2.9728e-23)
(0.787651 -0.334715 6.11454e-23)
(0.780997 -0.25154 3.46536e-22)
(0.784923 -0.119878 2.11995e-23)
(0.797007 0.0160354 5.79958e-22)
(0.803278 0.156451 -5.06161e-23)
(0.80212 0.258969 2.88792e-22)
(0.794539 0.321969 -2.19801e-22)
(0.792492 0.319948 -1.11122e-22)
(0.790029 0.238729 2.81316e-22)
(0.793174 0.133668 1.65501e-22)
(0.78906 -0.0356401 1.59503e-22)
(0.786665 -0.156014 3.73499e-23)
(0.776574 -0.271461 5.63582e-23)
(0.777571 -0.305417 9.07346e-23)
(0.772527 -0.230194 -2.07895e-22)
(0.775366 -0.162151 4.85793e-23)
(0.762518 0.0515378 1.70005e-22)
(0.760212 0.139983 3.21254e-23)
(0.747683 0.240787 7.72286e-23)
(0.755407 0.280393 4.68103e-23)
(0.737343 0.0661242 5.12124e-23)
(0.823088 -0.338058 2.98559e-22)
(0.805968 -0.362653 -3.15627e-22)
(0.78817 -0.334064 -5.0366e-23)
(0.781548 -0.251612 -6.13497e-23)
(0.78546 -0.120506 -7.0735e-23)
(0.797267 0.0153462 -2.27245e-22)
(0.803303 0.156173 1.69025e-22)
(0.802142 0.259106 -3.31413e-22)
(0.794789 0.322195 8.08632e-23)
(0.792845 0.320097 2.26539e-22)
(0.790343 0.238799 -4.03977e-22)
(0.793574 0.133787 -2.61074e-22)
(0.789451 -0.0353664 -3.74395e-23)
(0.78698 -0.155646 1.71671e-22)
(0.776476 -0.271182 -1.49959e-22)
(0.777122 -0.305342 2.33612e-23)
(0.772076 -0.230158 3.8567e-22)
(0.774879 -0.161999 -9.4049e-23)
(0.762609 0.0518335 6.64616e-23)
(0.760592 0.140255 -4.57805e-23)
(0.748461 0.240886 -4.90657e-23)
(0.756585 0.280591 2.22932e-23)
(0.737416 0.0665272 -1.20948e-23)
(0.823956 -0.33731 -5.65549e-23)
(0.806671 -0.361595 4.6624e-22)
(0.788762 -0.333439 -1.65818e-24)
(0.782156 -0.251733 2.3125e-22)
(0.786046 -0.121186 -2.72385e-22)
(0.797585 0.0146138 -1.07534e-22)
(0.803404 0.155853 1.06455e-22)
(0.802246 0.259208 3.28276e-22)
(0.795111 0.322402 3.19481e-22)
(0.793253 0.320258 -7.11346e-22)
(0.790703 0.238894 6.28245e-22)
(0.794024 0.13394 3.78248e-22)
(0.789908 -0.0350571 -4.07457e-23)
(0.787372 -0.155242 3.57835e-23)
(0.776459 -0.27087 4.21874e-22)
(0.77674 -0.305261 -2.33104e-22)
(0.771689 -0.230131 -3.0891e-22)
(0.774458 -0.161875 2.06393e-22)
(0.762774 0.0520946 -5.90402e-23)
(0.761049 0.140505 -4.61468e-23)
(0.749312 0.240964 4.88055e-23)
(0.757832 0.280805 -4.00782e-23)
(0.737567 0.066955 -1.43766e-22)
(0.824921 -0.336537 3.88924e-22)
(0.807464 -0.360531 -5.4574e-22)
(0.789425 -0.332837 -9.38365e-23)
(0.782817 -0.251902 -3.32465e-23)
(0.78668 -0.121915 6.63375e-22)
(0.797961 0.0138376 -3.79513e-22)
(0.803579 0.15549 -1.82915e-22)
(0.802433 0.259272 -1.23357e-22)
(0.795505 0.32259 4.35741e-22)
(0.793715 0.320431 3.38127e-22)
(0.791109 0.239014 7.37433e-23)
(0.794526 0.134124 -2.95114e-22)
(0.790432 -0.0347129 5.34846e-22)
(0.787842 -0.154803 -1.73726e-22)
(0.776521 -0.270525 -6.60008e-22)
(0.776425 -0.305174 1.04418e-22)
(0.771366 -0.230114 -3.2103e-23)
(0.774103 -0.161779 -6.37418e-23)
(0.763012 0.052321 -8.19845e-23)
(0.761581 0.140734 2.19119e-23)
(0.750235 0.241021 4.28995e-23)
(0.759148 0.281035 -1.30497e-24)
(0.737794 0.0674074 1.08813e-22)
(0.825984 -0.33574 5.97889e-22)
(0.808346 -0.35946 8.10153e-22)
(0.790157 -0.332258 1.00127e-21)
(0.78353 -0.252119 -1.77699e-22)
(0.78736 -0.122693 -5.1584e-22)
(0.798392 0.0130168 5.43236e-23)
(0.803829 0.155084 2.20523e-22)
(0.802702 0.259301 -1.19302e-22)
(0.795971 0.322761 -4.23457e-22)
(0.794232 0.320617 -1.92424e-23)
(0.79156 0.239159 -6.78909e-22)
(0.795079 0.13434 4.01616e-22)
(0.791023 -0.0343347 -7.44777e-23)
(0.788391 -0.15433 -2.12754e-22)
(0.776664 -0.270148 6.35902e-22)
(0.776178 -0.305082 -2.79037e-22)
(0.771107 -0.230105 3.65914e-23)
(0.773815 -0.161712 2.57728e-23)
(0.763324 0.0525124 1.37498e-22)
(0.762187 0.140942 -3.76143e-23)
(0.75123 0.241057 -5.86555e-23)
(0.760533 0.28128 -3.27053e-23)
(0.738099 0.0678842 1.29043e-22)
(0.827143 -0.33492 -7.59114e-22)
(0.809316 -0.35838 3.50839e-22)
(0.790958 -0.331698 -3.59912e-22)
(0.784293 -0.25238 -7.9732e-22)
(0.788085 -0.123521 -8.94038e-23)
(0.79888 0.0121506 3.44734e-22)
(0.804153 0.154634 -4.53345e-23)
(0.803053 0.259293 4.0204e-22)
(0.796507 0.322915 -5.06862e-22)
(0.794803 0.320816 -1.99149e-22)
(0.792056 0.23933 9.88745e-23)
(0.795681 0.134587 -7.58373e-22)
(0.79168 -0.0339234 -3.97261e-22)
(0.789019 -0.153821 -2.0553e-22)
(0.776888 -0.269737 -2.29512e-23)
(0.775999 -0.304982 3.24872e-22)
(0.770913 -0.230106 3.89843e-22)
(0.773592 -0.161674 -3.72061e-22)
(0.763709 0.0526686 -2.56847e-22)
(0.762868 0.141129 -3.83319e-23)
(0.752293 0.241072 9.22373e-23)
(0.761986 0.28154 -5.02889e-24)
(0.738482 0.0683851 1.76911e-22)
(0.828399 -0.334078 -7.63242e-22)
(0.810374 -0.357292 -1.48179e-22)
(0.791826 -0.331156 6.18288e-22)
(0.785103 -0.252685 9.93445e-22)
(0.788853 -0.124398 -5.84648e-22)
(0.799422 0.0112383 7.20803e-22)
(0.804549 0.154138 4.14131e-22)
(0.803483 0.259248 -2.8897e-22)
(0.797114 0.323052 4.23466e-22)
(0.795428 0.32103 2.6476e-22)
(0.792597 0.239526 1.09141e-22)
(0.796333 0.134864 -1.62569e-22)
(0.792404 -0.03348 -1.49663e-22)
(0.789725 -0.153279 3.60467e-22)
(0.777194 -0.269292 -1.40651e-23)
(0.775888 -0.304876 -5.48372e-22)
(0.770783 -0.230115 -6.86105e-22)
(0.773435 -0.161664 2.54686e-22)
(0.764165 0.0527894 1.76473e-22)
(0.763622 0.141295 2.99275e-23)
(0.753426 0.241067 -8.28037e-23)
(0.763507 0.281814 -4.1675e-23)
(0.738943 0.0689099 -5.92249e-23)
(0.82975 -0.333215 1.21391e-22)
(0.811518 -0.356193 -1.32623e-21)
(0.792758 -0.330631 -1.46916e-22)
(0.78596 -0.253033 -5.93468e-23)
(0.789663 -0.125324 6.80267e-22)
(0.800017 0.010279 -9.8289e-22)
(0.805018 0.153596 -4.59967e-22)
(0.803993 0.259167 -7.09788e-22)
(0.79779 0.323173 -4.73981e-23)
(0.796106 0.321257 -5.64008e-22)
(0.793183 0.239747 1.85893e-22)
(0.797034 0.13517 1.70584e-21)
(0.793193 -0.0330053 7.52855e-22)
(0.790509 -0.152704 1.42966e-23)
(0.777583 -0.268813 6.7355e-22)
(0.775845 -0.304763 5.25608e-22)
(0.770719 -0.230134 4.95005e-22)
(0.773344 -0.161682 3.88374e-22)
(0.764691 0.0528747 -2.12244e-22)
(0.764449 0.141441 1.62941e-24)
(0.754626 0.241041 1.29441e-22)
(0.765095 0.282104 1.05453e-22)
(0.739483 0.0694584 -3.53022e-22)
(0.831194 -0.332332 1.41674e-21)
(0.812749 -0.355084 9.93257e-23)
(0.793754 -0.33012 -1.14667e-21)
(0.78686 -0.253421 -2.23214e-22)
(0.790512 -0.126298 -2.17048e-22)
(0.800666 0.00927208 -5.18374e-23)
(0.805557 0.153007 3.88066e-22)
(0.804581 0.259048 5.43422e-22)
(0.798534 0.323279 -5.10266e-22)
(0.796839 0.3215 1.83775e-21)
(0.793814 0.239993 -6.74726e-22)
(0.797783 0.135504 -1.40943e-21)
(0.794047 -0.0325003 -4.38915e-22)
(0.791373 -0.152096 2.98264e-22)
(0.778055 -0.268301 -1.72178e-22)
(0.775871 -0.304641 4.33148e-22)
(0.77072 -0.230161 -1.84354e-23)
(0.773317 -0.16173 -4.12557e-22)
(0.765288 0.0529244 1.28014e-22)
(0.765347 0.141565 5.71016e-23)
(0.755893 0.240994 -1.24763e-22)
(0.766749 0.282408 -1.04516e-22)
(0.740101 0.0700301 2.49653e-22)
(0.832732 -0.331429 2.48571e-22)
(0.814064 -0.353963 -6.12811e-22)
(0.794812 -0.329621 1.27531e-22)
(0.787802 -0.253847 5.88131e-22)
(0.791399 -0.12732 2.19307e-22)
(0.801365 0.00821672 4.96577e-22)
(0.806166 0.15237 7.18304e-22)
(0.805246 0.258893 -6.85109e-23)
(0.799346 0.32337 5.24666e-22)
(0.797624 0.321758 -4.2149e-22)
(0.794488 0.240265 6.98155e-22)
(0.798579 0.135867 5.85359e-22)
(0.794966 -0.0319661 -1.22877e-21)
(0.792314 -0.151455 4.22472e-23)
(0.778609 -0.267754 -2.9885e-22)
(0.775965 -0.304511 -6.88045e-22)
(0.770786 -0.230196 3.43983e-22)
(0.773355 -0.161806 -1.25926e-22)
(0.765953 0.0529383 -5.83918e-23)
(0.766318 0.141669 -4.89409e-24)
(0.757224 0.240927 1.92971e-23)
(0.768469 0.282726 4.86438e-23)
(0.740798 0.0706247 -2.72844e-22)
(0.834361 -0.330509 -1.21037e-21)
(0.815464 -0.35283 -3.80156e-22)
(0.79593 -0.329132 5.42589e-22)
(0.788784 -0.254311 -5.60933e-22)
(0.792322 -0.128389 1.09559e-22)
(0.802115 0.00711221 7.57324e-23)
(0.806843 0.151684 -1.71073e-21)
(0.805987 0.2587 5.95773e-23)
(0.800226 0.323446 -1.17838e-21)
(0.798463 0.322032 -1.00368e-21)
(0.795207 0.240562 5.86184e-22)
(0.799422 0.136257 -3.86166e-22)
(0.795949 -0.0314036 8.99733e-22)
(0.793333 -0.150783 2.031e-22)
(0.779248 -0.267173 -1.26716e-21)
(0.776128 -0.304372 6.72596e-22)
(0.770917 -0.23024 -2.25395e-22)
(0.773457 -0.161911 4.06853e-22)
(0.766685 0.0529164 -3.68365e-23)
(0.767358 0.141753 1.55886e-25)
(0.75862 0.24084 3.30269e-24)
(0.770255 0.283058 2.46751e-23)
(0.741574 0.071242 1.04419e-22)
(0.836081 -0.329571 2.04738e-21)
(0.816948 -0.351683 6.62457e-22)
(0.797108 -0.328651 -2.32879e-22)
(0.789804 -0.25481 3.11759e-22)
(0.79328 -0.129506 1.07506e-21)
(0.802913 0.00595783 -9.64246e-22)
(0.807588 0.150949 1.16703e-21)
(0.806803 0.25847 -3.76368e-23)
(0.801171 0.323507 8.2659e-22)
(0.799356 0.322321 9.63858e-22)
(0.79597 0.240884 -1.09623e-21)
(0.800312 0.136673 -3.8545e-22)
(0.796996 -0.0308139 -3.29816e-22)
(0.794431 -0.15008 -1.40782e-21)
(0.77997 -0.266558 1.00663e-21)
(0.776359 -0.304223 -1.74796e-22)
(0.771114 -0.230291 2.29151e-22)
(0.773623 -0.162044 -2.7212e-23)
(0.767485 0.0528586 1.56407e-23)
(0.768468 0.141816 1.88299e-23)
(0.760079 0.240733 -8.34632e-23)
(0.772106 0.283403 -1.09207e-23)
(0.742429 0.0718816 -5.60341e-23)
(0.837888 -0.328617 -2.57974e-22)
(0.818515 -0.350521 -6.83342e-22)
(0.798345 -0.328176 -4.07852e-22)
(0.790861 -0.255343 -1.64943e-21)
(0.794271 -0.130669 -1.62397e-22)
(0.803758 0.00475291 1.98937e-22)
(0.808399 0.150163 -1.54882e-21)
(0.807693 0.258202 2.36515e-22)
(0.802183 0.323555 1.13324e-22)
(0.800301 0.322628 6.12964e-22)
(0.796777 0.241232 5.11063e-23)
(0.801246 0.137116 1.17752e-21)
(0.798105 -0.030198 7.17252e-22)
(0.795605 -0.149347 1.55545e-21)
(0.780776 -0.265908 -1.00271e-21)
(0.776659 -0.304064 -2.91059e-22)
(0.771376 -0.230351 -5.79228e-22)
(0.773852 -0.162206 2.95533e-23)
(0.76835 0.0527647 2.20739e-22)
(0.769647 0.141859 -7.31184e-23)
(0.761599 0.240606 5.01823e-23)
(0.77402 0.283761 -5.65506e-23)
(0.743362 0.0725432 -3.71891e-24)
(0.839783 -0.327649 7.21319e-22)
(0.820165 -0.349343 2.14979e-21)
(0.799638 -0.327703 -4.01964e-22)
(0.791953 -0.255907 8.21847e-22)
(0.795292 -0.131879 4.90961e-22)
(0.804649 0.00349678 4.35426e-22)
(0.809274 0.149326 9.38345e-22)
(0.808656 0.257896 1.00601e-23)
(0.80326 0.323589 3.57618e-22)
(0.801299 0.32295 -8.23359e-22)
(0.797627 0.241604 1.25856e-21)
(0.802225 0.137583 -1.61976e-21)
(0.799276 -0.029557 4.82789e-23)
(0.796857 -0.148585 -9.00056e-22)
(0.781666 -0.265223 1.00335e-21)
(0.777027 -0.303894 -3.57322e-23)
(0.771703 -0.230419 5.3313e-22)
(0.774144 -0.162397 -8.88933e-23)
(0.76928 0.0526349 -1.26008e-22)
(0.770894 0.141881 1.13886e-22)
(0.76318 0.240458 2.49152e-23)
(0.775998 0.284132 8.74285e-23)
(0.744375 0.0732263 5.53415e-22)
(0.841761 -0.326666 1.55989e-22)
(0.821897 -0.34815 -1.00254e-21)
(0.800987 -0.327232 1.8067e-21)
(0.793079 -0.256501 -6.75122e-22)
(0.796343 -0.133135 -3.29458e-22)
(0.805583 0.00218883 -8.1788e-23)
(0.810211 0.148436 -1.15304e-21)
(0.809689 0.257552 1.23683e-21)
(0.804402 0.323609 -1.0426e-21)
(0.802351 0.32329 6.38191e-22)
(0.798521 0.242002 -7.73824e-22)
(0.803248 0.138074 6.87192e-22)
(0.800508 -0.0288921 -6.79167e-22)
(0.798185 -0.147794 5.72633e-22)
(0.782641 -0.264503 -2.11121e-22)
(0.777463 -0.303713 3.03061e-22)
(0.772096 -0.230494 -5.6154e-22)
(0.774498 -0.162615 -1.06096e-22)
(0.770272 0.0524691 5.33962e-23)
(0.772207 0.141884 -1.87595e-22)
(0.764819 0.240292 -8.85254e-24)
(0.778038 0.284515 -8.74827e-23)
(0.745467 0.0739305 8.08068e-23)
(0.843822 -0.325671 1.59887e-21)
(0.82371 -0.346939 -1.9187e-22)
(0.802392 -0.326759 9.93962e-23)
(0.794236 -0.257123 3.6031e-22)
(0.797421 -0.134436 -7.82697e-22)
(0.806559 0.000828473 4.29587e-22)
(0.811209 0.147494 1.25263e-21)
(0.810792 0.25717 -1.47685e-21)
(0.805607 0.323616 1.1224e-22)
(0.803455 0.323646 -8.21719e-22)
(0.799458 0.242425 -1.5366e-21)
(0.804313 0.13859 1.06952e-21)
(0.801801 -0.0282042 1.42513e-21)
(0.799589 -0.146975 -5.6299e-22)
(0.783699 -0.263748 1.26232e-22)
(0.777967 -0.30352 -6.07581e-22)
(0.772553 -0.230576 -1.41231e-22)
(0.774914 -0.162862 2.87582e-23)
(0.771328 0.0522673 -5.71186e-23)
(0.773587 0.141867 9.1983e-23)
(0.766517 0.240105 1.45456e-23)
(0.780139 0.284909 1.29714e-22)
(0.746637 0.0746555 -3.59435e-22)
(0.845963 -0.324664 9.90558e-23)
(0.825604 -0.34571 -1.53226e-21)
(0.80385 -0.326283 -1.30756e-21)
(0.795424 -0.25777 8.88393e-22)
(0.798526 -0.135782 2.45112e-22)
(0.807576 -0.000584761 1.12923e-23)
(0.812267 0.146498 -8.94697e-22)
(0.811963 0.256749 7.0202e-22)
(0.806875 0.32361 8.28492e-22)
(0.804611 0.32402 -5.05526e-22)
(0.800439 0.242872 6.84801e-22)
(0.80542 0.139128 -4.14389e-22)
(0.803153 -0.0274946 -2.53674e-21)
(0.801067 -0.146129 9.4505e-22)
(0.784842 -0.262959 -1.31254e-22)
(0.778539 -0.303314 5.97458e-22)
(0.773075 -0.230665 4.24178e-22)
(0.77539 -0.163136 -5.70902e-24)
(0.772444 0.0520295 5.8698e-23)
(0.775032 0.141831 6.24453e-23)
(0.76827 0.239899 -2.34947e-23)
(0.782301 0.285315 -1.55989e-22)
(0.747886 0.0754008 1.40278e-22)
(0.848181 -0.323648 -4.48443e-22)
(0.827578 -0.344462 -2.05186e-22)
(0.805362 -0.3258 3.86702e-22)
(0.796641 -0.258441 -2.34944e-22)
(0.799654 -0.137172 -8.75397e-22)
(0.808631 -0.00205105 5.99431e-23)
(0.813381 0.145447 -2.77352e-22)
(0.813201 0.25629 -3.11386e-22)
(0.808206 0.32359 -7.54122e-22)
(0.805821 0.324411 -1.40855e-22)
(0.801462 0.243346 2.70314e-22)
(0.806568 0.139689 -8.47757e-22)
(0.804563 -0.0267643 1.47518e-21)
(0.802621 -0.145257 2.34644e-22)
(0.78607 -0.262134 -1.17935e-21)
(0.779179 -0.303095 -1.05206e-21)
(0.773662 -0.23076 2.38452e-22)
(0.775928 -0.163437 -2.16084e-23)
(0.773619 0.0517557 -4.92e-23)
(0.77654 0.141774 -1.00311e-22)
(0.770079 0.239674 3.48981e-23)
(0.784523 0.285731 1.55144e-22)
(0.749214 0.0761659 4.41959e-22)
(0.850474 -0.322622 -1.47738e-21)
(0.829632 -0.343195 2.1177e-21)
(0.806927 -0.325308 -8.96296e-23)
(0.797885 -0.259133 -1.2974e-21)
(0.800805 -0.138605 4.89338e-22)
(0.809723 -0.00357142 -1.27283e-21)
(0.814551 0.144342 5.3079e-22)
(0.814504 0.25579 8.42289e-22)
(0.809598 0.323557 9.27834e-23)
(0.807082 0.32482 1.72585e-21)
(0.802529 0.243844 3.56841e-22)
(0.807757 0.140271 9.90008e-23)
(0.80603 -0.0260144 5.78251e-22)
(0.804248 -0.14436 -6.4991e-22)
(0.787381 -0.261274 1.78812e-21)
(0.779886 -0.302863 6.97863e-22)
(0.774312 -0.230862 4.37483e-23)
(0.776525 -0.163765 5.32948e-23)
(0.774854 0.0514462 -7.1283e-23)
(0.778112 0.141699 1.73436e-22)
(0.771942 0.239429 4.16017e-23)
(0.786803 0.286158 -7.42039e-23)
(0.750619 0.0769505 -7.84246e-22)
(0.852838 -0.32159 3.09338e-21)
(0.831765 -0.341909 -1.36274e-21)
(0.808545 -0.324805 1.19882e-21)
(0.799156 -0.259844 9.4098e-23)
(0.801977 -0.140081 1.99993e-22)
(0.810849 -0.00514637 1.07503e-21)
(0.815774 0.143181 7.08053e-23)
(0.815871 0.255251 -8.1153e-22)
(0.811052 0.32351 -6.82364e-22)
(0.808397 0.325245 1.0318e-22)
(0.803639 0.244368 2.42642e-22)
(0.808985 0.140875 1.43568e-21)
(0.807553 -0.0252461 -1.19329e-21)
(0.805947 -0.143439 -1.47392e-21)
(0.788776 -0.260379 -1.47167e-21)
(0.78066 -0.302616 -5.56484e-22)
(0.775026 -0.230969 -1.2493e-21)
(0.777182 -0.16412 1.28472e-23)
(0.776145 0.0511009 2.39152e-22)
(0.779746 0.141604 -4.84655e-22)
(0.773857 0.239165 7.87876e-23)
(0.789142 0.286594 5.58482e-23)
(0.752103 0.0777541 -6.12521e-22)
(0.855271 -0.320551 -4.78874e-22)
(0.833976 -0.340602 -3.15156e-22)
(0.810215 -0.324288 -7.20345e-22)
(0.800453 -0.260571 2.59715e-22)
(0.803168 -0.141598 -4.66538e-22)
(0.812008 -0.00677516 -6.26449e-22)
(0.817048 0.141963 1.90053e-22)
(0.817299 0.254672 9.36303e-22)
(0.812565 0.32345 7.03553e-22)
(0.809763 0.325688 -4.06114e-22)
(0.804791 0.244916 1.04764e-21)
(0.810252 0.141499 -2.30287e-21)
(0.809132 -0.0244604 1.81947e-21)
(0.807719 -0.142494 1.722e-21)
(0.790255 -0.259449 1.13854e-21)
(0.781502 -0.302353 1.14408e-22)
(0.775803 -0.231082 5.95835e-23)
(0.777898 -0.1645 1.89376e-23)
(0.777492 0.0507199 5.84648e-23)
(0.78144 0.141491 4.05614e-22)
(0.775822 0.238883 -9.10622e-23)
(0.791537 0.287039 1.85586e-24)
(0.753664 0.0785761 5.70364e-22)
(0.85777 -0.319509 -2.4551e-21)
(0.836264 -0.339276 -1.36622e-21)
(0.811937 -0.323756 2.05827e-21)
(0.801772 -0.261313 1.29943e-21)
(0.804378 -0.143157 7.25983e-22)
(0.813199 -0.00845838 -2.35546e-22)
(0.818371 0.140688 -8.08927e-22)
(0.818788 0.254052 -3.24733e-22)
(0.814138 0.323376 -9.68895e-22)
(0.811182 0.326149 -2.50448e-22)
(0.805987 0.245491 -1.46958e-21)
(0.811557 0.142143 2.61807e-21)
(0.810764 -0.0236586 8.72048e-22)
(0.809561 -0.141527 -9.22148e-22)
(0.791816 -0.258484 4.81349e-22)
(0.782411 -0.302076 1.1923e-22)
(0.776642 -0.2312 1.27574e-21)
(0.778672 -0.164907 -1.07418e-22)
(0.778894 0.0503035 -6.18063e-23)
(0.783195 0.141359 -3.67025e-22)
(0.777838 0.238581 -2.51318e-22)
(0.793987 0.287492 5.1275e-23)
(0.755302 0.079416 7.37175e-23)
(0.860331 -0.318463 -4.49599e-22)
(0.838628 -0.337928 1.08088e-21)
(0.813712 -0.323204 -9.36022e-22)
(0.803115 -0.262067 -1.00956e-21)
(0.805604 -0.144755 3.81875e-22)
(0.814418 -0.0101982 2.04745e-22)
(0.819741 0.139355 4.8077e-22)
(0.820336 0.25339 9.47848e-23)
(0.81577 0.323288 9.30365e-22)
(0.812652 0.326626 -1.08481e-21)
(0.807226 0.24609 -1.42569e-21)
(0.812899 0.142807 -4.38006e-22)
(0.812449 -0.0228417 -2.58965e-21)
(0.811473 -0.140539 -3.65112e-22)
(0.79346 -0.257484 -1.10023e-21)
(0.783387 -0.301781 2.66925e-22)
(0.777542 -0.231323 -7.13325e-22)
(0.779503 -0.165339 4.30371e-23)
(0.78035 0.0498518 -2.1122e-22)
(0.785009 0.141208 -5.39898e-23)
(0.779902 0.238262 1.70341e-22)
(0.796492 0.287953 -1.50671e-22)
(0.757016 0.0802735 -5.38345e-22)
(0.862952 -0.317415 3.34707e-21)
(0.841067 -0.336561 -1.84989e-21)
(0.815539 -0.322631 -8.16881e-23)
(0.804479 -0.26283 -1.00366e-22)
(0.806846 -0.146392 8.92011e-23)
(0.815664 -0.011994 1.51557e-22)
(0.821156 0.137963 -1.11255e-22)
(0.821941 0.252687 -1.83095e-22)
(0.81746 0.323185 -1.77934e-22)
(0.814175 0.327121 9.57665e-22)
(0.808507 0.246715 4.38006e-22)
(0.814278 0.143489 -3.27378e-21)
(0.814186 -0.0220108 1.05386e-21)
(0.813454 -0.139531 -1.3085e-21)
(0.795186 -0.256449 -1.1994e-21)
(0.78443 -0.30147 4.47664e-22)
(0.778504 -0.23145 -1.31969e-22)
(0.780392 -0.165795 -9.64467e-23)
(0.781857 0.0493649 9.64221e-23)
(0.78688 0.141038 4.01541e-22)
(0.782012 0.237923 -2.79635e-22)
(0.79905 0.288421 6.54935e-23)
(0.758806 0.0811479 4.05519e-23)
(0.865629 -0.316367 -2.01368e-21)
(0.843579 -0.335173 2.19895e-22)
(0.817419 -0.322035 -1.86127e-22)
(0.805863 -0.2636 4.5683e-22)
(0.808101 -0.148067 -9.02457e-22)
(0.816937 -0.0138441 -5.20598e-22)
(0.822613 0.136513 6.45031e-23)
(0.8236 0.251942 2.67107e-22)
(0.819207 0.323067 -1.00505e-21)
(0.81575 0.327632 -1.11026e-21)
(0.809832 0.247365 8.43143e-22)
(0.815693 0.14419 2.13454e-21)
(0.815973 -0.0211669 -6.89501e-22)
(0.815503 -0.138504 8.86665e-22)
(0.796993 -0.25538 1.13757e-21)
(0.78554 -0.301141 -5.28826e-22)
(0.779525 -0.23158 4.22776e-22)
(0.781337 -0.166276 1.1486e-22)
(0.783415 0.048843 -4.12429e-22)
(0.788808 0.140851 6.52692e-22)
(0.784168 0.237566 -5.17398e-23)
(0.80166 0.288896 -6.88353e-23)
(0.760672 0.0820387 9.47967e-23)
(0.868358 -0.315321 -2.3619e-21)
(0.846162 -0.333766 1.23885e-21)
(0.819353 -0.321414 -7.57232e-22)
(0.807266 -0.264374 6.37606e-22)
(0.809369 -0.149778 1.05572e-21)
(0.818234 -0.0157488 -3.44994e-24)
(0.82411 0.135003 -5.02452e-22)
(0.825313 0.251153 -2.57336e-22)
(0.82101 0.322935 1.24601e-21)
(0.817377 0.328159 2.02838e-21)
(0.8112 0.248041 1.85438e-21)
(0.817143 0.14491 1.79183e-22)
(0.817809 -0.0203112 -4.13327e-22)
(0.817618 -0.137458 3.20111e-22)
(0.798881 -0.254276 2.21228e-22)
(0.786717 -0.300794 -6.73175e-22)
(0.780605 -0.231714 -3.77263e-24)
(0.782337 -0.16678 -4.04408e-23)
(0.785022 0.0482865 6.34599e-22)
(0.790792 0.140645 -9.48303e-22)
(0.786368 0.237192 2.23204e-22)
(0.80432 0.289376 6.58368e-23)
(0.762613 0.0829455 1.02521e-22)
(0.871137 -0.314277 -1.86335e-21)
(0.848815 -0.332339 -1.69603e-21)
(0.821341 -0.320764 1.5981e-21)
(0.808688 -0.265149 5.59325e-22)
(0.810648 -0.151524 -4.83911e-22)
(0.819554 -0.0177086 8.33285e-24)
(0.825646 0.133433 2.59837e-22)
(0.827078 0.250321 8.37585e-23)
(0.822869 0.322786 -1.27471e-21)
(0.819055 0.328703 -1.56145e-21)
(0.812612 0.248742 2.55744e-22)
(0.81863 0.145647 -2.52356e-21)
(0.819694 -0.0194446 1.54628e-22)
(0.819798 -0.136396 1.15674e-21)
(0.800848 -0.253138 -7.85558e-22)
(0.787962 -0.300427 2.90424e-22)
(0.781743 -0.23185 -3.00048e-22)
(0.783393 -0.167308 6.30473e-23)
(0.786678 0.0476955 -1.87088e-22)
(0.79283 0.140422 4.35538e-22)
(0.78861 0.236799 -6.11184e-23)
(0.80703 0.289861 2.64842e-23)
(0.764628 0.0838675 -2.43097e-22)
(0.873963 -0.313237 2.77082e-21)
(0.851536 -0.330894 -8.97103e-22)
(0.823384 -0.320085 -7.66552e-22)
(0.810128 -0.265923 -1.10149e-22)
(0.811937 -0.153304 3.03006e-22)
(0.820896 -0.0197231 -1.24742e-23)
(0.827218 0.131803 7.61596e-23)
(0.828892 0.249445 2.43366e-22)
(0.824782 0.322621 1.0267e-21)
(0.820785 0.329263 -3.64703e-22)
(0.814067 0.249468 -9.44489e-22)
(0.820151 0.146401 1.82785e-21)
(0.821625 -0.0185682 3.28398e-22)
(0.822041 -0.135318 -4.82466e-22)
(0.802894 -0.251967 -2.78027e-22)
(0.789274 -0.300041 6.91771e-22)
(0.782937 -0.231988 2.44884e-22)
(0.784502 -0.167858 4.71379e-23)
(0.78838 0.0470702 2.31964e-22)
(0.794922 0.140181 -1.1254e-22)
(0.790894 0.236389 2.25558e-22)
(0.809789 0.290351 -5.36865e-23)
(0.766717 0.0848043 -5.22463e-24)
(0.876831 -0.312202 -6.46468e-22)
(0.854322 -0.329432 2.90178e-22)
(0.825483 -0.319373 -6.41857e-22)
(0.811585 -0.266692 -4.5873e-22)
(0.813235 -0.155117 -1.84962e-22)
(0.822259 -0.021792 2.79657e-22)
(0.828824 0.130112 -2.90284e-22)
(0.830754 0.248524 3.65497e-22)
(0.82675 0.322439 -2.66516e-22)
(0.822566 0.329838 2.1269e-22)
(0.815566 0.25022 1.23721e-22)
(0.821707 0.147172 1.28677e-22)
(0.823602 -0.0176829 1.15494e-21)
(0.824347 -0.134225 1.18159e-21)
(0.805019 -0.250761 7.9722e-23)
(0.790653 -0.299634 -9.19536e-22)
(0.784185 -0.232128 8.78925e-23)
(0.785665 -0.16843 -1.7474e-22)
(0.790128 0.0464111 -3.75306e-22)
(0.797067 0.139923 4.25277e-22)
(0.793217 0.235961 1.68644e-23)
(0.812593 0.290844 1.92468e-23)
(0.768878 0.0857554 5.50773e-22)
(0.87974 -0.311173 -1.13461e-21)
(0.857171 -0.327952 -6.38464e-22)
(0.827637 -0.318627 1.805e-21)
(0.81306 -0.267454 -3.09092e-22)
(0.814538 -0.15696 -3.08537e-22)
(0.823642 -0.0239151 1.65038e-22)
(0.830465 0.12836 -5.76751e-23)
(0.832663 0.247557 -5.76345e-22)
(0.828769 0.32224 4.6733e-23)
(0.824399 0.330429 6.54902e-22)
(0.817109 0.250998 1.70521e-23)
(0.823298 0.14796 3.05239e-22)
(0.825623 -0.0167897 -2.08478e-22)
(0.826715 -0.133119 6.14094e-22)
(0.80722 -0.249523 2.06734e-21)
(0.792099 -0.299206 7.34252e-22)
(0.785488 -0.232269 2.24097e-22)
(0.78688 -0.169023 -6.00547e-23)
(0.791921 0.0457183 -1.61352e-22)
(0.799263 0.139648 -6.92612e-22)
(0.795579 0.235516 2.10096e-22)
(0.815444 0.291341 -5.23647e-24)
(0.771112 0.08672 1.52422e-22)
(0.882685 -0.310153 9.78488e-22)
(0.86008 -0.326458 -8.0919e-22)
(0.829847 -0.317846 -7.00117e-22)
(0.814553 -0.268205 -1.8055e-23)
(0.815845 -0.158833 1.26871e-22)
(0.825046 -0.026092 2.99671e-22)
(0.832137 0.126547 -1.0729e-22)
(0.834617 0.246545 5.07189e-22)
(0.830841 0.322022 5.89852e-22)
(0.826283 0.331034 3.60782e-22)
(0.818697 0.251801 6.49956e-22)
(0.824924 0.148765 -2.53089e-23)
(0.827688 -0.0158894 3.30528e-22)
(0.829141 -0.132 -2.45487e-21)
(0.809497 -0.248252 -2.05368e-21)
(0.793613 -0.298756 -8.95696e-22)
(0.786842 -0.232409 -1.72413e-22)
(0.788147 -0.169637 4.06941e-23)
(0.793757 0.0449921 -9.73203e-24)
(0.801511 0.139356 -5.59207e-23)
(0.797978 0.235053 -3.12358e-22)
(0.818338 0.29184 1.98325e-23)
(0.773416 0.0876977 -3.46914e-22)
(0.885663 -0.309141 8.93567e-23)
(0.863048 -0.324949 -1.97162e-21)
(0.832114 -0.317028 1.17755e-21)
(0.816064 -0.268944 -4.08225e-22)
(0.817155 -0.160734 2.57028e-22)
(0.826469 -0.0283227 -5.76098e-24)
(0.833842 0.124672 -1.7336e-22)
(0.836615 0.245485 1.86316e-22)
(0.832965 0.321786 -6.28832e-22)
(0.828218 0.331652 -1.57412e-21)
(0.82033 0.25263 -1.17932e-21)
(0.826585 0.149586 -2.1238e-21)
(0.829796 -0.0149828 7.80722e-22)
(0.831626 -0.13087 1.28596e-21)
(0.811849 -0.246949 6.88688e-22)
(0.795194 -0.298284 -2.18986e-22)
(0.788246 -0.23255 -2.07629e-22)
(0.789464 -0.170272 -6.89716e-23)
(0.795635 0.0442329 1.28393e-22)
(0.803809 0.139047 3.4334e-23)
(0.800413 0.234575 2.61339e-22)
(0.821274 0.29234 -9.21601e-25)
(0.775791 0.0886878 1.5511e-22)
(0.888672 -0.308139 -2.71067e-22)
(0.866071 -0.323427 1.54601e-21)
(0.834437 -0.316171 1.25287e-23)
(0.817596 -0.269665 -3.72349e-22)
(0.818464 -0.162661 -1.80623e-23)
(0.827911 -0.0306062 -2.04641e-22)
(0.83558 0.122736 8.0263e-23)
(0.838657 0.244378 -4.97291e-22)
(0.835139 0.321529 5.67225e-22)
(0.830205 0.332285 1.55936e-21)
(0.82201 0.253484 5.76741e-22)
(0.828283 0.150423 1.08336e-21)
(0.831946 -0.0140709 -8.6157e-22)
(0.834167 -0.12973 -9.1171e-23)
(0.814276 -0.245615 8.3936e-22)
(0.796842 -0.297789 9.37351e-22)
(0.7897 -0.232689 4.27558e-23)
(0.790831 -0.170926 2.62927e-22)
(0.797555 0.043441 1.15625e-22)
(0.806156 0.138722 1.72458e-22)
(0.802882 0.234079 -7.80685e-23)
(0.824252 0.292841 4.69455e-24)
(0.778235 0.0896898 -3.23279e-23)
(0.891707 -0.307144 -1.09319e-22)
(0.869147 -0.321891 -2.14943e-22)
(0.836816 -0.31527 2.14008e-23)
(0.819148 -0.270363 1.12443e-22)
(0.81977 -0.164607 1.18236e-22)
(0.829371 -0.0329385 7.16558e-23)
(0.837352 0.120741 7.21054e-23)
(0.840744 0.243225 4.24299e-23)
(0.837364 0.321252 1.12667e-22)
(0.832245 0.332929 1.33444e-22)
(0.823737 0.254362 -1.13962e-21)
(0.830017 0.151274 1.25772e-22)
(0.834137 -0.0131559 3.51097e-23)
(0.836762 -0.128582 -2.76644e-22)
(0.816775 -0.244249 -8.42987e-22)
(0.798557 -0.297268 -5.09392e-22)
(0.7912 -0.232825 3.79493e-22)
(0.792245 -0.171598 -1.39817e-22)
(0.799516 0.0426173 -7.81655e-23)
(0.808552 0.138382 4.94962e-23)
(0.805386 0.233568 1.99944e-22)
(0.827269 0.293342 -2.9246e-23)
(0.780748 0.0907029 -1.78901e-22)
(0.894767 -0.306154 -4.31716e-22)
(0.872272 -0.320341 -2.37544e-22)
(0.839252 -0.314328 5.3986e-22)
(0.820724 -0.271038 -2.4696e-22)
(0.821071 -0.166575 2.93471e-22)
(0.830848 -0.03532 -6.4653e-23)
(0.839162 0.118687 -1.16767e-22)
(0.842877 0.242024 1.45962e-22)
(0.839641 0.320954 -6.04812e-22)
(0.834337 0.333584 -1.84793e-22)
(0.825514 0.255263 -1.56879e-21)
(0.831791 0.15214 1.91273e-21)
(0.836369 -0.0122373 9.80264e-22)
(0.839411 -0.127426 -3.19037e-22)
(0.819346 -0.242851 2.48646e-22)
(0.800339 -0.296722 1.67367e-22)
(0.792746 -0.232958 -1.3732e-22)
(0.793706 -0.172288 1.61968e-22)
(0.801517 0.0417619 1.31016e-22)
(0.810997 0.138026 1.42914e-22)
(0.807922 0.233041 -3.36122e-22)
(0.830324 0.293842 4.96498e-24)
(0.783328 0.0917266 2.22226e-22)
(0.897847 -0.305194 -1.44327e-21)
(0.875445 -0.318803 2.10345e-21)
(0.841742 -0.313363 -9.10972e-22)
(0.822323 -0.271712 -9.80879e-23)
(0.822365 -0.168594 1.63901e-22)
(0.832339 -0.0377851 -4.22887e-23)
(0.841014 0.116551 3.76863e-23)
(0.845061 0.240766 1.27524e-22)
(0.841973 0.320631 -2.41669e-22)
(0.836484 0.334253 2.59741e-22)
(0.827344 0.256198 7.85752e-22)
(0.833605 0.153034 -1.36574e-21)
(0.83864 -0.0113017 -1.12827e-21)
(0.84211 -0.126252 8.1048e-22)
(0.821988 -0.241424 -2.16433e-22)
(0.802186 -0.296153 -1.34523e-22)
(0.794336 -0.233098 1.29884e-22)
(0.795212 -0.173006 -5.48395e-23)
(0.803558 0.0408685 -2.83633e-22)
(0.813491 0.137651 1.32274e-22)
(0.810492 0.232497 -2.93188e-23)
(0.833416 0.294342 -5.01413e-24)
(0.785975 0.0927603 -5.72282e-24)
(0.900943 -0.304317 -8.59383e-22)
(0.878663 -0.317313 -8.75271e-22)
(0.844287 -0.3124 1.25185e-21)
(0.823949 -0.272406 -5.08948e-22)
(0.82365 -0.170689 -3.65035e-24)
(0.833844 -0.0403775 7.98161e-23)
(0.842917 0.114293 -8.39721e-24)
(0.847308 0.239424 -9.9074e-23)
(0.844368 0.320285 -2.24255e-23)
(0.838693 0.334964 -3.50505e-22)
(0.829231 0.257206 7.66612e-22)
(0.835464 0.15399 6.89229e-22)
(0.840951 -0.0103344 3.01891e-23)
(0.844858 -0.125067 -6.84373e-22)
(0.824699 -0.23998 1.6824e-22)
(0.804099 -0.295571 -5.40964e-23)
(0.795968 -0.233253 -5.71704e-23)
(0.796763 -0.173761 7.50678e-23)