/*--------------------------------*- C++ -*----------------------------------*\
  =========                 |
  \\      /  F ield         | OpenFOAM: The Open Source CFD Toolbox
   \\    /   O peration     | Website:  https://openfoam.org
    \\  /    A nd           | Version:  7
     \\/     M anipulation  |
\*---------------------------------------------------------------------------*/
FoamFile
{
    version     2.0;
    format      ascii;
    class       volScalarField;
    location    "120";
    object      p;
}
// * * * * * * * * * * * * * * * * * * * * * * * * * * * * * * * * * * * * * //

dimensions      [0 2 -2 0 0 0 0];

internalField   nonuniform List<scalar> 
7156
(
-0.388621
-0.389252
-0.389639
-0.389943
-0.387308
-0.38809
-0.388564
-0.388938
-0.385999
-0.386932
-0.387492
-0.387937
-0.384706
-0.385788
-0.386432
-0.386945
-0.383436
-0.384665
-0.385391
-0.385973
-0.3822
-0.383572
-0.38438
-0.385027
-0.381007
-0.382519
-0.383405
-0.384116
-0.379867
-0.381514
-0.382475
-0.383248
-0.378789
-0.380566
-0.381599
-0.382431
-0.377783
-0.379683
-0.380785
-0.381674
-0.376858
-0.378873
-0.380041
-0.380983
-0.376022
-0.378146
-0.379374
-0.380367
-0.375283
-0.377507
-0.378792
-0.379832
-0.374649
-0.376964
-0.3783
-0.379384
-0.380281
-0.374126
-0.376523
-0.377906
-0.37903
-0.379962
-0.373722
-0.376191
-0.377615
-0.378775
-0.379739
-0.373441
-0.375971
-0.377431
-0.378622
-0.379616
-0.373289
-0.375869
-0.377359
-0.378578
-0.379598
-0.373269
-0.375888
-0.377402
-0.378644
-0.379686
-0.373385
-0.376031
-0.377562
-0.378823
-0.379885
-0.373638
-0.376299
-0.377842
-0.379116
-0.380194
-0.381091
-0.37403
-0.376694
-0.378242
-0.379524
-0.380614
-0.381525
-0.37456
-0.377214
-0.378761
-0.380048
-0.381145
-0.382068
-0.375228
-0.37786
-0.379399
-0.380684
-0.381786
-0.382717
-0.376032
-0.37863
-0.380154
-0.381433
-0.382535
-0.383471
-0.384284
-0.376969
-0.37952
-0.381024
-0.382291
-0.383388
-0.384327
-0.385145
-0.378034
-0.380527
-0.382003
-0.383254
-0.384343
-0.38528
-0.386102
-0.379224
-0.381647
-0.383089
-0.384317
-0.385394
-0.386327
-0.38715
-0.380532
-0.382874
-0.384276
-0.385477
-0.386537
-0.387461
-0.388282
-0.389014
-0.381952
-0.384202
-0.385558
-0.386727
-0.387765
-0.388678
-0.389494
-0.390225
-0.383477
-0.385626
-0.386929
-0.388061
-0.389073
-0.389969
-0.390777
-0.391504
-0.385099
-0.387138
-0.388382
-0.389472
-0.390453
-0.39133
-0.392125
-0.392846
-0.38681
-0.38873
-0.389911
-0.390953
-0.391899
-0.392751
-0.39353
-0.39424
-0.394873
-0.388602
-0.390395
-0.391508
-0.392497
-0.393403
-0.394226
-0.394984
-0.39568
-0.396302
-0.390465
-0.392126
-0.393165
-0.394097
-0.394958
-0.395747
-0.39648
-0.397157
-0.397764
-0.392391
-0.393913
-0.394875
-0.395745
-0.396556
-0.397306
-0.398009
-0.398662
-0.39925
-0.399746
-0.394371
-0.395751
-0.396631
-0.397435
-0.39819
-0.398896
-0.399563
-0.400187
-0.40075
-0.401224
-0.396396
-0.39763
-0.398426
-0.399158
-0.399853
-0.40051
-0.401135
-0.401723
-0.402256
-0.402702
-0.398458
-0.399545
-0.400252
-0.400909
-0.401539
-0.402141
-0.402719
-0.403265
-0.40376
-0.404171
-0.404457
-0.40055
-0.401487
-0.402104
-0.402682
-0.403242
-0.403782
-0.404306
-0.404804
-0.405255
-0.405625
-0.40587
-0.402663
-0.403452
-0.403975
-0.404471
-0.404956
-0.405429
-0.405893
-0.406335
-0.406734
-0.407055
-0.407252
-0.407269
-0.404792
-0.405433
-0.405861
-0.406271
-0.406676
-0.407077
-0.407473
-0.407853
-0.408192
-0.408456
-0.408598
-0.408558
-0.406932
-0.407426
-0.407757
-0.408078
-0.408399
-0.408721
-0.409043
-0.409353
-0.409625
-0.409824
-0.409901
-0.409797
-0.40944
-0.409076
-0.409426
-0.40966
-0.409888
-0.41012
-0.410358
-0.410599
-0.410831
-0.411029
-0.411154
-0.411159
-0.410982
-0.41055
-0.411222
-0.411431
-0.411567
-0.4117
-0.411839
-0.411986
-0.41214
-0.412287
-0.412401
-0.412445
-0.412368
-0.41211
-0.411597
-0.413367
-0.413439
-0.413476
-0.413511
-0.413552
-0.413605
-0.413665
-0.413719
-0.413742
-0.413695
-0.41353
-0.413182
-0.412578
-0.411629
-0.415509
-0.415447
-0.415386
-0.415321
-0.415261
-0.415212
-0.415172
-0.415127
-0.415051
-0.414906
-0.414643
-0.414198
-0.413495
-0.412447
-0.417648
-0.417457
-0.417297
-0.41713
-0.416965
-0.416811
-0.416664
-0.416512
-0.41633
-0.41608
-0.415711
-0.415161
-0.414352
-0.413197
-0.411593
-0.419784
-0.419469
-0.41921
-0.418939
-0.418666
-0.4184
-0.418141
-0.417876
-0.417581
-0.417218
-0.416737
-0.416073
-0.415152
-0.413883
-0.412165
-0.421919
-0.421484
-0.421126
-0.42075
-0.420365
-0.419984
-0.419608
-0.419224
-0.418809
-0.418326
-0.417725
-0.416942
-0.415901
-0.414512
-0.412674
-0.410274
-0.424057
-0.423504
-0.423048
-0.422565
-0.422065
-0.421566
-0.421066
-0.420558
-0.420017
-0.419408
-0.418681
-0.417772
-0.416605
-0.41509
-0.413126
-0.410602
-0.407402
-0.426199
-0.425534
-0.424979
-0.424387
-0.423771
-0.423148
-0.422522
-0.421883
-0.421211
-0.420471
-0.419612
-0.418571
-0.417272
-0.415626
-0.41353
-0.410877
-0.407552
-0.428352
-0.427577
-0.426924
-0.426222
-0.425485
-0.424737
-0.423979
-0.423207
-0.422399
-0.421521
-0.420524
-0.419347
-0.41791
-0.416126
-0.413893
-0.411104
-0.407649
-0.403423
-0.430521
-0.429637
-0.428886
-0.428072
-0.427214
-0.426336
-0.425444
-0.424533
-0.423585
-0.422565
-0.421427
-0.420107
-0.418528
-0.4166
-0.414224
-0.411293
-0.407701
-0.403348
-0.432711
-0.431721
-0.43087
-0.429944
-0.428962
-0.427952
-0.426923
-0.42587
-0.424777
-0.423613
-0.422328
-0.42086
-0.419133
-0.417056
-0.41453
-0.41145
-0.407711
-0.403221
-0.39791
-0.434928
-0.433833
-0.432883
-0.431843
-0.430735
-0.429591
-0.428421
-0.427224
-0.425984
-0.42467
-0.423234
-0.421615
-0.419734
-0.417502
-0.414819
-0.411581
-0.407686
-0.403045
-0.397596
-0.391317
-0.437181
-0.435979
-0.434929
-0.433774
-0.432538
-0.431259
-0.429947
-0.428602
-0.427212
-0.425745
-0.424156
-0.42238
-0.42034
-0.417946
-0.415098
-0.411692
-0.407629
-0.402823
-0.397217
-0.390792
-0.439475
-0.438166
-0.437014
-0.435743
-0.434379
-0.432962
-0.431505
-0.430012
-0.428469
-0.426847
-0.425099
-0.423163
-0.420959
-0.418395
-0.415373
-0.411789
-0.407544
-0.402557
-0.396774
-0.390177
-0.382828
-0.441819
-0.440401
-0.439146
-0.437756
-0.436262
-0.434706
-0.433104
-0.43146
-0.429762
-0.427982
-0.426073
-0.423971
-0.421596
-0.418856
-0.41565
-0.411876
-0.407436
-0.402251
-0.396269
-0.389476
-0.381925
-0.373611
-0.444219
-0.442689
-0.441329
-0.43982
-0.438194
-0.436498
-0.434749
-0.432953
-0.431099
-0.429158
-0.427084
-0.424811
-0.422259
-0.419334
-0.415934
-0.411956
-0.407306
-0.401905
-0.395706
-0.388693
-0.380915
-0.372363
-0.363501
-0.446683
-0.445037
-0.44357
-0.44194
-0.440181
-0.438344
-0.436447
-0.434497
-0.432485
-0.430381
-0.428138
-0.425689
-0.422953
-0.419833
-0.416227
-0.412032
-0.407156
-0.401522
-0.395085
-0.387833
-0.379809
-0.371004
-0.36182
-0.449217
-0.447451
-0.445874
-0.444121
-0.442228
-0.440249
-0.438204
-0.4361
-0.433928
-0.431658
-0.429241
-0.426611
-0.423681
-0.420356
-0.416532
-0.412106
-0.406987
-0.401103
-0.394411
-0.386902
-0.378618
-0.369551
-0.360055
-0.348987
-0.451829
-0.449936
-0.448247
-0.44637
-0.444342
-0.44222
-0.440025
-0.437766
-0.435432
-0.432993
-0.430399
-0.42758
-0.424449
-0.420907
-0.416851
-0.412179
-0.406801
-0.400649
-0.393685
-0.385905
-0.37735
-0.368019
-0.358226
-0.346981
-0.338368
-0.454523
-0.452498
-0.450694
-0.44869
-0.446526
-0.444261
-0.441916
-0.4395
-0.437002
-0.434391
-0.431614
-0.428599
-0.425257
-0.421487
-0.417185
-0.41225
-0.406596
-0.40016
-0.39291
-0.384847
-0.376014
-0.366421
-0.356348
-0.344947
-0.335792
-0.457306
-0.455142
-0.45322
-0.451087
-0.448785
-0.446376
-0.443881
-0.441307
-0.438643
-0.435856
-0.43289
-0.429671
-0.426106
-0.422095
-0.417532
-0.412318
-0.406372
-0.399637
-0.392088
-0.383732
-0.374619
-0.364767
-0.354433
-0.342895
-0.333284
-0.460182
-0.457872
-0.455829
-0.453566
-0.451125
-0.44857
-0.445923
-0.44319
-0.440358
-0.43739
-0.434229
-0.430796
-0.426998
-0.422731
-0.41789
-0.412382
-0.406128
-0.399079
-0.391219
-0.382565
-0.37317
-0.363066
-0.35249
-0.34083
-0.330836
-0.463156
-0.460692
-0.458524
-0.456128
-0.453547
-0.450847
-0.448047
-0.445153
-0.442149
-0.438995
-0.435631
-0.431974
-0.42793
-0.423392
-0.418259
-0.412439
-0.405861
-0.398486
-0.390306
-0.381348
-0.371673
-0.361324
-0.350523
-0.338756
-0.328443
-0.46623
-0.463605
-0.461309
-0.458778
-0.456055
-0.453208
-0.450255
-0.447197
-0.444017
-0.440672
-0.437096
-0.433205
-0.4289
-0.424076
-0.418633
-0.412485
-0.405569
-0.397856
-0.389348
-0.380083
-0.370131
-0.359546
-0.348538
-0.336674
-0.326094
-0.469407
-0.466613
-0.464185
-0.461518
-0.458652
-0.455657
-0.452548
-0.449324
-0.445964
-0.44242
-0.438624
-0.434485
-0.429905
-0.424779
-0.41901
-0.412518
-0.40525
-0.397187
-0.388346
-0.378773
-0.368548
-0.357736
-0.346535
-0.334584
-0.323782
-0.472688
-0.469718
-0.467155
-0.464349
-0.461339
-0.458195
-0.454928
-0.451535
-0.447989
-0.444239
-0.440211
-0.435812
-0.430942
-0.425496
-0.419383
-0.412532
-0.404899
-0.396479
-0.387299
-0.37742
-0.366927
-0.355895
-0.344516
-0.332484
-0.321497
-0.476075
-0.472921
-0.47022
-0.467273
-0.464117
-0.460822
-0.457395
-0.453829
-0.450092
-0.446126
-0.441855
-0.437181
-0.432004
-0.426222
-0.419749
-0.412522
-0.404513
-0.395728
-0.386207
-0.376022
-0.365267
-0.354026
-0.34248
-0.330374
-0.319231
-0.479567
-0.476222
-0.47338
-0.47029
-0.466987
-0.463539
-0.459949
-0.456205
-0.452269
-0.448079
-0.443551
-0.438587
-0.433086
-0.426949
-0.420099
-0.412484
-0.404088
-0.394931
-0.385069
-0.374581
-0.36357
-0.352127
-0.340425
-0.32825
-0.316974
-0.483163
-0.47962
-0.476634
-0.4734
-0.469948
-0.466345
-0.462589
-0.458662
-0.454519
-0.450093
-0.445294
-0.440024
-0.43418
-0.427672
-0.420428
-0.412412
-0.403619
-0.394087
-0.383882
-0.373095
-0.361836
-0.350199
-0.33835
-0.326108
-0.314718
-0.486861
-0.483114
-0.479982
-0.476601
-0.472999
-0.469239
-0.465313
-0.461196
-0.456838
-0.452162
-0.447078
-0.441484
-0.43528
-0.428381
-0.420729
-0.412299
-0.403103
-0.393192
-0.382645
-0.371565
-0.360063
-0.348239
-0.336252
-0.323947
-0.312457
-0.490659
-0.486702
-0.483421
-0.479893
-0.476138
-0.472218
-0.468118
-0.463804
-0.459219
-0.454282
-0.448896
-0.442959
-0.436376
-0.42907
-0.420995
-0.412139
-0.402533
-0.392242
-0.381357
-0.369987
-0.35825
-0.346247
-0.334128
-0.321761
-0.310182
-0.494552
-0.49038
-0.486949
-0.483271
-0.479362
-0.47528
-0.471
-0.466481
-0.461659
-0.456445
-0.45074
-0.444442
-0.437461
-0.42973
-0.421216
-0.411927
-0.401906
-0.391234
-0.380014
-0.368361
-0.356395
-0.344219
-0.331974
-0.319547
-0.307887
-0.498537
-0.494145
-0.490562
-0.486734
-0.482669
-0.47842
-0.473954
-0.469222
-0.464149
-0.458642
-0.4526
-0.445921
-0.438523
-0.430351
-0.421387
-0.411655
-0.401217
-0.390165
-0.378613
-0.366683
-0.354495
-0.342153
-0.329788
-0.317301
-0.305567
-0.502607
-0.497991
-0.494256
-0.490277
-0.486053
-0.481634
-0.476976
-0.472019
-0.466682
-0.460866
-0.454466
-0.447387
-0.439554
-0.430925
-0.421499
-0.411317
-0.400459
-0.38903
-0.377152
-0.364951
-0.352549
-0.340046
-0.327565
-0.315019
-0.303214
-0.506755
-0.501914
-0.498025
-0.493893
-0.48951
-0.484916
-0.480057
-0.474865
-0.469249
-0.463106
-0.456329
-0.44883
-0.440542
-0.431441
-0.421543
-0.410907
-0.399628
-0.387825
-0.375627
-0.363162
-0.350552
-0.337894
-0.3253
-0.312697
-0.300824
-0.510976
-0.505906
-0.501863
-0.497579
-0.493033
-0.488259
-0.483192
-0.477752
-0.471841
-0.465351
-0.458177
-0.450237
-0.441477
-0.43189
-0.421511
-0.410418
-0.398719
-0.386546
-0.374034
-0.361313
-0.348501
-0.335693
-0.322991
-0.31033
-0.298392
-0.51526
-0.50996
-0.505764
-0.501326
-0.496615
-0.491655
-0.486371
-0.480669
-0.474446
-0.467589
-0.459998
-0.451596
-0.442349
-0.432263
-0.421396
-0.409842
-0.397727
-0.385189
-0.37237
-0.3594
-0.346393
-0.33344
-0.320632
-0.307914
-0.295912
-0.519598
-0.514068
-0.509718
-0.505127
-0.500248
-0.495097
-0.489584
-0.483607
-0.477053
-0.469809
-0.461778
-0.452897
-0.443144
-0.43255
-0.421188
-0.409174
-0.396645
-0.38375
-0.370631
-0.357419
-0.344223
-0.33113
-0.31822
-0.305445
-0.293381
-0.523979
-0.51822
-0.513719
-0.508973
-0.503923
-0.498573
-0.492821
-0.486552
-0.479649
-0.471996
-0.463506
-0.454125
-0.443853
-0.43274
-0.42088
-0.408407
-0.395469
-0.382222
-0.368812
-0.355366
-0.341988
-0.328759
-0.31575
-0.30292
-0.290793
-0.528394
-0.522406
-0.517754
-0.512854
-0.50763
-0.502074
-0.49607
-0.489493
-0.48222
-0.474138
-0.465166
-0.455269
-0.444464
-0.432824
-0.420464
-0.407533
-0.394193
-0.380603
-0.366909
-0.353236
-0.339682
-0.326322
-0.313218
-0.300332
-0.288144
-0.532828
-0.526614
-0.521813
-0.516759
-0.511356
-0.505587
-0.499318
-0.492416
-0.484753
-0.47622
-0.466746
-0.456315
-0.444965
-0.432792
-0.419932
-0.406548
-0.392811
-0.378886
-0.364918
-0.351026
-0.337302
-0.323816
-0.310618
-0.297679
-0.28543
-0.525885
-0.520676
-0.515091
-0.509099
-0.502551
-0.495305
-0.487231
-0.478225
-0.468231
-0.45725
-0.445346
-0.432635
-0.419275
-0.405443
-0.391318
-0.377067
-0.362833
-0.34873
-0.334843
-0.321234
-0.307948
-0.294956
-0.282647
-0.51882
-0.512595
-0.505753
-0.498145
-0.489639
-0.480138
-0.469604
-0.45806
-0.445593
-0.432343
-0.418486
-0.404213
-0.389709
-0.375141
-0.36065
-0.346343
-0.3323
-0.318574
-0.305201
-0.292158
-0.279791
-0.50092
-0.49196
-0.481945
-0.470853
-0.458733
-0.445696
-0.431906
-0.417557
-0.40285
-0.387977
-0.373103
-0.358364
-0.343862
-0.329668
-0.31583
-0.302374
-0.289283
-0.276858
-0.471963
-0.459256
-0.445645
-0.431316
-0.416481
-0.401349
-0.386116
-0.370947
-0.35597
-0.341281
-0.326943
-0.312997
-0.299462
-0.286324
-0.273845
-0.430564
-0.415249
-0.399703
-0.384122
-0.368668
-0.353462
-0.338594
-0.324119
-0.310071
-0.296461
-0.28328
-0.270747
-0.36626
-0.350837
-0.335798
-0.321192
-0.307047
-0.293367
-0.280144
-0.267561
-0.30392
-0.290175
-0.276915
-0.264283
-0.342971
-0.328746
-0.315075
-0.301941
-0.289486
-0.406999
-0.391004
-0.375416
-0.360307
-0.345718
-0.331664
-0.318137
-0.305118
-0.292788
-0.456063
-0.440297
-0.424373
-0.408507
-0.392867
-0.377579
-0.362723
-0.348347
-0.334472
-0.321098
-0.308201
-0.296002
-0.509766
-0.497759
-0.48466
-0.470635
-0.455903
-0.440706
-0.425284
-0.409851
-0.394582
-0.379606
-0.365014
-0.350861
-0.337174
-0.323962
-0.311194
-0.299133
-0.53426
-0.526116
-0.516989
-0.506768
-0.495422
-0.483004
-0.469649
-0.455549
-0.440931
-0.426024
-0.411038
-0.396151
-0.381501
-0.367185
-0.353265
-0.339776
-0.326733
-0.314101
-0.302183
-0.543036
-0.536592
-0.529599
-0.521876
-0.513258
-0.503623
-0.492918
-0.481168
-0.468477
-0.455012
-0.44098
-0.426597
-0.412071
-0.397581
-0.383269
-0.36924
-0.355563
-0.342281
-0.329415
-0.316926
-0.305158
-0.554662
-0.549267
-0.54367
-0.537778
-0.531573
-0.524891
-0.517564
-0.509427
-0.500352
-0.490265
-0.479166
-0.46713
-0.454299
-0.440858
-0.42701
-0.412956
-0.398875
-0.384913
-0.371183
-0.35776
-0.344693
-0.332013
-0.319673
-0.308061
-0.555762
-0.548926
-0.543679
-0.538235
-0.532525
-0.526547
-0.520157
-0.513199
-0.505516
-0.496972
-0.487479
-0.477012
-0.465621
-0.45342
-0.440573
-0.427267
-0.413696
-0.400036
-0.386438
-0.373017
-0.359859
-0.347017
-0.33453
-0.322347
-0.310896
-0.549807
-0.543213
-0.538118
-0.532827
-0.527293
-0.521529
-0.515412
-0.508801
-0.501543
-0.493502
-0.484575
-0.47472
-0.46396
-0.452384
-0.440131
-0.427374
-0.414296
-0.401069
-0.387846
-0.374748
-0.361864
-0.349256
-0.336971
-0.324951
-0.313667
-0.543886
-0.537537
-0.532597
-0.527459
-0.522096
-0.516536
-0.510675
-0.504385
-0.497525
-0.489957
-0.48157
-0.472304
-0.462159
-0.451199
-0.43954
-0.427336
-0.41476
-0.401978
-0.389142
-0.376377
-0.363779
-0.351414
-0.33934
-0.327489
-0.316378
-0.538013
-0.531911
-0.527128
-0.522144
-0.516948
-0.511582
-0.505959
-0.499969
-0.49348
-0.486355
-0.47848
-0.469779
-0.46023
-0.449875
-0.438806
-0.427159
-0.415091
-0.402764
-0.390327
-0.377908
-0.365607
-0.353495
-0.34164
-0.329966
-0.319034
-0.5322
-0.526348
-0.521724
-0.516894
-0.511861
-0.506679
-0.501281
-0.495569
-0.489424
-0.482714
-0.475321
-0.467157
-0.458185
-0.448421
-0.437937
-0.426847
-0.415295
-0.403433
-0.391406
-0.379344
-0.367351
-0.355503
-0.343875
-0.332386
-0.321638
-0.52646
-0.520858
-0.516395
-0.511719
-0.506846
-0.501841
-0.496653
-0.491199
-0.485372
-0.479048
-0.472107
-0.464455
-0.456036
-0.446847
-0.436939
-0.426406
-0.415374
-0.403985
-0.39238
-0.380687
-0.369013
-0.357439
-0.346048
-0.334751
-0.324195
-0.520803
-0.515452
-0.511151
-0.506629
-0.501913
-0.497079
-0.492087
-0.486873
-0.48134
-0.475373
-0.468855
-0.461684
-0.453794
-0.445164
-0.435821
-0.425841
-0.415332
-0.404424
-0.393251
-0.381939
-0.370598
-0.359308
-0.348165
-0.337067
-0.326709
-0.515238
-0.510137
-0.506001
-0.501633
-0.497072
-0.492401
-0.487595
-0.482602
-0.47734
-0.471703
-0.465577
-0.45886
-0.451473
-0.44338
-0.43459
-0.425157
-0.415173
-0.404753
-0.394022
-0.383103
-0.372105
-0.361112
-0.350226
-0.339337
-0.329185
-0.509774
-0.504923
-0.500951
-0.496738
-0.49233
-0.487817
-0.483186
-0.478399
-0.473386
-0.468051
-0.462289
-0.455994
-0.449084
-0.441507
-0.433254
-0.424361
-0.4149
-0.404972
-0.394693
-0.384179
-0.373538
-0.362853
-0.352236
-0.341564
-0.331627
-0.504418
-0.499815
-0.496008
-0.49195
-0.487694
-0.483333
-0.478868
-0.474271
-0.469487
-0.46443
-0.459002
-0.453101
-0.446638
-0.439553
-0.43182
-0.423456
-0.414517
-0.405085
-0.395266
-0.385168
-0.374896
-0.364534
-0.354197
-0.343752
-0.334039
-0.499177
-0.49482
-0.491178
-0.487275
-0.483168
-0.478956
-0.474648
-0.470228
-0.465653
-0.46085
-0.455729
-0.450192
-0.444148
-0.437529
-0.430297
-0.42245
-0.414027
-0.405094
-0.395742
-0.386071
-0.376182
-0.366155
-0.356112
-0.345904
-0.336427
-0.494056
-0.489942
-0.486465
-0.482717
-0.478759
-0.474691
-0.470532
-0.466277
-0.461894
-0.457322
-0.452481
-0.447278
-0.441624
-0.435445
-0.428692
-0.421348
-0.413433
-0.404999
-0.396121
-0.386888
-0.377396
-0.367717
-0.357983
-0.348023
-0.338797
-0.48906
-0.485186
-0.481873
-0.478279
-0.474468
-0.470542
-0.466525
-0.462424
-0.458217
-0.453855
-0.449267
-0.44437
-0.439077
-0.433311
-0.427014
-0.420156
-0.412741
-0.404804
-0.396404
-0.38762
-0.378536
-0.369223
-0.359811
-0.350112
-0.341152
-0.484193
-0.480556
-0.477406
-0.473965
-0.4703
-0.466511
-0.462631
-0.458674
-0.454628
-0.450455
-0.446097
-0.441479
-0.436518
-0.431136
-0.42527
-0.41888
-0.411953
-0.404509
-0.396592
-0.388264
-0.379604
-0.37067
-0.361599
-0.352174
-0.3435
-0.479458
-0.476053
-0.473066
-0.469777
-0.466256
-0.462602
-0.458853
-0.45503
-0.451132
-0.447131
-0.44298
-0.438613
-0.433955
-0.42893
-0.42347
-0.417527
-0.411075
-0.404117
-0.396683
-0.388822
-0.380598
-0.37206
-0.363348
-0.354212
-0.345847
-0.474857
-0.471681
-0.468853
-0.465716
-0.462337
-0.458814
-0.455191
-0.451495
-0.447732
-0.443887
-0.439921
-0.435781
-0.431399
-0.426702
-0.421621
-0.416103
-0.41011
-0.403631
-0.39668
-0.389291
-0.381516
-0.373392
-0.365058
-0.356227
-0.348198
-0.470392
-0.467441
-0.464771
-0.461783
-0.458544
-0.45515
-0.451648
-0.448071
-0.444432
-0.440727
-0.436928
-0.432991
-0.428857
-0.42446
-0.419732
-0.414615
-0.409063
-0.403052
-0.396582
-0.38967
-0.382357
-0.374664
-0.36673
-0.358222
-0.350563
-0.466065
-0.463334
-0.46082
-0.457978
-0.454877
-0.451609
-0.448224
-0.444758
-0.441235
-0.437655
-0.434004
-0.430248
-0.426337
-0.422213
-0.417811
-0.41307
-0.40794
-0.402385
-0.39639
-0.38996
-0.383119
-0.375873
-0.368363
-0.360198
-0.352949
-0.461877
-0.459362
-0.457
-0.454303
-0.451336
-0.448191
-0.444918
-0.441558
-0.43814
-0.434674
-0.431155
-0.427558
-0.423847
-0.419969
-0.415865
-0.411476
-0.406746
-0.401631
-0.396105
-0.390157
-0.383799
-0.377018
-0.369956
-0.362157
-0.355364
-0.45783
-0.455524
-0.453311
-0.450756
-0.447921
-0.444895
-0.441729
-0.43847
-0.435149
-0.431785
-0.428382
-0.424927
-0.421392
-0.417735
-0.413903
-0.40984
-0.405487
-0.400796
-0.395729
-0.390262
-0.384395
-0.378095
-0.371508
-0.364097
-0.357818
-0.453923
-0.451822
-0.449755
-0.447337
-0.444631
-0.44172
-0.438658
-0.435492
-0.432261
-0.428989
-0.425689
-0.422359
-0.418979
-0.415519
-0.411933
-0.408169
-0.40417
-0.399882
-0.395262
-0.390272
-0.384902
-0.379099
-0.373016
-0.36602
-0.36032
-0.450159
-0.448257
-0.446332
-0.444047
-0.441465
-0.438666
-0.435702
-0.432625
-0.429477
-0.426288
-0.423079
-0.419856
-0.416613
-0.413326
-0.409961
-0.406471
-0.402801
-0.398897
-0.394708
-0.390189
-0.385319
-0.380027
-0.374475
-0.367922
-0.36288
-0.446538
-0.444829
-0.44304
-0.440885
-0.438423
-0.435731
-0.432862
-0.429868
-0.426795
-0.42368
-0.420551
-0.417423
-0.414298
-0.411165
-0.407997
-0.404755
-0.401389
-0.397845
-0.394069
-0.390011
-0.385641
-0.380871
-0.375881
-0.369801
-0.365506
-0.443062
-0.441539
-0.439882
-0.437851
-0.435504
-0.432914
-0.430134
-0.427219
-0.424216
-0.421168
-0.418108
-0.415061
-0.412039
-0.409039
-0.406046
-0.403027
-0.39994
-0.396733
-0.393351
-0.389739
-0.385866
-0.381626
-0.377225
-0.371649
-0.439731
-0.438387
-0.436857
-0.434945
-0.432708
-0.430215
-0.42752
-0.424678
-0.421739
-0.41875
-0.415751
-0.412774
-0.40984
-0.406957
-0.404117
-0.401298
-0.398464
-0.395568
-0.392558
-0.389375
-0.38599
-0.382282
-0.378497
-0.436548
-0.435375
-0.433965
-0.432167
-0.430035
-0.427634
-0.425018
-0.422244
-0.419363
-0.416427
-0.413482
-0.410565
-0.407706
-0.404922
-0.402216
-0.399575
-0.39697
-0.394359
-0.391695
-0.388922
-0.38601
-0.382833
-0.433514
-0.432504
-0.431208
-0.429517
-0.427483
-0.425169
-0.422628
-0.419917
-0.41709
-0.414201
-0.411301
-0.408435
-0.40564
-0.402942
-0.400352
-0.397867
-0.395467
-0.393116
-0.390772
-0.388382
-0.385924
-0.383267
-0.430632
-0.429774
-0.428586
-0.426995
-0.425055
-0.422822
-0.42035
-0.417697
-0.414918
-0.412071
-0.409211
-0.406389
-0.403648
-0.401022
-0.398533
-0.396184
-0.393965
-0.391848
-0.389796
-0.387761
-0.385732
-0.427902
-0.427187
-0.426099
-0.424603
-0.422749
-0.420592
-0.418185
-0.415585
-0.41285
-0.410041
-0.407215
-0.404429
-0.401733
-0.399169
-0.396765
-0.394535
-0.392475
-0.390567
-0.388778
-0.387067
-0.425327
-0.424743
-0.423748
-0.422339
-0.420566
-0.418479
-0.416132
-0.413581
-0.410887
-0.40811
-0.405314
-0.402559
-0.399901
-0.397389
-0.395058
-0.39293
-0.39101
-0.389285
-0.38773
-0.38631
-0.422909
-0.422445
-0.421534
-0.420206
-0.418507
-0.416485
-0.414193
-0.411688
-0.409029
-0.406282
-0.403512
-0.400783
-0.398158
-0.395689
-0.39342
-0.39138
-0.389581
-0.388017
-0.386667
-0.420648
-0.420291
-0.419457
-0.418203
-0.416572
-0.41461
-0.412369
-0.409905
-0.40728
-0.40456
-0.401812
-0.399106
-0.396507
-0.394075
-0.39186
-0.389895
-0.388201
-0.386776
-0.418547
-0.418283
-0.417518
-0.416329
-0.414761
-0.412854
-0.41066
-0.408235
-0.405641
-0.402945
-0.400218
-0.397532
-0.394957
-0.392557
-0.390386
-0.388486
-0.386882
-0.385578
-0.416605
-0.416421
-0.415715
-0.414586
-0.413074
-0.411218
-0.409067
-0.406678
-0.404114
-0.401441
-0.398734
-0.396066
-0.393512
-0.391139
-0.389008
-0.387165
-0.385639
-0.414823
-0.414703
-0.41405
-0.412973
-0.411511
-0.409701
-0.407591
-0.405237
-0.4027
-0.40005
-0.397362
-0.394713
-0.392178
-0.389831
-0.387735
-0.385941
-0.384483
-0.413199
-0.413129
-0.412519
-0.411488
-0.410071
-0.408304
-0.406232
-0.40391
-0.401401
-0.398775
-0.396106
-0.393475
-0.390961
-0.388638
-0.386574
-0.384825
-0.411732
-0.411697
-0.411122
-0.410129
-0.408753
-0.407025
-0.404989
-0.4027
-0.400219
-0.397616
-0.394969
-0.392358
-0.389865
-0.387566
-0.385534
-0.41042
-0.410404
-0.409856
-0.408895
-0.407555
-0.405863
-0.403862
-0.401604
-0.399152
-0.396576
-0.393952
-0.391364
-0.388894
-0.386622
-0.384622
-0.409257
-0.409248
-0.408717
-0.407783
-0.406474
-0.404815
-0.402848
-0.400623
-0.398201
-0.395653
-0.393057
-0.390495
-0.388052
-0.385809
-0.408241
-0.408223
-0.407703
-0.40679
-0.405508
-0.40388
-0.401945
-0.399753
-0.397364
-0.394848
-0.392283
-0.389752
-0.38734
-0.385131
-0.407365
-0.407325
-0.406809
-0.405911
-0.404652
-0.403053
-0.401151
-0.398993
-0.396639
-0.394159
-0.39163
-0.389135
-0.38676
-0.406624
-0.406549
-0.40603
-0.405141
-0.403902
-0.40233
-0.400461
-0.398339
-0.396024
-0.393583
-0.391094
-0.388641
-0.386309
-0.406009
-0.405889
-0.405359
-0.404476
-0.403253
-0.401708
-0.399871
-0.397787
-0.395513
-0.393117
-0.390675
-0.38827
-0.405513
-0.405337
-0.404791
-0.40391
-0.402701
-0.40118
-0.399376
-0.397332
-0.395103
-0.392756
-0.390366
-0.388016
-0.405127
-0.404886
-0.40432
-0.403436
-0.402238
-0.400741
-0.398972
-0.396969
-0.394789
-0.392495
-0.390164
-0.387875
-0.404843
-0.404528
-0.403937
-0.403047
-0.401859
-0.400386
-0.398651
-0.396692
-0.394564
-0.392329
-0.390062
-0.404649
-0.404256
-0.403637
-0.402738
-0.401558
-0.400107
-0.398407
-0.396495
-0.394422
-0.392251
-0.390054
-0.404538
-0.40406
-0.40341
-0.4025
-0.401327
-0.399899
-0.398235
-0.396372
-0.394358
-0.392255
-0.404497
-0.403933
-0.403249
-0.402327
-0.401159
-0.399754
-0.398128
-0.396315
-0.394364
-0.392334
-0.404518
-0.403865
-0.403146
-0.402211
-0.401048
-0.399666
-0.398078
-0.396319
-0.394433
-0.39248
-0.404591
-0.403847
-0.403094
-0.402145
-0.400987
-0.399628
-0.39808
-0.396375
-0.394558
-0.404704
-0.403873
-0.403084
-0.402121
-0.400969
-0.399633
-0.398127
-0.396479
-0.394733
-0.404849
-0.403931
-0.403108
-0.402133
-0.400986
-0.399676
-0.398211
-0.396622
-0.394951
-0.405016
-0.404015
-0.40316
-0.402173
-0.401033
-0.399748
-0.398328
-0.396799
-0.405196
-0.404117
-0.403231
-0.402234
-0.401102
-0.399844
-0.398469
-0.397003
-0.40538
-0.404228
-0.403314
-0.402309
-0.401188
-0.399958
-0.398629
-0.397227
-0.405559
-0.40434
-0.403403
-0.402392
-0.401283
-0.400084
-0.398802
-0.397465
-0.405726
-0.404448
-0.40349
-0.402477
-0.401382
-0.400215
-0.398983
-0.405873
-0.404543
-0.403569
-0.402557
-0.401479
-0.400345
-0.399164
-0.405992
-0.404619
-0.403634
-0.402626
-0.401567
-0.40047
-0.39934
-0.406078
-0.40467
-0.403679
-0.40268
-0.401643
-0.400583
-0.406124
-0.40469
-0.403699
-0.402711
-0.4017
-0.400679
-0.406123
-0.404674
-0.403687
-0.402716
-0.401733
-0.400754
-0.406071
-0.404617
-0.403639
-0.402689
-0.401737
-0.400801
-0.405964
-0.404513
-0.403552
-0.402626
-0.401709
-0.400818
-0.405796
-0.40436
-0.40342
-0.402523
-0.401643
-0.405564
-0.404153
-0.403239
-0.402376
-0.401537
-0.405264
-0.403889
-0.403007
-0.402181
-0.401385
-0.404895
-0.403565
-0.402721
-0.401936
-0.401186
-0.404454
-0.403179
-0.402379
-0.401639
-0.400937
-0.40394
-0.40273
-0.401978
-0.401287
-0.400635
-0.403353
-0.402217
-0.401518
-0.400879
-0.400281
-0.402691
-0.401639
-0.400998
-0.400415
-0.401956
-0.400996
-0.400418
-0.399894
-0.40115
-0.40029
-0.399779
-0.399315
-0.400273
-0.399523
-0.399081
-0.398681
-0.399329
-0.398695
-0.398328
-0.397993
-0.398322
-0.397811
-0.39752
-0.397252
-0.397256
-0.396873
-0.396662
-0.396463
-0.396135
-0.395887
-0.395757
-0.395629
-0.394965
-0.394856
-0.39481
-0.394753
-0.393753
-0.393787
-0.393826
-0.393841
-0.392505
-0.392685
-0.392811
-0.392897
-0.391228
-0.391557
-0.39177
-0.391929
-0.389931
-0.39041
-0.39071
-0.390942
-0.247875
-0.251073
-0.254189
-0.257224
-0.260181
-0.263064
-0.265873
-0.268613
-0.271284
-0.27389
-0.276433
-0.278915
-0.281337
-0.283702
-0.286012
-0.288267
-0.29047
-0.292622
-0.294725
-0.29678
-0.29879
-0.300756
-0.302682
-0.304571
-0.306429
-0.30826
-0.310074
-0.311881
-0.313693
-0.229804
-0.232906
-0.235939
-0.238904
-0.241803
-0.244638
-0.247413
-0.250127
-0.252785
-0.255388
-0.257938
-0.260438
-0.26289
-0.265298
-0.267663
-0.269989
-0.272279
-0.274537
-0.276766
-0.278972
-0.281158
-0.283331
-0.285496
-0.287661
-0.289834
-0.292024
-0.29424
-0.296496
-0.298803
-0.213068
-0.21605
-0.218974
-0.221841
-0.224653
-0.227412
-0.230119
-0.232776
-0.235385
-0.237948
-0.240466
-0.242941
-0.245376
-0.247773
-0.250133
-0.252459
-0.254753
-0.257018
-0.259257
-0.261472
-0.263667
-0.265845
-0.26801
-0.270164
-0.272313
-0.274461
-0.276613
-0.278774
-0.280949
-0.197634
-0.200481
-0.203279
-0.20603
-0.208733
-0.211392
-0.214006
-0.216577
-0.219107
-0.221597
-0.224047
-0.226461
-0.228838
-0.231181
-0.23349
-0.235769
-0.238017
-0.240237
-0.242432
-0.244601
-0.246749
-0.248877
-0.250987
-0.253083
-0.255167
-0.257244
-0.259317
-0.261391
-0.263471
-0.265564
-0.183362
-0.186069
-0.188735
-0.191359
-0.193944
-0.196491
-0.199
-0.201471
-0.203908
-0.206309
-0.208677
-0.211013
-0.213317
-0.215591
-0.217836
-0.220053
-0.222243
-0.224409
-0.226551
-0.22867
-0.23077
-0.23285
-0.234914
-0.236963
-0.239
-0.241027
-0.243047
-0.245062
-0.247077
-0.249095
-0.170145
-0.17271
-0.175239
-0.177733
-0.180194
-0.182622
-0.185017
-0.187381
-0.189715
-0.192018
-0.194293
-0.196539
-0.198757
-0.200949
-0.203116
-0.205257
-0.207375
-0.20947
-0.211543
-0.213596
-0.215628
-0.217642
-0.219639
-0.221619
-0.223585
-0.225538
-0.227479
-0.229411
-0.231334
-0.233252
-0.157886
-0.160308
-0.162701
-0.165064
-0.167398
-0.169705
-0.171983
-0.174235
-0.17646
-0.17866
-0.180834
-0.182983
-0.185109
-0.187211
-0.189291
-0.191349
-0.193385
-0.195401
-0.197396
-0.199372
-0.20133
-0.203271
-0.205194
-0.207101
-0.208994
-0.210872
-0.212737
-0.214591
-0.216434
-0.218268
-0.146501
-0.148784
-0.151042
-0.153275
-0.155483
-0.157668
-0.159828
-0.161966
-0.164081
-0.166174
-0.168245
-0.170295
-0.172324
-0.174333
-0.176322
-0.178291
-0.180242
-0.182174
-0.184089
-0.185986
-0.187866
-0.18973
-0.191578
-0.193411
-0.195229
-0.197034
-0.198825
-0.200604
-0.20237
-0.204126
-0.135916
-0.138064
-0.140191
-0.142296
-0.144381
-0.146445
-0.148489
-0.150513
-0.152518
-0.154504
-0.156472
-0.158421
-0.160352
-0.162265
-0.164162
-0.166041
-0.167904
-0.16975
-0.171581
-0.173397
-0.175197
-0.176983
-0.178754
-0.180512
-0.182255
-0.183986
-0.185704
-0.187409
-0.189103
-0.190785
-0.126066
-0.128084
-0.130084
-0.132066
-0.134031
-0.135977
-0.137907
-0.13982
-0.141717
-0.143597
-0.145461
-0.14731
-0.149143
-0.150962
-0.152765
-0.154554
-0.156329
-0.158089
-0.159836
-0.161569
-0.163289
-0.164996
-0.166691
-0.168372
-0.170042
-0.1717
-0.173346
-0.174981
-0.176604
-0.178217
-0.116891
-0.118785
-0.120664
-0.122527
-0.124376
-0.126209
-0.128028
-0.129833
-0.131624
-0.133401
-0.135165
-0.136915
-0.138652
-0.140376
-0.142088
-0.143787
-0.145474
-0.147149
-0.148812
-0.150463
-0.152104
-0.153732
-0.15535
-0.156957
-0.158553
-0.160139
-0.161714
-0.16328
-0.164835
-0.16638
-0.108338
-0.110114
-0.111877
-0.113627
-0.115365
-0.11709
-0.118802
-0.120503
-0.122192
-0.123869
-0.125535
-0.127189
-0.128832
-0.130465
-0.132086
-0.133698
-0.135298
-0.136889
-0.13847
-0.14004
-0.141601
-0.143153
-0.144695
-0.146228
-0.147751
-0.149266
-0.150772