/*--------------------------------*- C++ -*----------------------------------*\
  =========                 |
  \\      /  F ield         | OpenFOAM: The Open Source CFD Toolbox
   \\    /   O peration     | Website:  https://openfoam.org
    \\  /    A nd           | Version:  7
     \\/     M anipulation  |
\*---------------------------------------------------------------------------*/
FoamFile
{
    version     2.0;
    format      ascii;
    class       volScalarField;
    location    "280";
    object      p;
}
// * * * * * * * * * * * * * * * * * * * * * * * * * * * * * * * * * * * * * //

dimensions      [0 2 -2 0 0 0 0];

internalField   nonuniform List<scalar> 
7156
(
-0.109403
-0.123335
-0.112375
-0.101683
-0.126286
-0.115013
-0.104302
-0.0938498
-0.129503
-0.11755
-0.106563
-0.0961107
-0.085906
-0.132948
-0.120333
-0.10868
-0.0979895
-0.0878045
-0.0778554
-0.15113
-0.136657
-0.123322
-0.111023
-0.0996811
-0.0892972
-0.0793879
-0.0697017
-0.156036
-0.140675
-0.126547
-0.11355
-0.101579
-0.0905584
-0.0804908
-0.0708655
-0.0614493
-0.161371
-0.145047
-0.130054
-0.116285
-0.103637
-0.0920061
-0.0813172
-0.0715754
-0.062242
-0.0531025
-0.167182
-0.149815
-0.133883
-0.119273
-0.105876
-0.0935897
-0.0823102
-0.0719633
-0.0625565
-0.0535228
-0.0446662
-0.173514
-0.155027
-0.138077
-0.122553
-0.108339
-0.0953275
-0.0834152
-0.0724978
-0.062503
-0.0534401
-0.0447135
-0.0361457
-0.180397
-0.160724
-0.14268
-0.126165
-0.111063
-0.0972601
-0.0846468
-0.0731203
-0.0625757
-0.0529428
-0.0442324
-0.0358204
-0.0275466
-0.18784
-0.166939
-0.147734
-0.130151
-0.114086
-0.0994216
-0.0860433
-0.0738411
-0.062712
-0.0525509
-0.0432897
-0.0349404
-0.02685
-0.0188755
-0.173682
-0.153272
-0.134554
-0.117449
-0.101849
-0.0876374
-0.074697
-0.0629181
-0.0521979
-0.0424309
-0.0335509
-0.0255712
-0.0178096
-0.0101397
-0.180915
-0.159306
-0.139407
-0.121195
-0.104584
-0.0894649
-0.075719
-0.0632293
-0.0518859
-0.0415858
-0.0322232
-0.0237343
-0.0161326
-0.00870735
-0.00134762
-0.188516
-0.165801
-0.144724
-0.125356
-0.107666
-0.0915655
-0.0769418
-0.0636752
-0.0516487
-0.0407525
-0.0308835
-0.0219357
-0.0138478
-0.00663286
0.000448088
0.0074907
-0.196236
-0.172646
-0.150474
-0.129949
-0.11113
-0.0939796
-0.0784044
-0.0642897
-0.0515152
-0.0399638
-0.029526
-0.0200989
-0.0115765
-0.0038998
0.00291939
0.00964698
0.0163633
-0.203635
-0.179599
-0.156553
-0.134947
-0.114994
-0.0967422
-0.0801468
-0.065111
-0.0515184
-0.0392482
-0.0281834
-0.0182149
-0.00924015
-0.0011536
0.00610128
0.0125152
0.0188788
0.025256
-0.210029
-0.186238
-0.162731
-0.140253
-0.119235
-0.099872
-0.0822045
-0.0661791
-0.0516963
-0.0386382
-0.0268836
-0.0163161
-0.00682728
0.00168489
0.00932513
0.016147
0.0221455
0.0281322
0.0341509
-0.191894
-0.1686
-0.145648
-0.123762
-0.103352
-0.084598
-0.06753
-0.0520887
-0.0381715
-0.0256594
-0.0144312
-0.00437096
0.0046285
0.0126685
0.0198521
0.0262293
0.0318015
0.0373945
0.0430234
-0.195625
-0.173509
-0.150739
-0.128369
-0.107097
-0.0873135
-0.0691855
-0.0527318
-0.0378877
-0.024548
-0.0125925
-0.0019005
0.00764311
0.0161443
0.0237032
0.0304201
0.0363408
0.0414753
0.046652
0.0518427
-0.196235
-0.176536
-0.154895
-0.132676
-0.110911
-0.0902735
-0.0711359
-0.0536492
-0.0378234
-0.0235887
-0.0108373
0.000551584
0.0106984
0.0197171
0.0277121
0.034782
0.0410231
0.0464754
0.0511608
0.0558939
0.0605799
-0.176501
-0.157212
-0.136073
-0.114431
-0.0932928
-0.0733099
-0.0548345
-0.0380038
-0.0228187
-0.0092046
0.00294853
0.0137619
0.0233555
0.031842
0.039324
0.0458984
0.0516552
0.0566276
0.0608555
0.0651186
0.0692087
-0.172087
-0.156528
-0.137676
-0.117064
-0.0960226
-0.0755331
-0.0562231
-0.0384257
-0.0222643
-0.00773163
0.00525163
0.0167974
0.0270272
0.0360605
0.0440084
0.0509722
0.057046
0.0623115
0.0667944
0.0705647
0.0743296
0.0776538
-0.162139
-0.151539
-0.136342
-0.11795
-0.0978908
-0.077472
-0.057651
-0.0390308
-0.0219257
-0.00644606
0.00742355
0.0197666
0.0306969
0.040336
0.0488028
0.0562071
0.0626485
0.0682188
0.0729883
0.0769792
0.0803081
0.0835121
0.0857171
-0.14109
-0.13078
-0.115967
-0.0980588
-0.0785745
-0.0587998
-0.0396656
-0.0217509
-0.00535131
0.00943538
0.0226323
0.0343269
0.0446343
0.0536765
0.0615715
0.0684281
0.0743448
0.0794103
0.0836837
0.0871969
0.0901232
0.092639
0.0931826
-0.124554
-0.119841
-0.109837
-0.0954278
-0.0780254
-0.0591379
-0.0400269
-0.0215964
-0.00440144
0.0112806
0.0253643
0.0378799
0.0489185
0.0585967
0.0670366
0.0743554
0.0806611
0.0860516
0.0906127
0.0943963
0.0974643
0.100033
0.101719
0.100433
-0.10288
-0.0984192
-0.0887351
-0.0747495
-0.0578741
-0.0396035
-0.0211743
-0.00346296
0.0129993
0.0279531
0.0413247
0.0531514
0.0635276
0.072571
0.0804039
0.0871429
0.0928951
0.0977583
0.101816
0.10512
0.107773
0.109972
0.110697
0.109586
-0.079693
-0.0810511
-0.0768507
-0.0675013
-0.0539573
-0.0376287
-0.019994
-0.00226332
0.0147148
0.0304327
0.0446488
0.0573006
0.0684317
0.0781398
0.0865439
0.0937658
0.0999218
0.105119
0.109453
0.113009
0.11584
0.118076
0.119879
0.120124
0.119545
-0.057402
-0.0590972
-0.0551636
-0.0461623
-0.0330773
-0.0173138
-0.00033224
0.0166847
0.0329169
0.0478804
0.0613504
0.0732755
0.0837055
0.092741
0.100502
0.107109
0.11268
0.117319
0.121125
0.124178
0.12654
0.12835
0.129734
0.129603
0.129131
-0.035014
-0.037046
-0.0333856
-0.0247451
-0.0121353
0.00304618
0.0193586
0.0356483
0.0511235
0.0653235
0.0780404
0.0892332
0.0989576
0.107317
0.114431
0.120422
0.125405
0.129486
0.132761
0.135313
0.137204
0.138582
0.139545
0.139069
0.138497
-0.0125577
-0.0149259
-0.0115447
-0.00327696
0.00884277
0.0234265
0.0390556
0.0546058
0.0693143
0.0827433
0.0947013
0.105157
0.114172
0.121852
0.128317
0.13369
0.138084
0.141605
0.14435
0.146399
0.14782
0.148759
0.1493
0.14848
0.147718
0.00993793
0.00723469
0.010331
0.018215
0.0298308
0.0438027
0.0587355
0.0735357
0.0874692
0.100121
0.111315
0.121031
0.129334
0.136333
0.142148
0.146901
0.150705
0.153666
0.155879
0.157425
0.158374
0.158871
0.158986
0.157812
0.156804
0.0324439
0.0294071
0.0322134
0.0397035
0.0508028
0.06415
0.0783753
0.0924164
0.105568
0.117438
0.127865
0.136838
0.144428
0.150744
0.155908
0.160041
0.163256
0.165656
0.167337
0.16838
0.168855
0.168905
0.168593
0.167053
0.165764
0.0549311
0.0515627
0.0540743
0.0611612
0.0717325
0.0844437
0.0979518
0.111226
0.123591
0.134675
0.144333
0.152563
0.159438
0.165071
0.169585
0.173098
0.175723
0.177563
0.178713
0.179253
0.179253
0.178854
0.178109
0.176196
0.174603
0.0773706
0.0736727
0.0758855
0.0825609
0.092594
0.104659
0.117442
0.129944
0.141517
0.151813
0.160702
0.168187
0.174349
0.1793
0.183164
0.186058
0.188095
0.189376
0.189995
0.190032
0.189557
0.188707
0.187528
0.185235
0.183321
0.0997331
0.0957084
0.0976189
0.103875
0.113361
0.124772
0.136823
0.148547
0.159327
0.168835
0.176953
0.183695
0.189145
0.193416
0.196631
0.198909
0.200359
0.201083
0.201173
0.200707
0.199757
0.198455
0.196841
0.194164
0.19192
0.12199
0.117641
0.119246
0.125077
0.134009
0.144759
0.156072
0.167016
0.177001
0.18572
0.19307
0.199071
0.203811
0.207405
0.209974
0.211638
0.212504
0.212673
0.212235
0.211269
0.209844
0.208091
0.20604
0.202979
0.200396
0.144112
0.139443
0.14074
0.14614
0.15451
0.164593
0.175166
0.185328
0.194519
0.202451
0.209035
0.214299
0.218332
0.221252
0.223179
0.224232
0.224517
0.224134
0.223171
0.221707
0.21981
0.217606
0.21512
0.211674
0.208746
0.166071
0.161084
0.162072
0.167036
0.174841
0.184253
0.194082
0.203463
0.211861
0.21901
0.224832
0.229361
0.232693
0.234943
0.236232
0.236678
0.236386
0.235455
0.233972
0.232012
0.229645
0.226992
0.224074
0.220244
0.216968
0.187838
0.182538
0.183214
0.18774
0.194974
0.203714
0.212799
0.2214
0.229008
0.235377
0.240442
0.244243
0.246878
0.248464
0.249121
0.248965
0.248101
0.246626
0.244625
0.242175
0.239341
0.236243
0.232894
0.228683
0.225057
0.209385
0.203776
0.204141
0.208224
0.214887
0.222952
0.231295
0.239118
0.245941
0.251536
0.25585
0.258929
0.260873
0.261801
0.261831
0.261079
0.259649
0.257635
0.255123
0.252185
0.248889
0.245349
0.241574
0.236986
0.233008
0.230684
0.22477
0.224823
0.228464
0.234553
0.241944
0.249547
0.256597
0.26264
0.267468
0.271038
0.273403
0.274664
0.27494
0.274351
0.27301
0.27102
0.268473
0.265454
0.262035
0.258282
0.254304
0.250108
0.245147
0.251708
0.245494
0.245236
0.248433
0.253949
0.260668
0.267534
0.273816
0.279087
0.283156
0.28599
0.287649
0.288235
0.287868
0.286668
0.284745
0.282201
0.279129
0.27561
0.271716
0.26751
0.2631
0.258488
0.25316
0.272429
0.26592
0.265352
0.268106
0.27305
0.2791
0.285235
0.290757
0.295264
0.298583
0.300691
0.301652
0.301573
0.300572
0.298769
0.296272
0.293183
0.289592
0.285581
0.281217
0.276566
0.27173
0.266708
0.261019
0.29282
0.286022
0.285145
0.287457
0.291833
0.297219
0.30263
0.3074
0.311152
0.313731
0.315123
0.315398
0.314664
0.313039
0.310641
0.30758
0.303954
0.299853
0.295356
0.290532
0.285442
0.280187
0.274762
0.312855
0.305774
0.304591
0.306464
0.310274
0.315002
0.319697
0.323725
0.326734
0.328584
0.329272
0.328872
0.327493
0.325255
0.322274
0.318657
0.314504
0.309902
0.304928
0.29965
0.294129
0.288462
0.282642
0.332508
0.32515
0.323664
0.325101
0.328352
0.332429
0.336417
0.339713
0.341991
0.343125
0.343122
0.342059
0.340048
0.337208
0.333654
0.329493
0.324823
0.319728
0.314287
0.308565
0.302621
0.296549
0.290342
0.351754
0.344124
0.342339
0.343345
0.346042
0.349478
0.352769
0.355347
0.356907
0.357339
0.356658
0.354946
0.352315
0.348885
0.34477
0.340077
0.334899
0.329324
0.323425
0.317267
0.310909
0.304442
0.297856
0.370568
0.362673
0.360594
0.361174
0.363325
0.366128
0.368736
0.370609
0.371465
0.37121
0.369865
0.367518
0.364281
0.360275
0.355612
0.350397
0.344725
0.338678
0.332332
0.325748
0.318987
0.312132
0.388925
0.380773
0.378403
0.378563
0.380178
0.38236
0.384298
0.385481
0.385649
0.384721
0.382729
0.379762
0.375934
0.371365
0.366167
0.360444
0.354288
0.347782
0.340999
0.334001
0.326845
0.319613
0.406803
0.3984
0.395745
0.395493
0.396581
0.398155
0.399437
0.399946
0.399442
0.39786
0.395236
0.391665
0.387261
0.382144
0.376426
0.370207
0.363581
0.356628
0.34942
0.342018
0.334478
0.326879
0.424177
0.415531
0.412597
0.411941
0.412513
0.413493
0.414135
0.413987
0.41283
0.41061
0.407372
0.403214
0.398251
0.392601
0.386376
0.379677
0.372594
0.365206
0.357586
0.349791
0.341878
0.333922
0.441025
0.432144
0.428938
0.427887
0.427955
0.428356
0.428375
0.427588
0.425797
0.422958
0.419125
0.414397
0.408891
0.402725
0.396009
0.388844
0.381317
0.373509
0.365488
0.357313
0.349038
0.457326
0.448217
0.444746
0.443311
0.442889
0.442726
0.442141
0.440734
0.438328
0.43489
0.430481
0.425202
0.419171
0.412505
0.405315
0.397698
0.389743
0.381527
0.373119
0.364576
0.355952
0.473059
0.463731
0.460003
0.458193
0.457295
0.456587
0.455416
0.45341
0.450409
0.446394
0.441428
0.435617
0.429079
0.421931
0.414283
0.406231
0.397862
0.389254
0.380472
0.371575
0.362614
0.488204
0.478665
0.474687
0.472516
0.471157
0.469921
0.468185
0.465602
0.462028
0.457455
0.451953
0.44563
0.438605
0.430994
0.422904
0.414434
0.405667
0.39668
0.38754
0.378301
0.369016
0.502741
0.492999
0.488781
0.48626
0.484457
0.482712
0.480432
0.477294
0.47317
0.468062
0.462047
0.455232
0.447739
0.439683
0.43117
0.422298
0.41315
0.4038
0.394315
0.384749
0.375152
0.516651
0.506716
0.502267
0.499409
0.497179
0.494946
0.492145
0.488474
0.483824
0.478204
0.471696
0.464412
0.456471
0.447989
0.439072
0.429815
0.420302
0.410606
0.400791
0.390912
0.529916
0.519798
0.515127
0.511947
0.509307
0.506608
0.503308
0.49913
0.493977
0.487869
0.480892
0.473159
0.464792
0.455904
0.446602
0.436979
0.427118
0.417091
0.406962
0.396785
0.542521
0.532227
0.527345
0.523857
0.520828
0.517683
0.51391
0.509248
0.503617
0.497046
0.489623
0.481466
0.472693
0.46342
0.453752
0.443781
0.433589
0.423249
0.412822
0.402361
0.554448
0.543989
0.538906
0.535125
0.531726
0.52816
0.523937
0.518818
0.512735
0.505725
0.497881
0.489321
0.480165
0.470528
0.460514
0.450214
0.43971
0.429073
0.418364
0.407636
0.565682
0.555067
0.549795
0.545738
0.541989
0.538025
0.533378
0.527828
0.52132
0.513897
0.505657
0.496718
0.487201
0.477222
0.466882
0.456273
0.445475
0.434559
0.423584
0.412604
0.576208
0.565448
0.559997
0.555681
0.551603
0.547266
0.542222
0.536269
0.529362
0.521552
0.512941
0.503647
0.493794
0.483493
0.472848
0.46195
0.450877
0.439699
0.428476
0.41726
0.586015
0.575119
0.569502
0.564942
0.560558
0.555873
0.550459
0.54413
0.536852
0.528683
0.519726
0.510103
0.499935
0.489336
0.478408
0.46724
0.455911
0.44449
0.433036
0.4216
0.595088
0.584067
0.578295
0.573511
0.568843
0.563835
0.55808
0.551403
0.543782
0.53528
0.526004
0.516077
0.505619
0.494744
0.483554
0.472137
0.460572
0.448926
0.437259
0.603416
0.59228
0.586366
0.581375
0.576447
0.571144
0.565074
0.558079
0.550144
0.541338
0.531769
0.521563
0.51084
0.499712
0.488282
0.476637
0.464855
0.453003
0.44114
0.610989
0.599748
0.593706
0.588527
0.583362
0.57779
0.571435
0.564151
0.555931
0.546848
0.537015
0.526555
0.515591
0.504235
0.492586
0.480734
0.468756
0.456717
0.444676
0.617797
0.606463
0.600304
0.594956
0.589578
0.583765
0.577155
0.569612
0.561136
0.551806
0.541735
0.531049
0.519869
0.508307
0.496463
0.484426
0.47227
0.460064
0.447864
0.623831
0.612414
0.606152
0.600655
0.595089
0.589063
0.582227
0.574455
0.565754
0.556206
0.545925
0.535038
0.523668
0.511924
0.499908
0.487707
0.475396
0.463041
0.450701
0.629084
0.617594
0.611243
0.605616
0.599887
0.593677
0.586646
0.578676
0.56978
0.560042
0.54958
0.53852
0.526984
0.515084
0.502918
0.490574
0.478128
0.465646
0.453183
0.633549
0.621998
0.615571
0.609834
0.603968
0.597602
0.590406
0.582269
0.573209
0.563311
0.552696
0.54149
0.529814
0.517781
0.50549
0.493026
0.480466
0.467874
0.455308
0.63722
0.625618
0.61913
0.613304
0.607325
0.600833
0.593503
0.585231
0.576036
0.566009
0.55527
0.543944
0.532156
0.520015
0.50762
0.495058
0.482405
0.469725
0.457074
0.640092
0.628451
0.621915
0.616021
0.609956
0.603366
0.595934
0.587557
0.57826
0.568134
0.557298
0.545882
0.534005
0.521781
0.509307
0.49667
0.483945
0.471196
0.45848
0.642163
0.630494
0.623924
0.617981
0.611857
0.605199
0.597695
0.589246
0.579878
0.569682
0.55878
0.547299
0.535362
0.523079
0.51055
0.49786
0.485084
0.472287
0.459524
0.643429
0.631743
0.625153
0.619183
0.613025
0.606329
0.598785
0.590296
0.580887
0.570652
0.559713
0.548196
0.536224
0.523908
0.511346
0.498626
0.48582
0.472995
0.460206
0.643888
0.632196
0.625602
0.619625
0.613459
0.606755
0.599203
0.590705
0.581288
0.571044
0.560096
0.54857
0.53659
0.524266
0.511696
0.498967
0.486154
0.473321
0.460524
0.643541
0.631855
0.625269
0.619306
0.613159
0.606477
0.598948
0.590473
0.581079
0.570857
0.559929
0.548423
0.536461
0.524153
0.511599
0.498885
0.486085
0.473264
0.460479
0.642388
0.630718
0.624155
0.618228
0.612126
0.605495
0.59802
0.589601
0.580261
0.570091
0.559213
0.547754
0.535836
0.52357
0.511055
0.498378
0.485613
0.472825
0.46007
0.64043
0.628787
0.622262
0.61639
0.610359
0.60381
0.596421
0.588089
0.578834
0.568747
0.557948
0.546563
0.534716
0.522517
0.510066
0.497448
0.484739
0.472004
0.459299
0.63767
0.626065
0.619591
0.613796
0.607863
0.601424
0.594153
0.585939
0.576801
0.566827
0.556135
0.544853
0.533103
0.520996
0.508631
0.496095
0.483464
0.470802
0.458166
0.634111
0.622556
0.616147
0.61045
0.604639
0.598341
0.591218
0.583155
0.574165
0.564333
0.553778
0.542626
0.530998
0.519008
0.506753
0.494322
0.481789
0.46922
0.456673
0.629757
0.618263
0.611934
0.606354
0.600693
0.594563
0.58762
0.579738
0.570927
0.561268
0.550878
0.539883
0.528405
0.516555
0.504434
0.492129
0.479716
0.467261
0.454821
0.624616
0.613193
0.606957
0.601514
0.596027
0.590096
0.583363
0.575694
0.567092
0.557636
0.547439
0.536628
0.525325
0.513641
0.501677
0.489521
0.477248
0.464926
0.452612
0.618692
0.607352
0.601222
0.595937
0.59065
0.584945
0.578452
0.571027
0.562665
0.55344
0.543465
0.532865
0.521763
0.510269
0.498485
0.486499
0.474388
0.462219
0.450049
0.611994
0.600748
0.594738
0.589629
0.584566
0.579116
0.572893
0.565742
0.55765
0.548686
0.538961
0.528599
0.517722
0.506442
0.494861
0.483067
0.471138
0.459141
0.447134
0.604531
0.593388
0.587511
0.582599
0.577784
0.572616
0.566693
0.559846
0.552053
0.543378
0.533931
0.523833
0.513206
0.502165
0.490809
0.479228
0.467501
0.455696
0.443871
0.596312
0.585283
0.579552
0.574854
0.570311
0.565453
0.559859
0.553345
0.54588
0.537524
0.528381
0.518573
0.508222
0.497442
0.486333
0.474988
0.463483
0.451889
0.440263
0.587347
0.576443
0.57087
0.566405
0.562158
0.557636
0.552399
0.546247
0.53914
0.531129
0.522318
0.512826
0.502775
0.492278
0.48144
0.47035
0.459087
0.447722
0.436314
0.577648
0.56688
0.561477
0.557263
0.553333
0.549173
0.544321
0.538561
0.531839
0.524202
0.515748
0.506597
0.496869
0.48668
0.476133
0.465319
0.454318
0.443201
0.432028
0.420852
0.567229
0.556605
0.551384
0.547438
0.543848
0.540076
0.535636
0.530295
0.523986
0.516749
0.508679
0.499893
0.490513
0.480654
0.470419
0.459901
0.449182
0.438331
0.42741
0.416472
0.556101
0.545633
0.540605
0.536944
0.533715
0.530355
0.526354
0.521459
0.51559
0.50878
0.501119
0.492723
0.483713
0.474206
0.464304
0.454103
0.443682
0.433115
0.422464
0.411781
0.54428
0.533976
0.529153
0.525792
0.522946
0.520022
0.516485
0.512062
0.506661
0.500303
0.493076
0.485093
0.476477
0.467342
0.457795
0.447929
0.437827
0.427561
0.417196
0.406784
0.53178
0.521651
0.517044
0.513999
0.511554
0.509089
0.506042
0.502118
0.497208
0.491328
0.484559
0.477013
0.468812
0.460072
0.450898
0.441386
0.43162
0.421674
0.41161
0.401485
0.518618
0.508674
0.504292
0.501577
0.499554
0.497569
0.495036
0.491635
0.487244
0.481865
0.475578
0.468492
0.460728
0.452402
0.443622
0.434483
0.425071
0.415459
0.405714
0.39589
0.504812
0.49506
0.490913
0.488544
0.486959
0.485477
0.483481
0.480628
0.476778
0.471926
0.466143
0.459538
0.452232
0.444341
0.435973
0.427225
0.418184
0.408924
0.399512
0.390005
0.490378
0.480828
0.476926
0.474915
0.473787
0.472828
0.471391
0.469108
0.465824
0.46152
0.456264
0.450163
0.443335
0.435898
0.427961
0.419622
0.410968
0.402075
0.393012
0.383835
0.374596
0.475336
0.465997
0.462348
0.460708
0.460052
0.459635
0.458779
0.45709
0.454393
0.450661
0.445954
0.440375
0.434045
0.427081
0.419593
0.41168
0.403429
0.39492
0.38622
0.377387
0.368475
0.459705
0.450586
0.447198
0.44594
0.445772
0.445916
0.445661
0.444587
0.442499
0.43936
0.435222
0.430187
0.424374
0.417901
0.410879
0.403408
0.395577
0.387465
0.379143
0.370668
0.362095
0.443505
0.434614
0.431495
0.43063
0.430965
0.431686
0.432052
0.431613
0.430156
0.42763
0.424081
0.419609
0.414332
0.408368
0.401828
0.394815
0.387419
0.379719
0.371788
0.363684
0.355463
0.426758
0.418102
0.41526
0.414799
0.415649
0.416964
0.417968
0.418184
0.417378
0.415484
0.412544
0.408654
0.403929
0.398491
0.39245
0.38591
0.378963
0.37169
0.364162
0.356442
0.348585
0.409486
0.401073
0.398514
0.398465
0.399843
0.401767
0.403427
0.404316
0.404178
0.402936
0.400623
0.397332
0.393178
0.388281
0.382755
0.376703
0.370219
0.363385
0.356274
0.348949
0.341468
0.333908
0.39171
0.383548
0.381278
0.381649
0.383567
0.386114
0.388446
0.390025
0.390574
0.390001
0.388333
0.385657
0.382089
0.37775
0.372752
0.367203
0.361195
0.354813
0.348132
0.341214
0.334118
0.326927
0.373454
0.36555
0.363575
0.364374
0.366841
0.370023
0.373041
0.375327
0.376579
0.376693
0.375685
0.373642
0.370676
0.366908
0.362454
0.357419
0.351901
0.345983
0.339742
0.333243
0.326544
0.319731
0.354742
0.347104
0.345427
0.346661
0.349685
0.353515
0.357232
0.360239
0.362211
0.363027
0.362696
0.361299
0.35895
0.355767
0.35187
0.347363
0.342346
0.336904
0.331115
0.325044
0.318752
0.312328
0.335598
0.328232
0.326859
0.328532
0.332122
0.336609
0.341038
0.34478
0.347485
0.349018
0.349378
0.348643
0.346923
0.34434
0.341011
0.337045
0.332541
0.327585
0.322258
0.316625
0.310749
0.304722
0.29854
0.316048
0.30896
0.307895
0.310012
0.314174
0.319326
0.324478
0.328967
0.332419
0.334683
0.335748
0.335687
0.33461
0.332639
0.32989
0.326476
0.322494
0.318036
0.31318
0.307995
0.302544
0.296923
0.291128
0.296117
0.289314
0.288558
0.291123
0.295862
0.301687
0.307571
0.312819
0.31703
0.320037
0.321819
0.322445
0.322024
0.320675
0.318518
0.315665
0.312217
0.308265
0.30389
0.299162
0.294144
0.288937
0.283538
0.275832
0.269319
0.268875
0.27189
0.27721
0.283714
0.290339
0.296354
0.301336
0.305097
0.307608
0.308933
0.309177
0.308462
0.306907
0.304626
0.301721
0.298284
0.294398
0.290134
0.285557
0.28077
0.275775
0.255218
0.249001
0.248872
0.252338
0.258242
0.265428
0.272801
0.279593
0.285354
0.28988
0.293131
0.295164
0.296084
0.296012
0.295069
0.293369
0.291014
0.288101
0.284712
0.28092
0.276791
0.272432
0.267846
0.262543
0.234303
0.228387
0.228574
0.232491
0.23898
0.246853
0.254978
0.262554
0.269103
0.274403
0.278403
0.281154
0.28276
0.28334
0.283017
0.281905
0.28011
0.277727
0.274842
0.271528
0.267854
0.263928
0.259759
0.254823
0.213115
0.207505
0.208007
0.212376
0.21945
0.228012
0.236893
0.245258
0.252602
0.258684
0.263441
0.266919
0.269218
0.270458
0.270762
0.270247
0.269018
0.267172
0.264798
0.261969
0.258754
0.255268
0.25152
0.246957
0.191682
0.186383
0.187201
0.192019
0.199676
0.208927
0.218566
0.227725
0.23587
0.24274
0.248261
0.252473
0.255473
0.25738
0.258319
0.258406
0.257749
0.256447
0.254589
0.25225
0.2495
0.246457
0.243136
0.23895
0.235313
0.170032
0.165047
0.16618
0.171445
0.179684
0.189622
0.20002
0.209975
0.218925
0.226589
0.232881
0.237833
0.24154
0.244121
0.2457
0.246395
0.246316
0.245563
0.244225
0.242381
0.2401
0.237505
0.234614
0.23081
0.227526
0.148193
0.143528
0.144974
0.150682
0.159498
0.17012
0.181277
0.19203
0.201788
0.21025
0.217317
0.223014
0.227433
0.230693
0.232917
0.234226
0.23473
0.234529
0.233717
0.23237
0.230562
0.228417
0.225961
0.222541
0.219608
0.126195
0.121852
0.12361
0.129756
0.139144
0.150447
0.16236
0.17391
0.184478
0.193741
0.201586
0.208033
0.213169
0.217112
0.219986
0.221912
0.223002
0.223358
0.223074
0.222229
0.220896
0.219204
0.217184
0.21415
0.211564
0.104066
0.100049
0.102116
0.108695
0.118648
0.130626
0.143291
0.155638
0.167015
0.17708
0.185707
0.192906
0.198762
0.203391
0.206918
0.209465
0.211144
0.21206
0.212307
0.211966
0.21111
0.209872
0.208289
0.205642
0.203399
0.0818358
0.0781481
0.0805211
0.0875261
0.098037
0.110682
0.124095
0.137233
0.14942
0.160287
0.169696
0.17765
0.184227
0.189545
0.193728
0.196898
0.199169
0.200647
0.201427
0.201591
0.201212
0.200429
0.199284
0.197023
0.195117
0.0595342
0.0561782
0.0588534
0.0662768
0.077336
0.0906398
0.104793
0.118719
0.131711
0.14338
0.153572
0.16228
0.169581
0.175589
0.180429
0.184223
0.187088
0.189129
0.190443
0.191113
0.191213
0.190884
0.190176
0.188299
0.18672
0.0371904
0.0341686
0.0371418
0.0449748
0.0565718
0.0705243
0.0854086
0.100117
0.11391
0.126379
0.137352
0.146814
0.154839
0.161537
0.167035
0.171455
0.174914
0.177519
0.179368
0.180544
0.181122
0.181245
0.180972
0.179475
0.178211
0.0148342
0.0121484
0.015415
0.023648
0.0357711
0.0503606
0.0659664
0.081448
0.0960379
0.109301
0.121053
0.131269
0.140016
0.147405
0.15356
0.158606
0.162659
0.165828
0.168212
0.169894
0.170949
0.171521
0.17168
0.170556
0.169591
-0.00750488
-0.00985289
-0.00629838
0.00232425
0.0149604
0.0301736
0.0464893
0.0627352
0.078114
0.0921676
0.104695
0.115661
0.125129
0.133206
0.140018
0.145689
0.150336
0.154069
0.156986
0.159174
0.160703
0.161722
0.16231
0.16155
0.160859
-0.0297973
-0.0318062
-0.0279694
-0.0189686
-0.00583363
0.00998871
0.027001
0.0440001
0.0601592
0.0749964
0.0882937
0.100007
0.110193
0.118957
0.126423
0.132717
0.137957
0.142252
0.145703
0.148395
0.150397
0.151859
0.15287
0.152464
0.152012
-0.0520135
-0.0536825
-0.0495695
-0.0402027
-0.0265844
-0.010169
0.007525
0.0252649
0.0421942
0.0578071
0.0718684
0.0843235
0.0952231
0.104671
0.112789
0.119704
0.125535
0.130391
0.134374
0.137568
0.140041
0.141941
0.143374
0.143313
0.143044
-0.0741241
-0.0754526
-0.0710701
-0.0613503
-0.0472653
-0.0302745
-0.011915
0.00655148
0.0242394
0.0406187
0.0554367
0.0686277
0.0802363
0.0903629
0.0991299
0.106663
0.113082
0.118498
0.123011
0.126706
0.129648
0.13198
0.133834
0.134122
0.133948
-0.0960999
-0.097088
-0.0924428
-0.0823839
-0.06785
-0.0503026
-0.0312956
-0.0121181
0.00631541
0.0234505
0.0390165
0.0529362
0.0652477
0.0760484
0.0854597
0.0936075
0.100612
0.106584
0.111625
0.115822
0.119233
0.121989
0.124263
0.124935
0.124659
-0.11856
-0.113659
-0.103276
-0.088312
-0.0702284
-0.0505933
-0.030722
-0.0115575
0.00632126
0.0226253
0.0372654
0.0502729
0.0617417
0.0717922
0.0805501
0.0881364
0.0946624
0.10023
0.104927
0.108809
0.11198
0.114652
0.115817
0.115038
-0.13984
-0.134691
-0.123999
-0.108625
-0.0900269
-0.0697847
-0.0492385
-0.029359
-0.01075
0.00628089
0.021632
0.0353273
0.0474573
0.0581409
0.0675039
0.0756677
0.0827444
0.0888364
0.0940339
0.0983927
0.101978
0.105018
0.10716
0.106309
-0.155512
-0.144527
-0.128764
-0.109674
-0.0888468
-0.0676458
-0.0470689
-0.0277445
-0.00999927
0.00605226
0.0204264
0.0332097
0.0445195
0.0544816
0.063218
0.0708418
0.077456
0.0831538
0.0879984
0.0920255
0.0954178
0.0983752
0.0993446
-0.176094
-0.164832
-0.148702
-0.129145
-0.107757
-0.0859228
-0.0646674
-0.0446437
-0.0261979
-0.00945767
0.0055851
0.0190128
0.0309412
0.0414957
0.0507991
0.0589657
0.0660995
0.0722965
0.0776316
0.0821307
0.085916
0.0895372
0.0921366
-0.18489
-0.168415
-0.148416
-0.126492
-0.104048
-0.0821346
-0.0614293
-0.0422979
-0.0248819
-0.00918164
0.00488068
0.017419
0.0285583
0.0384223
0.0471264
0.054776
0.0614699
0.0672941
0.0722779
0.0764949
0.080658
0.0843533
-0.187878
-0.167462
-0.145029
-0.122001
-0.0994511
-0.0780831
-0.0582823
-0.0402046
-0.0238592
-0.00917303
0.00396559
0.0156814
0.0260985
0.0353337
0.0434942
0.0506808
0.0569881
0.062453
0.067118
0.0717652
0.0762125
-0.207065
-0.186262
-0.163348
-0.13976
-0.116598
-0.0945873
-0.0741347
-0.0554105
-0.0384331
-0.0231349
-0.00940641
0.00287645
0.0138382
0.0235971
0.0322619
0.0399351
0.0467174
0.0526529
0.0577654
0.0628698
0.0679032
-0.204791
-0.181425
-0.157306
-0.133555
-0.110924
-0.0898386
-0.0704842
-0.0528893
-0.0369917
-0.0226848
-0.00984522
0.00165196
0.011926
0.021087
0.0292392
0.0364871
0.0428808
0.0484316
0.053967
0.0594958
-0.19924
-0.174618
-0.150305
-0.127077
-0.105378
-0.0854109
-0.0672138
-0.0507307
-0.0358577
-0.0224726
-0.0104503
0.00032926
0.00997749
0.0185997
0.026303
0.033142
0.0391191
0.0450581
0.0510155
-0.191677
-0.16683
-0.143027
-0.120737
-0.100176
-0.0813931
-0.0643391
-0.0489133
-0.0349947
-0.0224585
-0.0111839
-0.00105857
0.0080236
0.0161713
0.0234428
0.029834
0.0361538
0.0424902
-0.208463
-0.183111
-0.15876
-0.135901
-0.114765
-0.095414
-0.0778046
-0.0618402
-0.0474011
-0.034363
-0.0226047
-0.012013
-0.00248165
0.00609912
0.0137904
0.020584
0.0272674
0.0339504
-0.19913
-0.174259
-0.150854
-0.129164
-0.109263
-0.0911153
-0.0746271
-0.0596814
-0.0461541
-0.0339241
-0.0228777
-0.0129084
-0.00390611
0.00419293
0.0113779
0.018411
0.0254202
-0.189507
-0.165581
-0.14336
-0.122929
-0.104259
-0.0872633
-0.0718254
-0.0578224
-0.0451333
-0.0336444
-0.0232487
-0.0138365
-0.00534142
0.00222447
0.00959586
0.016917
-0.180069
-0.157339
-0.136398
-0.117225
-0.099738
-0.0838232
-0.0693586
-0.0562238
-0.0443047
-0.0334947
-0.0236841
-0.0148043
-0.00686748
0.000832264
0.00845498
-0.171089
-0.149659
-0.130002
-0.112041
-0.0956651
-0.0807537
-0.0671869
-0.0548507
-0.0436385
-0.033441
-0.0241874
-0.0158894
-0.00787027
4.59146e-05
-0.1627