/*--------------------------------*- C++ -*----------------------------------*\
  =========                 |
  \\      /  F ield         | OpenFOAM: The Open Source CFD Toolbox
   \\    /   O peration     | Website:  https://openfoam.org
    \\  /    A nd           | Version:  7
     \\/     M anipulation  |
\*---------------------------------------------------------------------------*/
FoamFile
{
    version     2.0;
    format      ascii;
    class       volScalarField;
    location    "300";
    object      p;
}
// * * * * * * * * * * * * * * * * * * * * * * * * * * * * * * * * * * * * * //

dimensions      [0 2 -2 0 0 0 0];

internalField   nonuniform List<scalar> 
4575
(
-0.0422961
-0.0431865
-0.0417406
-0.0390365
-0.0354286
-0.0328461
-0.0312113
-0.031496
-0.0311794
-0.0310427
-0.0279128
-0.0254466
-0.0226347
-0.0220453
-0.0215245
-0.0217255
-0.0173303
-0.0132091
-0.0117141
-0.0110623
-0.00880803
-0.00750631
-0.00226824
-0.0414651
-0.0419651
-0.0403575
-0.0377042
-0.0343491
-0.0321439
-0.0309974
-0.0317878
-0.0318679
-0.0320248
-0.0289415
-0.0263721
-0.0231642
-0.0220863
-0.0210941
-0.020841
-0.016344
-0.0121731
-0.0111278
-0.010916
-0.00906697
-0.00811224
-0.00261454
-0.0406423
-0.0407586
-0.0389897
-0.0363803
-0.0332701
-0.031438
-0.0307798
-0.0320779
-0.0325583
-0.0330088
-0.029971
-0.0272967
-0.0236925
-0.0221254
-0.0206635
-0.0199552
-0.0153593
-0.0111382
-0.0105418
-0.010768
-0.009326
-0.00871621
-0.00296254
-0.0398289
-0.039568
-0.037638
-0.0350652
-0.0321919
-0.0307284
-0.0305583
-0.032366
-0.03325
-0.033994
-0.0310008
-0.0282201
-0.0242196
-0.0221631
-0.0202331
-0.0190687
-0.0143767
-0.0101047
-0.00995612
-0.0106183
-0.00958474
-0.00931791
-0.00331217
-0.0390257
-0.0383941
-0.0363029
-0.0337596
-0.0311149
-0.0300149
-0.0303324
-0.0326514
-0.0339425
-0.03498
-0.0320304
-0.0291421
-0.0247454
-0.0221995
-0.0198036
-0.018182
-0.0133966
-0.009073
-0.00937077
-0.0104667
-0.00984283
-0.00991704
-0.00366333
-0.0382335
-0.0372377
-0.0349852
-0.0324639
-0.0300394
-0.0292976
-0.0301017
-0.0329337
-0.0346353
-0.0359663
-0.0330593
-0.0300624
-0.02527
-0.0222351
-0.0193754
-0.0172956
-0.0124197
-0.00804349
-0.00878575
-0.0103133
-0.0100999
-0.0105133
-0.00401591
-0.0374533
-0.0360995
-0.0336855
-0.0311787
-0.0289656
-0.0285765
-0.029866
-0.0332122
-0.0353278
-0.0369523
-0.034087
-0.0309807
-0.0257934
-0.02227
-0.018949
-0.0164103
-0.0114463
-0.00701655
-0.00820106
-0.0101578
-0.0103556
-0.0111063
-0.00436982
-0.0366857
-0.0349802
-0.0324044
-0.0299046
-0.0278941
-0.0278516
-0.0296248
-0.0334864
-0.0360195
-0.0379376
-0.0351129
-0.0318967
-0.0263156
-0.0223046
-0.018525
-0.0155264
-0.0104769
-0.00599254
-0.00761671
-0.0100002
-0.0106094
-0.0116959
-0.00472493
-0.0359314
-0.0338805
-0.0311424
-0.028642
-0.0268249
-0.0271227
-0.0293777
-0.0337558
-0.0367098
-0.0389217
-0.0361366
-0.0328101
-0.0268365
-0.0223392
-0.0181039
-0.0146447
-0.00951194
-0.00497184
-0.00703269
-0.0098405
-0.0108612
-0.0122817
-0.00508113
-0.0351911
-0.0328009
-0.0299003
-0.0273915
-0.0257586
-0.02639
-0.0291244
-0.0340198
-0.0373981
-0.0399041
-0.0371575
-0.0337206
-0.0273562
-0.0223739
-0.0176862
-0.0137656
-0.00855201
-0.00395482
-0.00644899
-0.00967852
-0.0111104
-0.0128634
-0.0054383
-0.0344652
-0.0317422
-0.0286784
-0.0261536
-0.0246955
-0.0256534
-0.0288644
-0.0342779
-0.038084
-0.0408844
-0.0381752
-0.034628
-0.0278746
-0.0224092
-0.0172723
-0.0128898
-0.0075976
-0.00294186
-0.0058656
-0.00951422
-0.0113568
-0.0134407
-0.0057963
-0.0337544
-0.0307046
-0.0274774
-0.024929
-0.0236359
-0.024913
-0.0285974
-0.0345295
-0.0387669
-0.041862
-0.0391891
-0.035532
-0.0283917
-0.0224452
-0.0168627
-0.0120178
-0.00664917
-0.00193334
-0.00528252
-0.00934755
-0.0115999
-0.0140134
-0.00615501
-0.0330591
-0.0296888
-0.0262977
-0.023718
-0.0225802
-0.0241687
-0.028323
-0.034774
-0.0394463
-0.0428367
-0.0401989
-0.0364323
-0.0289074
-0.0224821
-0.016458
-0.0111501
-0.005707
-0.000929613
-0.00469974
-0.00917846
-0.0118393
-0.0145811
-0.00651428
-0.0323797
-0.0286952
-0.0251398
-0.0225213
-0.0215288
-0.0234205
-0.0280408
-0.035011
-0.0401216
-0.0438079
-0.0412038
-0.0373286
-0.0294216
-0.0225204
-0.0160586
-0.0102874
-0.00477147
6.89469e-05
-0.00411723
-0.0090069
-0.0120749
-0.0151435
-0.00687396
-0.0317165
-0.0277241
-0.0240043
-0.0213394
-0.020482
-0.0226685
-0.0277505
-0.0352399
-0.0407924
-0.0447752
-0.0422036
-0.0382206
-0.0299344
-0.0225601
-0.0156649
-0.00943013
-0.00384316
0.00106197
-0.003535
-0.00883284
-0.0123061
-0.0157005
-0.00723391
-0.0310698
-0.0267759
-0.0228914
-0.0201729
-0.0194401
-0.0219128
-0.0274516
-0.03546
-0.041458
-0.0457382
-0.0431977
-0.0391081
-0.0304456
-0.0226014
-0.0152774
-0.00857892
-0.0029226
0.00204908
-0.00295303
-0.00865624
-0.0125327
-0.0162516
-0.00759396
-0.0304399
-0.0258509
-0.0218017
-0.0190221
-0.0184037
-0.0211533
-0.0271439
-0.035671
-0.0421181
-0.0466965
-0.0441856
-0.0399907
-0.0309551
-0.0226447
-0.0148965
-0.00773428
-0.00201034
0.0030299
-0.0023713
-0.00847708
-0.0127542
-0.0167967
-0.00795395
-0.029827
-0.0249493
-0.0207355
-0.0178878
-0.017373
-0.0203902
-0.0268269
-0.0358722
-0.0427721
-0.0476497
-0.0451668
-0.0408683
-0.0314628
-0.0226901
-0.0145227
-0.00689675
-0.00110677
0.00400406
-0.00178982
-0.00829535
-0.0129705
-0.0173355
-0.00831371
-0.0292312
-0.0240713
-0.0196931
-0.0167702
-0.0163485
-0.0196235
-0.0265004
-0.0360632
-0.0434194
-0.0485975
-0.046141
-0.0417405
-0.0319687
-0.0227377
-0.0141563
-0.00606688
-0.00021211
0.00497122
-0.00120856
-0.00811104
-0.0131811
-0.0178676
-0.00867307
-0.0286526
-0.0232171
-0.018675
-0.0156701
-0.0153306
-0.0188533
-0.026164
-0.0362434
-0.0440596
-0.0495394
-0.0471075
-0.0426071
-0.0324726
-0.0227878
-0.0137978
-0.00524519
0.000673299
0.00593101
-0.000627516
-0.00792415
-0.0133858
-0.018393
-0.00903185
-0.0280913
-0.0223868
-0.0176814
-0.0145877
-0.0143196
-0.0180797
-0.0258173
-0.0364122
-0.0446923
-0.0504752
-0.048066
-0.0434678
-0.0329743
-0.0228405
-0.0134474
-0.00443219
0.00154904
0.00688305
-4.66897e-05
-0.00773469
-0.0135841
-0.0189111
-0.00938986
-0.0275473
-0.0215804
-0.0167125
-0.0135237
-0.0133159
-0.0173029
-0.0254601
-0.0365692
-0.0453168
-0.0514045
-0.049016
-0.0443224
-0.0334739
-0.0228959
-0.0131056
-0.00362838
0.00241471
0.00782699
0.000533929
-0.00754266
-0.013776
-0.019422
-0.00974692
-0.0270205
-0.020798
-0.0157686
-0.0124785
-0.01232
-0.016523
-0.0250921
-0.0367139
-0.0459328
-0.052327
-0.049957
-0.0451706
-0.033971
-0.0229541
-0.0127727
-0.00283427
0.00326999
0.00876247
0.00111434
-0.0073481
-0.013961
-0.0199252
-0.0101028
-0.0265109
-0.0200397
-0.01485
-0.0114526
-0.0113323
-0.01574
-0.0247129
-0.0368458
-0.0465397
-0.0532423
-0.0508886
-0.0460122
-0.0344655
-0.0230153
-0.0124489
-0.00205035
0.00411467
0.00968913
0.00169455
-0.00715102
-0.0141388
-0.0204206
-0.0104574
-0.0260183
-0.0193053
-0.0139567
-0.0104463
-0.0103531
-0.0149543
-0.0243225
-0.0369643
-0.0471371
-0.0541502
-0.0518104
-0.046847
-0.0349574
-0.0230796
-0.0121347
-0.0012771
0.00494847
0.0106066
0.00227454
-0.00695147
-0.0143093
-0.0209079
-0.0108104
-0.0255427
-0.0185947
-0.0130891
-0.00946022
-0.00938301
-0.014166
-0.0239204
-0.037069
-0.0477244
-0.0550504
-0.0527218
-0.0476747
-0.0354463
-0.023147
-0.0118302
-0.000514986
0.00577108
0.0115146
0.00285433
-0.00674949
-0.0144722
-0.021387
-0.0111617
-0.0250838
-0.017908
-0.0122471
-0.00849467
-0.00842232
-0.0133753
-0.0235065
-0.0371595
-0.0483012
-0.0559426
-0.0536225
-0.0484952
-0.0359322
-0.0232175
-0.0115357
0.000235537
0.00658208
0.0124126
0.00343388
-0.00654512
-0.0146273
-0.0218575
-0.011511
-0.0246415
-0.0172448
-0.0114309
-0.00755011
-0.00747151
-0.0125824
-0.0230806
-0.0372352
-0.0488671
-0.0568265
-0.054512
-0.0493081
-0.0364148
-0.0232912
-0.0112515
0.000974032
0.00738093
0.0133005
0.00401321
-0.00633843
-0.0147743
-0.0223193
-0.0118582
-0.0242155
-0.016605
-0.0106406
-0.00662694
-0.00653103
-0.0117875
-0.0226425
-0.0372958
-0.0494216
-0.0577019
-0.0553898
-0.0501134
-0.036894
-0.0233682
-0.0109777
0.00170007
0.00816723
0.0141777
0.00459228
-0.00612946
-0.014913
-0.0227722
-0.012203
-0.0238055
-0.0159883
-0.0098761
-0.00572559
-0.00560134
-0.010991
-0.022192
-0.0373408
-0.0499642
-0.0585685
-0.0562556
-0.0509108
-0.0373695
-0.0234484
-0.0107146
0.00241324
0.00894071
0.0150439
0.00517107
-0.0059183
-0.0150432
-0.0232159
-0.0125452
-0.0234112
-0.0153946
-0.00913752
-0.00484645
-0.0046829
-0.0101932
-0.021729
-0.0373698
-0.0504944
-0.0594261
-0.0571089
-0.0517002
-0.0378412
-0.0235318
-0.0104622
0.00311312
0.00970118
0.0158989
0.00574956
-0.00570501
-0.0151648
-0.0236504
-0.0128847
-0.0230325
-0.0148235
-0.00842486
-0.00398998
-0.0037762
-0.00939433
-0.0212535
-0.0373823
-0.0510118
-0.0602745
-0.0579492
-0.0524814
-0.0383087
-0.0236184
-0.0102208
0.00379932
0.0104485
0.0167422
0.00632772
-0.00548967
-0.0152777
-0.0240753
-0.0132211
-0.0226691
-0.014275
-0.00773828
-0.00315674
-0.00288181
-0.00859477
-0.0207653
-0.0373781
-0.0515159
-0.0611134
-0.0587762
-0.0532543
-0.038772
-0.0237082
-0.00999055
0.00447139
0.0111823
0.0175734
0.00690551
-0.00527237
-0.0153816
-0.0244906
-0.0135543
-0.0223207
-0.0137484
-0.00707768
-0.00234566
-0.00200032
-0.00779495
-0.0202644
-0.0373566
-0.0520061
-0.0619426
-0.0595889
-0.0540188
-0.0392308
-0.0238011
-0.00977143
0.005129
0.0119024
0.0183923
0.00748289
-0.00505318
-0.0154764
-0.0248961
-0.0138841
-0.0219854
-0.013242
-0.00644144
-0.00155784
-0.00113175
-0.0069951
-0.0197508
-0.0373176
-0.0524823
-0.0627624
-0.0603885
-0.0547752
-0.039685
-0.0238968
-0.00956287
0.0057723
0.0126089
0.0191985
0.00805981
-0.00483223
-0.0155621
-0.0252916
-0.0142102
-0.0216611
-0.0127532
-0.00582727
-0.000909319
-0.000275357
-0.00619514
-0.0192244
-0.0372613
-0.0529448
-0.0635735
-0.0612226
-0.0555232
-0.0401337
-0.0239943
-0.00936409
0.0064016
0.0133022
0.0199921
0.00863623
-0.00460966
-0.0156387
-0.0256771
-0.0145326
-0.0213547
-0.0122903
-0.00524402
-0.000157678
0.000565097
-0.00539682
-0.0186858
-0.0371871
-0.0533921
-0.0643732
-0.061991
-0.05626
-0.0405751
-0.0240945
-0.00917857
0.0070135
0.0139797
0.0207717
0.00921189
-0.00438554
-0.0157058
-0.0260523
-0.0148507
-0.0210915
-0.0118815
-0.00472494
0.000542711
0.00136874
-0.00460986
-0.0181349
-0.0370881
-0.0538113
-0.065145
-0.0627278
-0.0569805
-0.0410111
-0.0242046
-0.00901867
0.00759695
0.0146316
0.0215324
0.00978617
-0.00415896
-0.0157624
-0.0264157
-0.0151637
-0.0208613
-0.0115078
-0.00424868
0.00117296
0.00213866
-0.00383344
-0.0175668
-0.0369545
-0.0541938
-0.0658899
-0.0634105
-0.0577007
-0.0414581
-0.0243318
-0.00888094
0.0081576
0.0152627
0.0222751
0.0103606
-0.00392885
-0.0158078
-0.0267674
-0.0154725
-0.0204655
-0.0109265
-0.00351043
0.00205634
0.00309485
-0.00295253
-0.0169733
-0.036863
-0.0546842
-0.0667854
-0.0642341
-0.0584936
-0.0419283
-0.0244342
-0.00866607
0.00879465
0.0159725
0.0230507
0.0109446
-0.00370522
-0.0158572
-0.0271207
-0.015785
-0.0191204
-0.00898032
-0.000904957
0.0054454
0.0062129
-0.000366518
-0.0155714
-0.0370776
-0.0565001
-0.0695314
-0.067122
-0.060463
-0.0429894
-0.0245401
-0.00792803
0.0104509
0.0178322
0.0249116
0.0122273
-0.00327655
-0.0160083
-0.0279005
-0.0164571
-0.017387
-0.00706598
0.00108136
0.00742513
0.00845985
0.00169082
-0.0143563
-0.0373153
-0.0582415
-0.0722697
-0.0688104
-0.0623143
-0.0439095
-0.0244058
-0.00700061
0.0123697
0.0198465
0.0271339
0.0137935
-0.00264792
-0.0160368
-0.0288626
-0.0173678
-0.0156581
-0.00519474
0.00305498
0.00971737
0.0106225
0.00354098
-0.0132424
-0.0374856
-0.0598299
-0.0749959
-0.0748837
-0.0640693
-0.0447099
-0.0242103
-0.00612582
0.0142097
0.0217526
0.0292462
0.0152752
-0.00200492
-0.0159548
-0.0296993
-0.0182207
-0.0139022
-0.00335727
0.00500425
0.0119039
0.0128185
0.00551133
-0.0120034
-0.0376041
-0.0615053
-0.0778143
-0.0769868
-0.0656365
-0.0453627
-0.023925
-0.00528321
0.0159782
0.0235637
0.0312846
0.0167471
-0.00133885
-0.0158061
-0.0304094
-0.0190096
-0.0121236
-0.00157246
0.00682849
0.0139098
0.0149348
0.00748823
-0.0107038
-0.0376869
-0.0631974
-0.0805705
-0.0790153
-0.0669687
-0.045827
-0.0235362
-0.00447004
0.017635
0.0252274
0.0331995
0.0181864
-0.000660601
-0.0155896
-0.0309713
-0.0197179
-0.0103301
0.000150235
0.00852108
0.015772
0.0169014
0.00936917
-0.00940176
-0.037698
-0.0647809
-0.0831775
-0.0809559
-0.0680372
-0.0460798
-0.0230345
-0.00368333
0.0191589
0.0267335
0.0349567
0.019568
2.14886e-05
-0.0152926
-0.0313716
-0.0203323
-0.00853034
0.00180614
0.0100824
0.0174728
0.0186965
0.0111263
-0.00809819
-0.0375888
-0.0661854
-0.0855905
-0.0827484
-0.0688179
-0.046098
-0.0224096
-0.00291764
0.0205336
0.0280716
0.0365365
0.0208807
0.000703043
-0.0149112
-0.0316029
-0.0208411
-0.00673432
0.00338966
0.0115075
0.0189959
0.0203103
0.0127538
-0.00678294
-0.0373287
-0.0673605
-0.0877434
-0.0843237
-0.0692795
-0.0458586
-0.0216522
-0.00216588
0.021743
0.0292298
0.0379216
0.0221155
0.00137892
-0.0144497
-0.0316602
-0.0212334
-0.00495403
0.0048938
0.0127912
0.0203287
0.0217292
0.0142383
-0.00545925
-0.0368943
-0.0682363
-0.0895408
-0.0855994
-0.0693863
-0.0453403
-0.0207542
-0.00141984
0.0227723
0.0301968
0.039093
0.0232603
0.00204245
-0.0139144
-0.0315391
-0.0214997
-0.00320273
0.00631083
0.0139295
0.0214586
0.0229353
0.0155576
-0.00413886
-0.0362549
-0.0687218
-0.0908676
-0.0864808
-0.0690991
-0.0445244
-0.0197097
-0.000670614
0.0236093
0.0309627
0.0400312
0.0242998
0.00268681
-0.0133122
-0.0312376
-0.0216324
-0.00149416
0.00763268
0.014919
0.0223728
0.0239094
0.0166867
-0.00283354
-0.0353731
-0.0687176
-0.0915938
-0.0868618
-0.0683763
-0.0433956
-0.0185156
9.07826e-05
0.0242454
0.0315188
0.0407168
0.0252163
0.0033056
-0.0126509
-0.0307556
-0.021626
0.000158281
0.00885163
0.0157574
0.0230602
0.0246327
0.0176021
-0.00155469
-0.0342122
-0.0681228
-0.0915807
-0.0866279
-0.067176
-0.0419436
-0.017173
0.000872613
0.0246766
0.0318585
0.041131
0.0259898
0.00389271
-0.0119393
-0.0300949
-0.0214776
0.00174254
0.00996134
0.0164445
0.0235128
0.0250887
0.0182826
-0.000315952
-0.0327411
-0.0668419
-0.0906901
-0.0856627
-0.0654581
-0.0401636
-0.0156869
0.00168146
0.024905
0.0319773
0.0412559
0.0265978
0.00444218
-0.0111861
-0.0292591
-0.0211866
0.00324879
0.0109579
0.0169833
0.0237279
0.0252648
0.0187093
0.000866293
-0.0309363
-0.0647927
-0.0887967
-0.0838569
-0.0631876
-0.0380578
-0.0140675
0.00252131
0.0249395
0.0318741
0.0410744
0.0270159
0.00494838
-0.0103987
-0.0282521
-0.0207542
0.00467027
0.0118412
0.0173812
0.0237097
0.0251541
0.018868
0.00197424
-0.0287852
-0.0619169
-0.0858031
-0.0811203
-0.060339
-0.0356363
-0.01233
0.00339283
0.0247964
0.0315518
0.0405718
0.0272181
0.00540626
-0.00958237
-0.0270782
-0.0201832
0.0060039
0.012615
0.0176504
0.0234725
0.0247583
0.0187515
0.00299027
-0.0262897
-0.0581894
-0.0816531
-0.0773923
-0.0569005
-0.0329177
-0.0104943
0.00429307
0.0244997
0.0310184
0.0397367
0.0271794
0.00581178
-0.0087381
-0.0257405
-0.0194768
0.00725065
0.0132881
0.0178087
0.0230404
0.0240905
0.0183625
0.00389847
-0.0234695
-0.0536271
-0.0763455
-0.0726544
-0.0528791
-0.0299292
-0.00858463
0.00521559
0.0240804
0.0302879
0.038563
0.0268775
0.00616272
-0.00786173
-0.0242409
-0.0186373
0.00841548
0.0138733
0.0178797
0.0224485
0.0231782
0.0177168
0.00468672
-0.0203628
-0.0482932
-0.0699426
-0.0669398
-0.0483047
-0.0267065
-0.00662787
0.0061513
0.023574
0.0293825
0.0370527
0.0262973
0.00645992
-0.00694221
-0.0225789
-0.0176626
0.00950702
0.014387
0.0178922
0.0217415
0.0220594
0.0168483
0.00534974
-0.0170249
-0.0422985
-0.0625729
-0.0603377
-0.0432329
-0.0232931
-0.00465239
0.00708977
0.0230177
0.0283327
0.0352173
0.0254357
0.00670945
-0.00596066
-0.0207515
-0.0165588
0.0105368
0.0148476
0.0178778
0.0209756
0.0208141
0.0158109
0.00589334
-0.0135251
-0.035796
-0.054426
-0.0529952
-0.0377474
-0.01974
-0.00268611
0.00802092
0.0224466
0.0271791
0.0330939
0.0243077
0.00692516
-0.00489023
-0.0187541
-0.0153192
0.0115178
0.0152753
0.0178678
0.0202167
0.0195167
0.0146782
0.006339
-0.00994091
-0.0289722
-0.0457435
-0.0451028
-0.0319588
-0.0161041
-0.000754844
0.00893633
0.0218904
0.0259722
0.0307386
0.0229492
0.00713139
-0.00369762
-0.0165826
-0.0139404
0.0124629
0.0156899
0.0178909
0.0195333
0.0182641
0.0135505
0.00672888
-0.00635013
-0.0220359
-0.0368025
-0.0362905
-0.0260007
-0.0124472
0.00111905
0.00982978
0.0213713
0.0247691
0.0282271
0.0214222
0.00736472
-0.00234736
-0.014237
-0.0124222
0.0133819
0.0161094
0.0179703
0.0189903
0.0171664
0.0125535
0.00712808
-0.00282431
-0.0152052
-0.0279371
-0.02814
-0.0200591
-0.0088342
0.00291751
0.0106968
0.0209029
0.0236279
0.0256663
0.0198161
0.00767299
-0.000809602
-0.011727
-0.010772
0.0142805
0.0165461
0.0181189
0.0186418
0.0163336
0.0118233
0.00762035
0.000576496
-0.00868871
-0.0194368
-0.0202204
-0.0142833
-0.00532909
0.00462693
0.0115335
0.0204906
0.0226013
0.0231892
0.0182404
0.00810993
0.000928953
-0.00908028
-0.00900989
0.0151591
0.0170061
0.0183373
0.0185142
0.0158549
0.0114867
0.00829446
0.00380565
-0.00267226
-0.0115652
-0.0127801
-0.00881942
-0.00199247
0.00623763
0.0123353
0.0201327
0.0217274
0.0209433
0.0168113
0.00872482
0.0028525
-0.00634792
-0.00717184
0.0160143
0.0174899
0.0186176
0.0185988
0.0157734
0.0116268
0.00922123
0.00682773
0.00269557
-0.00453392
-0.00604447
-0.00380216
0.00112064
0.00774294
0.0130962
0.0198223
0.0210211
0.0190675
0.015632
0.00954677
0.0049063
-0.00360727
-0.00531152
0.0168394
0.0179917
0.0189459
0.0188601
0.0160763
0.0122586
0.0104299
0.00961563
0.0073154
0.00151281
-0.000178673
0.000664768
0.00396494
0.00913801
0.013809
0.0195507
0.0204748
0.0176618
0.0147711
0.0105679
0.00699466
-0.000959024
-0.00349678
0.0176259
0.0185011
0.0193037
0.0192411
0.0166889
0.0133188
0.0118972
0.0121485
0.0111417
0.00650762
0.00472883
0.00452354
0.00650869
0.0104188
0.014466
0.0193084
0.0200635
0.0167634
0.0142431
0.0117315
0.00898877
0.00148558
-0.00180145
0.0183646
0.0190058
0.0196711
0.0196768
0.0174938
0.0146765
0.0135501
0.0144109
0.0141904
0.0104704
0.00867545
0.00776404
0.00873617
0.0115816
0.0150595
0.019086
0.0197521
0.0163359
0.0140083
0.0129312
0.0107471
0.00362111
-0.000294991
0.0190478
0.0194937
0.0200305
0.0201102
0.0183617
0.0161542
0.0152706
0.0163841
0.0165304
0.0134993
0.0117377
0.0104213
0.0106467
0.0126241
0.0155817
0.0188765
0.0195002
0.0162802
0.0139894
0.0140322
0.0121499
0.00536522
0.000967097
0.0196697
0.0199545
0.0203696
0.0205032
0.0191829
0.0175622
0.0169113
0.0180366
0.0182587
0.0157395
0.0140423
0.0125632
0.0122522
0.0135454
0.0160256
0.0186744
0.0192659
0.0164613
0.014106
0.0149162
0.0131259
0.00667287
0.00195161
0.0202262
0.0203797
0.020681
0.0208391
0.0198888
0.0187758
0.0183333
0.0193358
0.0194793
0.017348
0.0157296
0.0138517
0.01357
0.0143463
0.0163877
0.0184742
0.0190193
0.0167399
0.0142924
0.0155121
0.0136648
0.00754756
0.00265207
0.0207154
0.0207622
0.0209591
0.021114
0.020451
0.0197345
0.0194511
0.0202758
0.0202937
0.0184706
0.0169674
0.0151903
0.0146551
0.0150299
0.0166683
0.0182711
0.0187458
0.0169987
0.0144987
0.0158101
0.0138198
0.00803917
0.00308926
0.0211371
0.0210972
0.0212001
0.0213306
0.0208701
0.0204308
0.0202525
0.0208916
0.0207963
0.019227
0.0178578
0.0162039
0.0155277
0.0155992
0.0168704
0.0180629
0.0184413
0.0171571
0.0146925
0.0158507
0.0136826
0.00822578
0.00330552
0.0214931
0.0213828
0.0214029
0.0214952
0.0211655
0.0209048
0.0207804
0.0212468
0.0210694
0.0197108
0.0184789
0.0169556
0.0162127
0.0160587
0.0169997
0.0178481
0.0181077
0.0171737
0.0148373
0.0156851
0.0133477
0.00819144
0.00335476
0.0216196
0.0215683
0.0216148
0.0213622
0.0212059
0.0210981
0.0214109
0.0211795
0.0199949
0.0188925
0.0174975
0.016735
0.0164142
0.0170633
0.0176245
0.0177487
0.0170423
0.0148906
0.0153552
0.0128892
0.00800932
0.00329125
0.02181
0.0216983
0.0216964
0.0214835
0.0213788
0.0212647
0.021444
0.0211773
0.0201349
0.0191472
0.0178717
0.0171191
0.0166734
0.0170683
0.0173891
0.0173686
0.01678
0.0148215
0.0148948
0.0123565
0.00773468
0.00316052
0.0219575
0.0217954
0.0217458
0.0215486
0.0214592
0.0213264
0.0213913
0.0210998
0.0201723
0.0192814
0.0181124
0.0173888
0.0168448
0.0170218
0.0171395
0.0169722
0.0164151
0.0146246
0.0143375
0.0117815
0.00740593
0.00299551
0.0220663
0.0218628
0.0217682
0.0215708
0.021474
0.0213166
0.021285
0.0209734
0.0201375
0.0193257
0.0182458
0.0174689
0.0169366
0.0169305
0.0168746
0.0165651
0.015981
0.0143185
0.0137184
0.0111864
0.00704919
0.00281728
0.0221409
0.0219042
0.0217681
0.0215534
0.0214422
0.0212585
0.0211464
0.0208167
0.0200531
0.019304
0.0183039
0.0175649
0.016968
0.0168018
0.0165953
0.0161531
0.0155077
0.0139331
0.0130706
0.0105888
0.00668243
0.00263808
0.0221857
0.0219227
0.02175
0.0215196
0.0213796
0.0211687
0.0209898
0.0206426
0.0199349
0.0192346
0.0183025
0.0175895
0.0169462
0.0166423
0.0163039
0.0157418
0.0150186
0.0134986
0.0124218
0.0100028
0.00631821
0.00246467
0.0222046
0.0219214
0.0217168
0.0214697
0.0212968
0.0210588
0.0208246
0.0204598
0.0197947
0.0191309
0.0182547
0.0175577
0.0168797
0.0164581
0.016004
0.0153357
0.0145298
0.0130398
0.0117921
0.00943952
0.00596515
0.00230061
0.0222017
0.0219031
0.0216712
0.021407
0.0212008
0.0209365
0.0206567
0.0202743
0.0196404
0.0190028
0.0181715
0.0174819
0.0167769
0.016255
0.0156996
0.0149388
0.0140523
0.0125754
0.0111944
0.00890687
0.00562899
0.00214774
0.0221805
0.0218704
0.0216154
0.0213345
0.0210967
0.0208075
0.0204897
0.0200899
0.0194783
0.0188582
0.0180616
0.0173725
0.0166455
0.0160384
0.0153945
0.0145541
0.0135927
0.0121186
0.0106362
0.0084098
0.00531331
0.00200685
0.0221441
0.0218259
0.0215513
0.0212548
0.0209879
0.0206755
0.0203261
0.0199092
0.0193125
0.0187028
0.0179323
0.0172381
0.0164848
0.0158132
0.0150926
0.0141827
0.0131497
0.0116779
0.0101209
0.00795092
0.00502009
0.00187815
0.0220953
0.0217715
0.0214802
0.0211699
0.020877
0.0205433
0.0201672
0.0197339
0.0191464
0.0185413
0.0177897
0.0170869
0.016317
0.0155833
0.014797
0.0138292
0.0127366
0.0112598
0.00964936
0.00753103
0.00475023
0.00176148
0.0220369
0.0217096
0.0214047
0.0210816
0.0207658
0.0204128
0.0200141
0.019565
0.0189823
0.0183773
0.0176386
0.0169251
0.0161389
0.0153548
0.0145105
0.0134939
0.0123499
0.0108678
0.00922084
0.00714973
0.0045038
0.00165638
0.0219711
0.021642
0.021326
0.0209917
0.0206559
0.0202854
0.0198673
0.0194033
0.018822
0.0182137
0.0174832
0.0167576
0.0159553
0.0151293
0.0142351
0.0131777
0.0119901
0.0105036
0.00883359
0.0068058
0.00428036
0.00156227
0.0219001
0.0215702
0.0212454
0.0209013
0.0205484
0.0201622
0.0197274
0.0192495
0.018667
0.0180531
0.0173268
0.0165884
0.0157706
0.0149097
0.013973
0.0128815
0.0116575
0.010168
0.00848539
0.00649751
0.0040791
0.00147845
0.0218261
0.0214962
0.0211643
0.0208119
0.0204443
0.0200443
0.019595
0.019104
0.0185187
0.0178976
0.0171725
0.0164212
0.0155884
0.0146986
0.0137259
0.0126062
0.0113523
0.00986114
0.00817388
0.00622285
0.00389903
0.0014042
0.0217509
0.0214218
0.0210841
0.0207245
0.0203446
0.0199323
0.0194705
0.0189675
0.0183782
0.017749
0.0170228
0.016259
0.0154121
0.014498
0.0134951
0.0123523
0.0110743
0.00958273
0.00789672
0.00597974
0.00373904
0.00133882
0.0216763
0.0213483
0.0210062
0.0206406
0.0202502
0.0198272
0.0193546
0.0188406
0.0182465
0.0176089
0.0168799
0.0161044
0.0152443
0.0143101
0.0132819
0.0121204
0.0108231
0.00933237
0.00765175
0.00576613
0.003598
0.00128163
0.0216041
0.0212773
0.0209318
0.0205611
0.0201621
0.0197298
0.0192478
0.0187238
0.0181247
0.0174788
0.0167459
0.0159597
0.0150876
0.0141366
0.0130876
0.0119109
0.0105987
0.00910963
0.00743704
0.00558011
0.00347485
0.00123203
0.0215358
0.0212102
0.0208622
0.0204874
0.0200812
0.0196409
0.0191509
0.0186181
0.0180139
0.0173601
0.0166228
0.0158269
0.0149441
0.0139792
0.0129133
0.0117243
0.0104008
0.00891408
0.00725098
0.00541996
0.00336861
0.00118947
0.0214729
0.0211487
0.0207988
0.0204206
0.0200086
0.0195615
0.0190648
0.0185243
0.0179152
0.0172543
0.0165124
0.0157079
0.0148158
0.0138395
0.0127599
0.0115614
0.0102295
0.00874543
0.00709228
0.00528424
0.00327843
0.00115351
0.0214172
0.0210942
0.0207428
0.0203619
0.0199453
0.0194927
0.0189903
0.0184433
0.0178298
0.0171626
0.0164162
0.0156046
0.0147045
0.013719
0.0126287
0.0114228
0.0100848
0.00860355
0.00696001
0.00517179
0.00320365
0.00112379
0.0213699
0.0210479
0.0206956
0.0203126
0.0198924
0.0194353
0.0189285
0.0183762
0.0177589
0.0170864
0.0163361
0.0155185
0.0146121
0.0136193
0.0125208
0.0113094
0.00996719
0.00848853
0.0068536
0.00508181
0.00314379
0.00110003
0.0213325
0.0210114
0.0206585
0.0202738
0.019851
0.0193906
0.0188804
0.018324
0.0177037
0.017027
0.0162736
0.0154514
0.0145401
0.0135419
0.0124375
0.0112221
0.00987721
0.00840074
0.00677289
0.00501385
0.00309863
0.00108207
0.0213064
0.0209859
0.0206325
0.0202469
0.0198223
0.0193596
0.0188471
0.0182879
0.0176655
0.016986
0.0162303
0.015405
0.0144904
0.0134885
0.0123802
0.0111622
0.00981579
0.00834087
0.00671817
0.00496787
0.00306821
0.00106984
0.0212929
0.0209726
0.0206191
0.0202328
0.0198074
0.0193435
0.0188299
0.0182692
0.0176458
0.0169647
0.0162079
0.0153808
0.0144647
0.0134608
0.0123508
0.0111312
0.00978434
0.00830998
0.00669031
0.00494423
0.00305292
0.00106346
0.0193914
0.0190397
0.0186458
0.0182044
0.0177204
0.0171891
0.0166158
0.0159964
0.0153349
0.014627
0.0138754
0.0130734
0.0122248
0.0113179
0.0103622
0.00933968
0.00826978
0.00713109
0.00595041
0.00470869
0.00342903
0.00209604
0.000721695
0.0194114
0.0190591
0.0186646
0.0182222
0.0177373
0.0172048
0.0166305
0.0160103
0.0153483
0.0146401
0.0138884
0.0130863
0.0122378
0.0113305
0.0103749
0.00935102
0.00828049
0.00713965
0.00595789
0.00471406
0.00343323
0.00209822
0.000722652
0.0194501
0.0190967
0.0187009
0.0182565
0.0177697
0.017235
0.0166588
0.0160371
0.0153739
0.0146654
0.0139133
0.0131114
0.0122629
0.0113552
0.0103992
0.00937318
0.00830099
0.0071564
0.00597203
0.00472478
0.00344101
0.0021032
0.000724221
0.0195063
0.0191514
0.0187537
0.0183063
0.0178166
0.0172786
0.0166996
0.0160757
0.0154109
0.0147018
0.0139493
0.0131478
0.0122993
0.0113912
0.0104346
0.00940546
0.00833078
0.00718067
0.00599243
0.00474037
0.00345229
0.00211084
0.000726379
0.0195791
0.0192221
0.018822
0.0183706
0.0178769
0.0173344
0.0167518
0.0161251
0.0154581
0.0147486
0.0139954
0.0131947
0.0123463
0.0114379
0.0104806
0.00944728
0.00836935
0.00721187
0.00601865
0.00476041
0.00346691
0.00212112
0.000729173
0.0196677
0.0193082
0.0189049
0.0184483
0.0179496
0.0174015
0.0168142
0.0161841
0.0155145
0.0148047
0.0140509
0.0132516
0.0124033
0.0114947
0.0105368
0.00949819
0.00841626
0.00724941
0.00605021
0.00478446
0.0034847
0.00213422
0.000732645
0.0197713
0.0194088
0.0190016
0.0185385
0.0180336
0.0174785
0.0168856
0.0162514
0.015579
0.0148693
0.0141149
0.0133177
0.0124695
0.0115613
0.0106027
0.00955773
0.00847108
0.00729265
0.00608656
0.00481199
0.00350555
0.00215043
0.000736839
0.0198893
0.0195233
0.0191114
0.0186403
0.0181279
0.0175642
0.0169648
0.016326
0.0156506
0.0149414
0.0141867
0.0133925
0.0125446
0.0116373
0.0106782
0.0096255
0.00853341
0.0073409
0.00612709
0.0048424
0.00352945
0.00217019
0.000741817
0.0200213
0.0196513
0.0192337
0.0187528
0.0182313
0.0176573
0.0170504
0.0164064
0.0157281
0.0150201
0.0142654
0.0134755
0.0126278
0.0117225
0.010763
0.00970111
0.00860282
0.00739335
0.00617103
0.00487491
0.00355647
0.00219413
0.000747666
0.0201671
0.0197923
0.0193681
0.0188752
0.0183428
0.0177565
0.0171409
0.0164912
0.0158102
0.0151045
0.0143505
0.0135662
0.0127186
0.0118167
0.0108569
0.00978416
0.00867887
0.00744908
0.00621744
0.00490857
0.00358681
0.00222309
0.000754518
0.0203265
0.0199463
0.0195138
0.0190064
0.0184609
0.01786
0.0172347
0.0165788
0.0158957
0.0151936
0.0144411
0.0136642
0.0128165
0.0119199
0.0109598
0.00987421
0.00876102
0.00750695