/*--------------------------------*- C++ -*----------------------------------*\
  =========                 |
  \\      /  F ield         | OpenFOAM: The Open Source CFD Toolbox
   \\    /   O peration     | Website:  https://openfoam.org
    \\  /    A nd           | Version:  7
     \\/     M anipulation  |
\*---------------------------------------------------------------------------*/
FoamFile
{
    version     2.0;
    format      ascii;
    class       surfaceScalarField;
    location    "300";
    object      phi;
}
// * * * * * * * * * * * * * * * * * * * * * * * * * * * * * * * * * * * * * //

dimensions      [0 3 -1 0 0 0 0];

internalField   nonuniform List<scalar> 
8927
(
0.00141603
-0.00968116
0.0097084
0.0014145
-0.0066481
0.00664964
0.00143457
-0.00259815
0.00257808
0.0014566
0.00180587
-0.00182791
0.00146201
0.00583783
-0.00584324
0.00145021
0.00906073
-0.00904892
0.00143533
0.011036
-0.0110212
0.00142578
0.0106375
-0.0106279
0.00142158
0.00852958
-0.00852538
0.00141757
0.00414535
-0.00414134
0.0014099
-0.000729902
0.000737568
0.00139712
-0.00580302
0.0058158
0.00138682
-0.00997862
0.00998892
0.0013812
-0.0108408
0.0108464
0.00137622
-0.0104826
0.0104876
0.00136431
-0.00539522
0.00540712
0.00134739
-0.000507167
0.000524094
0.00132983
0.00536414
-0.00534659
0.00131973
0.0108071
-0.010797
0.00131229
0.00922668
-0.00921924
0.00129777
0.00985168
-0.00983716
0.00127164
0.00176536
-0.00173923
-0.00484603
0.00486698
0.00141226
-0.00965555
0.00141296
-0.00664881
0.00143498
-0.00262017
0.00145839
0.00178246
0.00146491
0.00583132
0.00145413
0.0090715
0.00143951
0.0110506
0.00142923
0.0106477
0.00142363
0.00853518
0.00141813
0.00415085
0.00140908
-0.000720854
0.00139478
-0.00578872
0.00138356
-0.0099674
0.00137777
-0.010835
0.00137367
-0.0104785
0.00136325
-0.0053848
0.00134774
-0.000491653
0.00133188
0.00538
0.00132224
0.0108167
0.00131465
0.00923427
0.00129918
0.00986716
0.00127111
0.00179343
-0.00482436
0.0014084
-0.00963152
0.0014113
-0.00665171
0.00143525
-0.00264412
0.00146007
0.00175765
0.00146774
0.00582364
0.00145801
0.00908123
0.00144364
0.011065
0.00143259
0.0106588
0.00142561
0.00854216
0.00141865
0.00415781
0.00140826
-0.000710467
0.00139246
-0.00577291
0.00138033
-0.00995527
0.00137435
-0.010829
0.00137114
-0.0104753
0.00136224
-0.0053759
0.00134816
-0.000477578
0.00133402
0.00539415
0.00132484
0.0108259
0.00131712
0.009242
0.00130072
0.00988356
0.00127072
0.00182343
-0.00480199
0.00140446
-0.00960903
0.0014095
-0.00665675
0.00143537
-0.00266999
0.00146164
0.00173138
0.00147052
0.00581477
0.00146185
0.0090899
0.0014477
0.0110792
0.00143587
0.0106706
0.0014275
0.00855053
0.00141912
0.00416619
0.00140744
-0.00069879
0.00139017
-0.00575564
0.00137711
-0.00994222
0.00137095
-0.0108228
0.00136863
-0.010473
0.00136127
-0.00536853
0.00134866
-0.000464971
0.00133624
0.00540657
0.00132753
0.0108346
0.00131967
0.00924985
0.00130238
0.00990086
0.00127048
0.00185533
-0.00477892
0.00140041
-0.00958802
0.00140755
-0.00666389
0.00143534
-0.00269778
0.00146309
0.00170363
0.00147322
0.00580463
0.00146565
0.00909747
0.00145169
0.0110931
0.00143906
0.0106832
0.00142931
0.00856028
0.00141954
0.00417596
0.00140662
-0.000685868
0.0013879
-0.00573692
0.00137392
-0.00992824
0.00136757
-0.0108165
0.00136614
-0.0104715
0.00136034
-0.00536273
0.00134923
-0.000453858
0.00133854
0.00541726
0.0013303
0.0108429
0.00132233
0.00925782
0.00130416
0.00991903
0.00127038
0.0018891
-0.00475515
0.00139626
-0.00956845
0.00140545
-0.00667308
0.00143514
-0.00272747
0.00146442
0.00167435
0.00147587
0.00579318
0.00146939
0.00910395
0.00145561
0.0111069
0.00144217
0.0106967
0.00143105
0.0085714
0.00141991
0.0041871
0.0014058
-0.000671751
0.00138567
-0.00571679
0.00137077
-0.00991334
0.0013642
-0.0108099
0.00136368
-0.010471
0.00135946
-0.00535851
0.00134986
-0.000444264
0.00134092
0.0054262
0.00133315
0.0108506
0.00132507
0.00926589
0.00130606
0.00993803
0.00127044
0.00192473
-0.00473069
0.001392
-0.00955025
0.00140319
-0.00668427
0.00143478
-0.00275905
0.00146563
0.00164351
0.00147843
0.00578038
0.00147307
0.00910932
0.00145947
0.0111205
0.00144519
0.010711
0.0014327
0.0085839
0.00142024
0.00419956
0.00140498
-0.000656488
0.00138347
-0.00569528
0.00136764
-0.00989752
0.00136086
-0.0108031
0.00136123
-0.0104714
0.00135861
-0.0053559
0.00135056
-0.000436212
0.00134338
0.00543338
0.00133607
0.0108579
0.00132791
0.00927406
0.00130809
0.00995785
0.00127065
0.00196217
-0.00470555
0.00138763
-0.00953337
0.00140077
-0.00669741
0.00143425
-0.00279254
0.00146671
0.00161106
0.00148092
0.00576616
0.00147669
0.00911354
0.00146325
0.0111339
0.00144813
0.0107261
0.00143428
0.00859775
0.00142052
0.00421332
0.00140416
-0.000640129
0.0013813
-0.00567242
0.00136455
-0.00988077
0.00135754
-0.0107961
0.0013588
-0.0104726
0.00135781
-0.0053549
0.00135132
-0.000429724
0.0013459
0.0054388
0.00133908
0.0108648
0.00133083
0.00928231
0.00131024
0.00997844
0.001271
0.00200141
-0.00467973
0.00138312
-0.00951774
0.00139817
-0.00671246
0.00143355
-0.00282791
0.00146765
0.00157695
0.00148333
0.00575049
0.00148025
0.00911661
0.00146697
0.0111472
0.00145099
0.0107421
0.00143577
0.00861296
0.00142075
0.00422835
0.00140334
-0.000622725
0.00137918
-0.00564825
0.0013615
-0.0098631
0.00135424
-0.0107889
0.0013564
-0.0104748
0.00135704
-0.00535554
0.00135214
-0.000424822
0.00134849
0.00544245
0.00134216
0.0108711
0.00133385
0.00929062
0.00131252
0.00999977
0.00127152
0.00204242
-0.00465325
0.00137849
-0.0095033
0.00139539
-0.00672936
0.00143266
-0.00286518
0.00146846
0.00154115
0.00148564
0.00573331
0.00148375
0.00911851
0.0014706
0.0111604
0.00145376
0.0107589
0.00143719
0.00862953
0.00142093
0.00424461
0.00140253
-0.000604328
0.00137709
-0.00562281
0.00135849
-0.0098445
0.00135097
-0.0107813
0.00135401
-0.0104778
0.00135631
-0.00535784
0.00135301
-0.000421525
0.00135115
0.00544431
0.00134531
0.0108769
0.00133695
0.00929899
0.00131492
0.0100218
0.00127218
0.00208515
-0.0046261
0.00137373
-0.00948999
0.00139243
-0.00674806
0.00143158
-0.00290433
0.00146912
0.00150361
0.00148786
0.00571456
0.00148717
0.0091192
0.00147416
0.0111734
0.00145644
0.0107766
0.00143853
0.00864744
0.00142106
0.00426208
0.00140173
-0.00058499
0.00137505
-0.00559613
0.00135552
-0.00982498
0.00134773
-0.0107736
0.00135165
-0.0104818
0.00135561
-0.0053618
0.00135394
-0.000419852
0.00135387
0.00544437
0.00134854
0.0108823
0.00134013
0.00930739
0.00131744
0.0100445
0.00127301
0.00212959
-0.00459829
0.00136882
-0.00947773
0.00138927
-0.00676851
0.00143031
-0.00294536
0.00146963
0.00146429
0.00148998
0.00569421
0.00149051
0.00911868
0.00147765
0.0111862
0.00145905
0.0107952
0.00143979
0.00866669
0.00142115
0.00428072
0.00140092
-0.000564765
0.00137305
-0.00556826
0.0013526
-0.00980453
0.00134452
-0.0107655
0.00134931
-0.0104865
0.00135495
-0.00536745
0.00135492
-0.00041982
0.00135665
0.00544264
0.00135183
0.0108871
0.0013434
0.00931582
0.00132009
0.0100678
0.00127399
0.00217569
-0.00456983
0.00136377
-0.00946646
0.00138592
-0.00679066
0.00142884
-0.00298828
0.00146999
0.00142314
0.001492
0.00567219
0.00149377
0.00911691
0.00148105
0.011199
0.00146156
0.0108147
0.00144098
0.00868728
0.00142118
0.00430051
0.00140013
-0.000543706
0.0013711
-0.00553923
0.00134972
-0.00978316
0.00134134
-0.0107571
0.00134698
-0.0104922
0.00135432
-0.00537478
0.00135594
-0.000421445
0.00135948
0.0054391
0.00135518
0.0108914
0.00134675
0.00932425
0.00132286
0.0100917
0.00127512
0.00222343
-0.00454073
0.00135856
-0.00945609
0.00138236
-0.00681446
0.00142716
-0.00303308
0.00147018
0.00138011
0.0014939
0.00564847
0.00149694
0.00911387
0.00148437
0.0112115
0.001464
0.0108351
0.00144208
0.00870919
0.00142117
0.00432143
0.00139933
-0.000521866
0.00136919
-0.00550909
0.0013469
-0.00976086
0.0013382
-0.0107484
0.00134468
-0.0104987
0.00135371
-0.00538382
0.00135701
-0.000424741
0.00136236
0.00543375
0.0013586
0.0108951
0.00135018
0.00933267
0.00132575
0.0101161
0.00127642
0.00227276
-0.00451098
0.0013532
-0.00944657
0.00137859
-0.00683984
0.00142527
-0.00307976
0.0014702
0.00133518
0.00149569
0.00562298
0.00150003
0.00910953
0.00148761
0.011224
0.00146635
0.0108563
0.00144311
0.00873244
0.0014211
0.00434344
0.00139853
-0.000499299
0.00136733
-0.00547788
0.00134412
-0.00973766
0.00133508
-0.0107393
0.0013424
-0.010506
0.00135314
-0.00539456
0.00135812
-0.000429723
0.00136529
0.00542658
0.00136208
0.0108984
0.00135368
0.00934107
0.00132876
0.0101411
0.00127787
0.00232365
-0.0044806
0.00134768
-0.0094378
0.0013746
-0.00686676
0.00142316
-0.00312832
0.00147005
0.00128828
0.00149735
0.00559569
0.00150301
0.00910387
0.00149077
0.0112362
0.00146862
0.0108785
0.00144406
0.008757
0.00142098
0.00436652
0.00139774
-0.00047606
0.00136552
-0.00544566
0.0013414
-0.00971354
0.001332
-0.01073
0.00134013
-0.0105141
0.00135259
-0.00540702
0.00135927
-0.000436402
0.00136826
0.00541759
0.00136562
0.010901
0.00135726
0.00934942
0.00133189
0.0101664
0.00127948
0.00237606
-0.00444959
0.001342
-0.0094297
0.00137039
-0.00689516
0.00142082
-0.00317875
0.00146972
0.00123939
0.00149887
0.00556653
0.0015059
0.00909684
0.00149383
0.0112483
0.00147081
0.0109015
0.00144493
0.00878287
0.00142081
0.00439065
0.00139695
-0.0004522
0.00136376
-0.00541247
0.00133873
-0.00968851
0.00132896
-0.0107202
0.00133788
-0.010523
0.00135206
-0.00542119
0.00136045
-0.00044479
0.00137128
0.00540676
0.00136921
0.0109031
0.00136091
0.00935772
0.00133514
0.0101922
0.00128126
0.00242994
-0.00441796
0.00133615
-0.00942221
0.00136596
-0.00692497
0.00141826
-0.00323105
0.00146919
0.00118846
0.00150026
0.00553546
0.00150868
0.00908843
0.00149681
0.0112601
0.00147292
0.0109254
0.00144573
0.00881006
0.00142058
0.0044158
0.00139615
-0.000427774
0.00136204
-0.00537836
0.00133612
-0.00966259
0.00132595
-0.01071
0.00133565
-0.0105327
0.00135156
-0.0054371
0.00136166
-0.000454898
0.00137433
0.00539409
0.00137285
0.0109046
0.00136463
0.00936593
0.00133851
0.0102183
0.00128319
0.00248526
-0.00438572
0.00133014
-0.00941522
0.0013613
-0.00695613
0.00141546
-0.0032852
0.00146847
0.00113544
0.0015015
0.00550244
0.00151135
0.00907858
0.0014997
0.0112718
0.00147494
0.0109502
0.00144645
0.00883855
0.00142029
0.00444196
0.00139535
-0.000402834
0.00136038
-0.00534339
0.00133356
-0.00963577
0.00132298
-0.0106994
0.00133344
-0.0105432
0.00135107
-0.00545472
0.0013629
-0.000466734
0.00137741
0.00537959
0.00137654
0.0109054
0.00136842
0.00937405
0.00134199
0.0102448
0.00128528
0.00254197
-0.00435286
0.00132395
-0.00940867
0.00135641
-0.00698859
0.00141242
-0.00334121
0.00146755
0.00108031
0.00150259
0.0054674
0.0015139
0.00906727
0.0015025
0.0112832
0.00147689
0.0109758
0.00144709
0.00886835
0.00141995
0.00446911
0.00139454
-0.000377433
0.00135876
-0.00530761
0.00133106
-0.00960807
0.00132005
-0.0106884
0.00133124
-0.0105544
0.0013506
-0.00547408
0.00136417
-0.000480305
0.00138052
0.00536324
0.00138027
0.0109057
0.00137227
0.00938205
0.00134559
0.0102714
0.00128753
0.00260003
-0.00431941
0.00131759
-0.00940245
0.00135128
-0.00702227
0.00140912
-0.00339906
0.00146641
0.00102302
0.00150352
0.00543029
0.00151633
0.00905446
0.00150521
0.0112943
0.00147875
0.0110022
0.00144766
0.00889944
0.00141954
0.00449723
0.00139373
-0.00035162
0.00135719
-0.00527107
0.00132862
-0.0095795
0.00131716
-0.010677
0.00132906
-0.0105663
0.00135014
-0.00549516
0.00136546
-0.00049562
0.00138365
0.00534505
0.00138405
0.0109053
0.00137618
0.00938991
0.0013493
0.0102983
0.00128994
0.00265938
-0.00428537
0.00131106
-0.00939649
0.0013459
-0.00705712
0.00140558
-0.00345874
0.00146506
0.000963543
0.00150427
0.00539108
0.00151863
0.0090401
0.00150782
0.0113051
0.00148053
0.0110295
0.00144815
0.00893182
0.00141908
0.0045263
0.00139291
-0.000325447
0.00135567
-0.00523384
0.00132625
-0.00955007
0.0013143
-0.010665
0.00132689
-0.0105789
0.0013497
-0.00551797
0.00136676
-0.000512684
0.00138681
0.005325
0.00138787
0.0109042
0.00138015
0.00939763
0.00135312
0.0103254
0.00129252
0.00271999
-0.00425074
0.00130435
-0.00939069
0.00134029
-0.00709305
0.00140178
-0.00352023
0.00146348
0.000901841
0.00150486
0.0053497
0.0015208
0.00902415
0.00151033
0.0113156
0.00148224
0.0110576
0.00144856
0.00896549
0.00141855
0.00455631
0.00139207
-0.000298963
0.0013542
-0.00519597
0.00132393
-0.0095198
0.00131149
-0.0106526
0.00132474
-0.0105921
0.00134927
-0.0055425
0.00136808
-0.000531501
0.00138998
0.00530311
0.00139172
0.0109025
0.00138418
0.00940517
0.00135705
0.0103525
0.00129524
0.00278179
-0.00421554
0.00129747
-0.00938496
0.00133442
-0.00713001
0.00139771
-0.00358351
0.00146167
0.000837885
0.00150525
0.00530612
0.00152284
0.00900656
0.00151274
0.0113257
0.00148386
0.0110865
0.00144891
0.00900044
0.00141797
0.00458724
0.00139122
-0.000272214
0.00135277
-0.00515753
0.00132167
-0.0094887
0.00130871
-0.0106396
0.0013226
-0.010606
0.00134884
-0.00556874
0.00136942
-0.000552076
0.00139317
0.00527935
0.00139561
0.0109
0.00138826
0.00941251
0.00136109
0.0103797
0.00129813
0.00284475
-0.00417977
0.00129042
-0.00937921
0.00132831
-0.0071679
0.00139338
-0.00364858
0.00145962
0.000771648
0.00150546
0.00526027
0.00152473
0.0089873
0.00151505
0.0113354
0.0014854
0.0111162
0.00144917
0.00903667
0.00141732
0.0046191
0.00139035
-0.000245247
0.00135139
-0.00511857
0.00131948
-0.00945678
0.00130597
-0.0106261
0.00132046
-0.0106205
0.00134842
-0.0055967
0.00137076
-0.000574412
0.00139637
0.00525374
0.00139953
0.0108969
0.00139239
0.00941965
0.00136523
0.0104068
0.00130118
0.0029088
-0.00414344
0.00128319
-0.00937336
0.00132195
-0.00720667
0.00138877
-0.0037154
0.00145732
0.000703106
0.00150547
0.00521212
0.00152647
0.0089663
0.00151726
0.0113446
0.00148687
0.0111465
0.00144936
0.00907418
0.0014166
0.00465186
0.00138946
-0.000218106
0.00135005
-0.00507916
0.00131734
-0.00942407
0.00130327
-0.010612
0.00131834
-0.0106356
0.00134801
-0.00562636
0.0013721
-0.00059851
0.00139957
0.00522628
0.00140348
0.010893
0.00139657
0.00942656
0.00136947
0.0104339
0.00130438
0.0029739
-0.00410657
0.00127579
-0.0093673
0.00131534
-0.00724622
0.0013839
-0.00378395
0.00145477
0.000632235
0.00150527
0.00516161
0.00152805
0.00894353
0.00151935
0.0113533
0.00148825
0.0111777
0.00144948
0.00911294
0.00141582
0.00468552
0.00138855
-0.000190834
0.00134875
-0.00503937
0.00131527
-0.00939059
0.00130062
-0.0105974
0.00131623
-0.0106512
0.00134759
-0.00565772
0.00137345
-0.000624372
0.00140278
0.00519696
0.00140745
0.0108883
0.00140079
0.00943321
0.00137382
0.0104609
0.00130774
0.00303998
-0.00406916
0.00126823
-0.00936096
0.00130848
-0.00728647
0.00137874
-0.00385422
0.00145196
0.000559017
0.00150486
0.00510871
0.00152947
0.00891892
0.00152134
0.0113614
0.00148956
0.0112094
0.00144953
0.00915297
0.00141498
0.00472008
0.00138761
-0.000163471
0.0013475
-0.00499925
0.00131326
-0.00935636
0.001298
-0.0105821
0.00131413
-0.0106673
0.00134718
-0.00569077
0.0013748
-0.000651998
0.00140598
0.00516578
0.00141145
0.0108828
0.00140506
0.0094396
0.00137826
0.0104877
0.00131125
0.00310699
-0.00403123
0.0012605
-0.00935423
0.00130136
-0.00732733
0.0013733
-0.00392616
0.00144888
0.000483436
0.00150423
0.00505336
0.00153072
0.00889242
0.00152321
0.0113689
0.00149078
0.0112419
0.00144951
0.00919424
0.00141406
0.00475552
0.00138665
-0.000136057
0.00134627
-0.00495887
0.00131132
-0.0093214
0.00129542
-0.0105662
0.00131203
-0.0106839
0.00134676
-0.00572551
0.00137615
-0.00068139
0.00140918
0.00513275
0.00141546
0.0108765
0.00140936
0.0094457
0.00138279
0.0105143
0.00131491
0.00317487
-0.0039928
0.0012526
-0.00934705
0.00129399
-0.00736872
0.00136759
-0.00399975
0.00144554
0.000405479
0.00150337
0.00499553
0.00153181
0.00886399
0.00152497
0.0113757
0.00149193
0.0112749
0.00144942
0.00923675
0.00141308
0.00479186
0.00138565
-0.000108626
0.00134508
-0.00491831
0.00130943
-0.00928575
0.00129288
-0.0105497
0.00130994
-0.010701
0.00134634
-0.00576191
0.00137749
-0.000712545
0.00141238
0.00509787
0.00141949
0.0108694
0.0014137
0.00945149
0.00138741
0.0105406
0.00131872
0.00324356
-0.00395386
0.00124456
-0.00933931
0.00128637
-0.00741054
0.00136158
-0.00407496
0.00144193
0.000325134
0.00150228
0.00493518
0.00153271
0.00883356
0.00152661
0.0113818
0.001493
0.0113085
0.00144926
0.0092805
0.00141203
0.00482908
0.00138462
-8.1214e-05
0.00134393
-0.00487762
0.0013076
-0.00924942
0.00129039
-0.0105325
0.00130785
-0.0107184
0.00134591
-0.00579997
0.00137883
-0.000745464
0.00141556
0.00506114
0.00142353
0.0108615
0.00141806
0.00945696
0.00139212
0.0105665
0.00132269
0.003313
-0.00391444
0.00123636
-0.00933094
0.0012785
-0.00745269
0.0013553
-0.00415175
0.00143804
0.000242394
0.00150094
0.00487228
0.00153342
0.00880108
0.00152812
0.0113871
0.00149399
0.0113426
0.00144903
0.00932546
0.00141092
0.00486719
0.00138355
-5.38509e-05
0.0013428
-0.00483686
0.00130584
-0.00921246
0.00128793
-0.0105146
0.00130576
-0.0107363
0.00134547
-0.00583968
0.00138015
-0.000780145
0.00141873
0.00502257
0.00142758
0.0108526
0.00142246
0.00946208
0.00139692
0.010592
0.0013268
0.00338312
-0.00387456
0.00122801
-0.00932187
0.00127038
-0.00749506
0.00134872
-0.00423009
0.00143387
0.000157249
0.00149937
0.00480678
0.00153395
0.0087665
0.00152951
0.0113916
0.00149489
0.0113773
0.00144873
0.00937162
0.00140973
0.0049062
0.00138245
-2.65654e-05
0.0013417
-0.00479612
0.00130413
-0.00917489
0.00128552
-0.0104959
0.00130368
-0.0107544
0.00134503
-0.00588102
0.00138147
-0.000816589
0.00142188
0.00498216
0.00143164
0.0108429
0.00142688
0.00946683
0.00140179
0.0106171
0.00133105
0.00345386
-0.00383423
0.00121952
-0.00931202
0.00126202
-0.00753756
0.00134186
-0.00430994
0.00142942
6.96933e-05
0.00149754
0.00473866
0.00153427
0.00872976
0.00153077
0.0113951
0.00149572
0.0114123
0.00144837
0.00941897
0.00140848
0.00494609
0.0013813
6.17088e-07
0.00134062
-0.00475544
0.00130248
-0.00913674
0.00128315
-0.0104766
0.0013016
-0.0107729
0.00134456
-0.00592398
0.00138277
-0.000854796
0.00142501
0.00493991
0.0014357
0.0108322
0.00143133
0.00947121
0.00140675
0.0106417
0.00133545
0.00352516
-0.00379346
0.0012109
-0.00930134
0.00125341
-0.00758006
0.00133472
-0.00439125
0.00142469
-2.02815e-05
0.00149546
0.0046679
0.0015344
0.00869082
0.00153189
0.0113976
0.00149647
0.0114477
0.00144795
0.00946748
0.00140716
0.00498688
0.0013801
2.76744e-05
0.00133956
-0.0047149
0.00130088
-0.00909807
0.00128082
-0.0104565
0.00129952
-0.0107916
0.00134409
-0.00596855
0.00138406
-0.000894767
0.00142813
0.00489584
0.00143977
0.0108205
0.00143579
0.00947519
0.00141177
0.0106657
0.00133999
0.00359694
-0.00375228
0.00120216
-0.00928975
0.00124456
-0.00762246
0.00132729
-0.00447398
0.00141969
-0.000112683
0.00149313
0.00459446
0.00153433
0.00864962
0.00153288
0.011399
0.00149713
0.0114835
0.00144747
0.00951714
0.00140577
0.00502858
0.00137886
5.45884e-05
0.00133852
-0.00467456
0.00129935
-0.00905889
0.00127853
-0.0104357
0.00129744
-0.0108105
0.0013436
-0.00601471
0.00138533
-0.000936505
0.00143122
0.00484995
0.00144384
0.0108079
0.00144027
0.00947875
0.00141687
0.0106891
0.00134467
0.00366914
-0.0037107
0.00119328
-0.00927722
0.00123546
-0.00766464
0.00131957
-0.00455809
0.00141441
-0.000207531
0.00149056
0.00451831
0.00153405
0.00860613
0.00153374
0.0113993
0.00149772
0.0115195
0.00144694
0.00956792
0.00140433
0.00507119
0.00137757
8.13445e-05
0.00133749
-0.00463449
0.00129786
-0.00901926
0.00127628
-0.0104142
0.00129536
-0.0108296
0.00134308
-0.00606243
0.00138659
-0.000980015
0.0014343
0.00480225
0.0014479
0.0107943
0.00144477
0.00948188
0.00142203
0.0107119
0.00134948
0.00374169
-0.00366875
0.00118428
-0.00926371
0.00122612
-0.00770648
0.00131153
-0.0046435
0.00140885
-0.000304853
0.00148773
0.00443943
0.00153357
0.00856029
0.00153446
0.0113985
0.00149823
0.0115557
0.00144636
0.0096198
0.00140283
0.00511472
0.00137624
0.000107935
0.00133648
-0.00459473
0.00129642
-0.0089792
0.00127408
-0.0103918
0.00129326
-0.0108488
0.00134254
-0.00611171
0.00138783
-0.00102531
0.00143735
0.00475274
0.00145196
0.0107797
0.00144927
0.00948458
0.00142725
0.0107339
0.00135442
0.00381452
-0.00362645
0.0011752
-0.00924919
0.00121658
-0.00774785
0.00130323
-0.00473015
0.00140304
-0.000404663
0.00148471
0.00435776
0.00153292
0.00851209
0.00153505
0.0113963
0.00149867
0.0115921
0.00144572
0.00967275
0.00140126
0.00515918
0.00137484
0.000134353
0.00133545
-0.00455534
0.00129503
-0.00893878
0.00127191
-0.0103687
0.00129117
-0.010868
0.00134198
-0.00616252
0.00138906
-0.00107239
0.00144039
0.00470141
0.00145603
0.010764
0.00145378
0.00948682
0.00143254
0.0107551
0.0013595
0.00388756
-0.00358381
0.00116638
-0.00923367
0.00120723
-0.00778871
0.00129509
-0.00481801
0.00139738
-0.000506947
0.00148176
0.00427338
0.00153225
0.00846159
0.00153556
0.011393
0.00149895
0.0116287
0.0014449
0.00972679
0.00139935
0.00520474
0.00137322
0.000160479
0.00133425
-0.00451637
0.00129365
-0.00889819
0.00126986
-0.0103449
0.00128908
-0.0108872
0.00134155
-0.00621499
0.00139025
-0.00112108
0.00144353
0.00464812
0.00146013
0.0107475
0.0014583
0.00948865
0.00143797
0.0107755
0.00136466
0.00396087
-0.00354091
0.00464365
-0.00906075
0.00458939
-0.00773445
0.00463606
-0.00486468
0.00471885
-0.000589737
0.00477125
0.00422099
0.00478142
0.00845142
0.00473759
0.0114369
0.00466121
0.0117051
0.00461285
0.00977516
0.00462504
0.00519255
0.00469248
9.30345e-05
0.00466621
-0.00449009
0.00457095
-0.00880293
0.00445975
-0.0102337
0.00442547
-0.010853
0.00448018
-0.0062697
0.00452749
-0.0011684
0.00462992
0.0045457
0.00465717
0.0107202
0.00465295
0.00949286
0.00461366
0.0108148
0.0043796
0.00419493
-0.00338331
0.00479529
-0.00887007
0.00472938
-0.00766854
0.00477782
-0.00491312
0.0048678
-0.000679718
0.00493383
0.00415496
0.00495307
0.00843217
0.00490962
0.0114803
0.00482391
0.0117908
0.00476693
0.00983214
0.00477466
0.00518482
0.00485767
1.00169e-05
0.00483679
-0.0044692
0.00473486
-0.008701
0.0046084
-0.0101073
0.00456461
-0.0108092
0.0046278
-0.0063329
0.00468059
-0.00122119
0.00480011
0.00442618
0.00482997
0.0106903
0.00482461
0.00949822
0.00479389
0.0108455
0.00454787
0.00444095
-0.00321555
0.00495428
-0.00866035
0.00487485
-0.00758912
0.00492303
-0.0049613
0.00502563
-0.000782324
0.00510433
0.00407626
0.00513342
0.00840308
0.00509099
0.0115227
0.00499729
0.0118845
0.00493147
0.00989797
0.00493716
0.00517913
0.00503144
-8.42652e-05
0.00501895
-0.00445671
0.00490984
-0.00859188
0.00476692
-0.00996434
0.00471177
-0.010754
0.00478246
-0.00640359
0.00484317
-0.00128189
0.00497651
0.00429283
0.00501091
0.010656
0.00500497
0.00950416
0.00498187
0.0108686
0.00472887
0.00469395
-0.00303654
0.00512103
-0.00843041
0.00502592
-0.00749401
0.00507344
-0.00500881
0.00518938
-0.000898266
0.0052833
0.00398234
0.00532435
0.00836204
0.00528462
0.0115625
0.00518352
0.0119856
0.00510867
0.00997282
0.00511115
0.00517664
0.00521645
-0.000189556
0.00521282
-0.00445309
0.00509669
-0.00847575
0.0049359
-0.00980355
0.00486696
-0.0106851
0.00494499
-0.00648162
0.00501387
-0.00135077
0.00516156
0.00414514
0.00520092
0.0106166
0.00519401
0.00951107
0.00517985
0.0108827
0.00492191
0.00495189
-0.00284647
0.00529609
-0.00817957
0.00518316
-0.00738107
0.00522873
-0.00505438
0.00535888
-0.00102842
0.00547058
0.00387064
0.00552637
0.00830625
0.00549158
0.0115973
0.00538413
0.0120931
0.00530048
0.0100565
0.00529866
0.00517846
0.00541358
-0.000304475
0.00541915
-0.00445866
0.00529611
-0.00835271
0.00511605
-0.0096235
0.00503061
-0.0105996
0.00511551
-0.00656652
0.00519289
-0.00142815
0.00535536
0.00398267
0.00540026
0.0105717
0.0053919
0.00951943
0.00538789
0.0108868
0.00512736
0.00521242
-0.00264575
0.00547988
-0.00790759
0.00534695
-0.00724815
0.00538884
-0.00509627
0.00553408
-0.00117367
0.00566616
0.00373856
0.00573979
0.00823261
0.00571263
0.0116244
0.00560064
0.0122051
0.00550924
0.0101479
0.00550186
0.00518584
0.00562408
-0.000426701
0.00563858
-0.00447315
0.00550866
-0.00822279
0.00530802
-0.00942286
0.00520314
-0.0104947
0.00529411
-0.00665749
0.00538044
-0.00151448
0.00555802
0.00380508
0.00560911
0.0105206
0.00559868
0.00952986
0.00560595
0.0108795
0.0053455
0.00547288
-0.00243509
0.00567272
-0.00761478
0.00551782
-0.00709325
0.0055539
-0.00513235
0.00571476
-0.00133453
0.00586991
0.00358342
0.00596468
0.00813783
0.00594835
0.0116408
0.00583466
0.0123187
0.00573741
0.0102451
0.0057231
0.00520015
0.00584931
-0.000552916
0.00587169
-0.00449553
0.00573483
-0.00808594
0.00551242
-0.00920045
0.00538494
-0.0103673
0.0054808
-0.00675335
0.00557665
-0.00161032
0.00576964
0.00361209
0.00582758
0.0104627
0.00581429
0.00954316
0.00583388
0.0108599
0.00557651
0.00573024
-0.00221547
0.00587486
-0.0073021
0.00569637
-0.00691477
0.00572416
-0.00516013
0.00590069
-0.00151106
0.00608151
0.00340259
0.00620088
0.00801847
0.00619919
0.0116424
0.00608771
0.0124302
0.00598732
0.0103455
0.00596481
0.00522266
0.0060907
-0.000678797
0.006119
-0.00452383
0.00597495
-0.00794188
0.00572976
-0.00895526
0.0055764
-0.0102139
0.00567551
-0.00685246
0.00578159
-0.0017164
0.00599033
0.00340335
0.00605576
0.0103972
0.00603859
0.00956032
0.00607135
0.0108271
0.00582048
0.00598111
-0.00198821
0.00608644
-0.00697119
0.00588327
-0.00671159
0.00589998
-0.00517684
0.00609159
-0.00170267
0.00630047
0.00319372
0.00644795
0.00787099
0.00646532
0.0116251
0.00636102
0.0125345
0.00626111
0.0104454
0.00622937
0.0052544
0.00634967
-0.000799103
0.00638091
-0.00455506
0.00622917
-0.00779014
0.00596047
-0.00868657
0.00577789
-0.0100313
0.00587807
-0.00695265
0.00599522
-0.00183355
0.00622016
0.00317842
0.00629372
0.0103237
0.00627142
0.00958262
0.00631798
0.0107806
0.00607737
0.00622173
-0.00175496
0.00630743
-0.00662439
0.00607919
-0.00648335
0.00608192
-0.00517957
0.00628726
-0.00190801
0.00652603
0.00295495
0.00670511
0.00769191
0.00674653
0.0115837
0.00665536
0.0126257
0.00656046
0.0105403
0.00651882
0.00529603
0.00662757
-0.000907853
0.00665765
-0.00458514
0.00649741
-0.0076299
0.00620482
-0.00839398
0.00598976
-0.00981626
0.00608822
-0.00705111
0.00621738
-0.00196271
0.00645917
0.00293663
0.0065415
0.0102413
0.00651258
0.00961154
0.00657329
0.0107199
0.00634705
0.00644797
-0.00151773
0.00653761
-0.00626472
0.00628479
-0.00623053
0.00627067
-0.00516545
0.00648751
-0.00212485
0.00675722
0.00268524
0.00697117
0.00747796
0.00704211
0.0115127
0.00697086
0.0126969
0.00688629
0.0106249
0.00683468
0.00534763
0.00692545
-0.00099862
0.00694923
-0.00460892
0.00677931
-0.00745998
0.00646288
-0.00807755
0.00621236
-0.00956575
0.00630561
-0.00714435
0.00644776
-0.00210486
0.00670735
0.00267704
0.00679915
0.0101495
0.00676189
0.00964881
0.00683679
0.010645
0.00662931
0.00665545
-0.00127885
0.00677653
-0.00589579
0.00650061
-0.00595461
0.00646702
-0.00513186
0.00669215
-0.00234999
0.00699279
0.0023846
0.00724451
0.00722624
0.00735071
0.0114065
0.0073068
0.0127409
0.00723854
0.0106931
0.00717761
0.00540857
0.0072439
-0.00106491
0.00725533
-0.00462035
0.00707416
-0.0072788
0.00673448
-0.00773788
0.00644598
-0.00927724
0.00652979
-0.00722817
0.00668582
-0.00226089
0.00696451
0.00239835
0.00706665
0.0100474
0.00701925
0.00969621
0.00710804
0.0105562
0.00692392
0.00683957
-0.00104092
0.00702354
-0.00552169
0.00672701
-0.00565808
0.00667177
-0.00507662
0.00690104
-0.00257925
0.00723128
0.00205436
0.00752302
0.00693449
0.0076703
0.0112592
0.00766143
0.0127497
0.00761594
0.0107386
0.00754714
0.00547736
0.00758286
-0.00110063
0.00757525
-0.00461273
0.00738086
-0.00708442
0.00701914
-0.00737616
0.00669084
-0.00894895
0.00676025
-0.00729758
0.00693077
-0.0024314
0.00723029
0.00209882
0.00734396
0.00993373
0.00728469
0.00975548
0.00738674
0.0104541
0.00723064
0.00699567
-0.000806785
0.00727775
-0.00514686
0.00696405
-0.00534438
0.00688564
-0.00499821
0.00711404
-0.00280765
0.00747106
0.00169734
0.00780417
0.00660137
0.00799807
0.0110654
0.00803189
0.0127159
0.0080158
0.0107547
0.00794148
0.00555168
0.00794137
-0.00110052
0.00790779
-0.00457915
0.0076979
-0.00687452
0.00731602
-0.00699428
0.00694714
-0.00858007
0.00699645
-0.00734689
0.00718148
-0.00261643
0.00750397
0.00177633
0.00763088
0.00980682
0.00755843
0.00982793
0.00767283
0.0103397
0.00754932
0.00711918
-0.000579342
0.00753812
-0.00477592
0.00721148
-0.00501774
0.00710916
-0.00489589
0.00733104
-0.00302952
0.00771042
0.00131795
0.00808501
0.00622679
0.00833041
0.0108199
0.00841414
0.0126322
0.00843396
0.0107349
0.00835733
0.0056283
0.00831748
-0.00106067
0.00825122
-0.00451289
0.00802332
-0.00664663
0.00762389
-0.00659485
0.00721495
-0.00817113
0.00723786
-0.00736979
0.0074365
-0.00281507
0.0077844
0.00142842
0.00792707
0.00966416
0.0078409
0.0099141
0.00796662
0.010214
0.00787993
0.00720587
-0.000361415
0.00780351
-0.00441356
0.0074687
-0.00468294
0.00734253
-0.00476972
0.00755189
-0.00323889
0.00794766
0.000922181
0.00836224
0.0058122
0.008663
0.0105192
0.00880302
0.0124922
0.00886483
0.0106731
0.00878993
0.00570321
0.00870806
-0.000978797
0.00860316
-0.004408
0.00835473
-0.00639819
0.00794105
-0.00618116
0.00749419
-0.00772427
0.00748403
-0.00735963
0.007694
-0.00302504
0.00806982
0.00105259
0.00823183
0.00950215
0.00813277
0.0100132
0.00826888
0.0100779
0.00822263
0.00725212
-0.000155511
0.00807268
-0.00406442
0.00773482
-0.00434509
0.00758551
-0.0046204
0.0077763
-0.00342968
0.00818109
0.000517394
0.00863238
0.00536092
0.00899087
0.0101607
0.00919237
0.0122907
0.00930156
0.0105639
0.00923306
0.0057717
0.00910883
-0.000854562
0.00896062
-0.00425979
0.00868934
-0.00612691
0.00826536
-0.00575718
0.00778456
-0.00724347
0.00773468
-0.00730975
0.00795187
-0.00324223
0.00835773
0.000646734
0.00854402
0.00931586
0.0084349
0.0101223
0.00858091
0.00993187
0.00857773
0.0072553
3.6442e-05
0.00834439
-0.003733
0.00800872
-0.00400942
0.00783743
-0.00444911
0.00800364
-0.00359589
0.00840903
0.000112008
0.00889179
0.00487816
0.00930859
0.00974389
0.00957525
0.012024
0.00973627
0.0104029
0.00967934
0.00582863
0.00951441
-0.000689631
0.00931998
-0.00406536
0.00902404
-0.00583097
0.00859427
-0.00532742
0.00808546
-0.00673466
0.00798973
-0.00721402
0.00820782
-0.00346032
0.00864476
0.000209796
0.00886179
0.00909883
0.00874816
0.0102359
0.00890442
0.00977561
0.00894568
0.00721404
0.000213385
0.00861737
-0.00342348
0.00828914
-0.00368119
0.00809721
-0.00425717
0.00823284
-0.00373153
0.00862968
-0.000284838
0.00913684
0.004371
0.00961043