/*--------------------------------*- C++ -*----------------------------------*\
  =========                 |
  \\      /  F ield         | OpenFOAM: The Open Source CFD Toolbox
   \\    /   O peration     | Website:  https://openfoam.org
    \\  /    A nd           | Version:  7
     \\/     M anipulation  |
\*---------------------------------------------------------------------------*/
FoamFile
{
    version     2.0;
    format      ascii;
    class       volVectorField;
    location    "40";
    object      U;
}
// * * * * * * * * * * * * * * * * * * * * * * * * * * * * * * * * * * * * * //

dimensions      [0 1 -1 0 0 0 0];

internalField   nonuniform List<vector> 
7156
(
(0.0128742 -0.00226597 1.06495e-20)
(0.0505199 -0.00555494 5.76402e-21)
(0.0146791 -0.00240198 -9.27077e-20)
(0.0559935 -0.00562768 3.4657e-20)
(0.109651 -0.00406825 1.06459e-19)
(0.174571 0.00134923 -7.3666e-20)
(0.0165765 -0.00249825 2.22257e-20)
(0.0617039 -0.00557436 7.46533e-20)
(0.119202 -0.00343702 7.37078e-21)
(0.187916 0.00287125 -7.16804e-21)
(0.266609 0.0133881 -8.74697e-20)
(0.353655 0.0279692 -8.25322e-21)
(0.447021 0.0462391 1.11137e-19)
(0.0185656 -0.00255068 -6.90901e-20)
(0.0676465 -0.00538463 -6.34125e-20)
(0.12908 -0.00257603 -9.22539e-20)
(0.201636 0.00471122 -4.48754e-20)
(0.283955 0.016441 5.51911e-20)
(0.374254 0.0323824 6.71683e-20)
(0.470331 0.0520605 -7.38517e-20)
(0.569613 0.0748051 -6.70252e-20)
(0.669262 0.0997524 -4.56009e-20)
(0.766355 0.12589 1.78084e-20)
(0.0206455 -0.00255516 3.75917e-20)
(0.073815 -0.00504821 4.90924e-20)
(0.139271 -0.00147147 3.53671e-20)
(0.215707 0.00688403 1.76259e-20)
(0.301632 0.0199014 -3.2987e-21)
(0.395106 0.0372562 -7.8011e-20)
(0.493755 0.0583677 4.15256e-20)
(0.594844 0.0824569 5.35303e-21)
(0.695413 0.108557 -6.89987e-21)
(0.792473 0.13557 1.09719e-19)
(0.883245 0.162351 -2.89425e-21)
(0.965395 0.187813 -1.58872e-20)
(1.03723 0.211023 3.23303e-20)
(0.0228145 -0.00250757 8.82009e-21)
(0.0802022 -0.00455499 -7.61231e-20)
(0.149761 -0.000109975 -8.82359e-21)
(0.230102 0.00940363 8.35273e-20)
(0.319602 0.0237813 -1.71404e-20)
(0.416158 0.0425977 4.0863e-20)
(0.517227 0.0651612 -4.30068e-20)
(0.619922 0.0905806 1.13573e-20)
(0.721172 0.117787 -1.56666e-20)
(0.817948 0.145601 2.16969e-21)
(0.907514 0.172831 -2.76529e-20)
(0.987658 0.198378 -7.61029e-20)
(1.05687 0.221338 3.94286e-20)
(1.11444 0.241065 -1.17854e-20)
(1.16041 0.257207 6.94218e-20)
(1.19549 0.269696 -4.35378e-21)
(1.22089 0.278706 -1.07412e-19)
(0.0250706 -0.00240381 2.48107e-20)
(0.0867994 -0.00389506 3.83422e-20)
(0.16053 0.00152122 -9.68822e-21)
(0.244792 0.0122829 -3.73773e-20)
(0.337823 0.0280908 -7.10725e-21)
(0.437357 0.0484124 7.5004e-20)
(0.540684 0.0724394 3.12756e-20)
(0.644774 0.0991669 -7.41103e-21)
(0.746467 0.127425 3.42216e-20)
(0.842716 0.155961 -3.42014e-20)
(0.930852 0.183544 3.17396e-20)
(1.00881 0.209078 2.7176e-21)
(1.0753 0.231695 -3.45974e-20)
(1.12982 0.250818 -4.85834e-20)
(1.17268 0.266179 -6.79327e-20)
(1.20478 0.277795 -4.9045e-20)
(1.22747 0.285915 7.11748e-20)
(1.24236 0.29095 -1.4722e-20)
(1.25108 0.293395 -4.01396e-20)
(1.25516 0.293764 -2.41135e-20)
(1.25595 0.292544 -3.59715e-20)
(0.0274114 -0.0022398 -3.16733e-20)
(0.093597 -0.00305885 1.42666e-20)
(0.17156 0.00343417 3.97159e-20)
(0.259747 0.0155337 1.72568e-20)
(0.356251 0.0328387 4.48899e-20)
(0.458646 0.0547033 -6.7241e-20)
(0.56406 0.0801986 -1.59053e-20)
(0.669331 0.108204 1.34943e-20)
(0.77123 0.137454 2.1163e-20)
(0.866717 0.166628 7.26181e-20)
(0.953216 0.194467 -2.28748e-20)
(1.02884 0.219888 3.74858e-20)
(1.0925 0.242074 -2.09632e-20)
(1.14396 0.260524 -1.93719e-20)
(1.18375 0.275056 3.45195e-20)
(1.21295 0.285773 5.21841e-20)
(1.23308 0.292998 -4.58738e-20)
(1.2458 0.297198 -1.45947e-20)
(1.25276 0.2989 9.51351e-21)
(1.2555 0.298636 6.1988e-20)
(1.2553 0.296891 9.83546e-20)
(1.25319 0.294074 4.53219e-20)
(1.24993 0.290514 1.10336e-20)
(1.24604 0.28647 5.75347e-20)
(1.24179 0.28193 -1.09588e-20)
(0.0298339 -0.00201158 7.68041e-20)
(0.100584 -0.00203712 -3.34205e-20)
(0.18283 0.00564015 -2.74412e-20)
(0.274932 0.0191663 2.59505e-20)
(0.374843 0.038032 -1.22364e-19)
(0.47997 0.0614718 1.76696e-20)
(0.587289 0.0884328 3.04808e-20)
(0.693524 0.11768 4.87286e-21)
(0.795394 0.147854 -3.06816e-20)
(0.889895 0.177577 -7.35168e-20)
(0.974568 0.205574 -1.00536e-21)
(1.04771 0.230787 -2.99213e-20)
(1.10848 0.252459 3.29316e-21)
(1.15688 0.270171 7.28107e-20)
(1.19366 0.283832 2.4785e-20)
(1.22008 0.293631 -2.56852e-20)
(1.23778 0.299961 8.54705e-20)
(1.24847 0.303337 -1.12042e-20)
(1.25383 0.304318 4.45122e-20)
(1.25535 0.303443 -7.63805e-20)
(1.25427 0.301195 -2.67484e-20)
(1.25154 0.297969 -5.94835e-20)
(1.24787 0.294079 5.95345e-20)
(1.24371 0.289757 -1.69846e-20)
(1.23929 0.285016 -2.19651e-20)
(0.0323346 -0.00171527 -2.35729e-20)
(0.107747 -0.000821135 1.38035e-20)
(0.194316 0.00814955 6.01488e-21)
(0.290315 0.0231898 -7.10745e-20)
(0.39355 0.0436757 6.43436e-21)
(0.501271 0.0687169 -1.74135e-20)
(0.610308 0.0971338 -3.24402e-21)
(0.717288 0.127578 3.17271e-20)
(0.818901 0.158604 1.44778e-20)
(0.912202 0.188785 4.49201e-20)
(0.994876 0.216842 2.40934e-20)
(1.06543 0.241753 1.16577e-21)
(1.12326 0.262832 -5.09117e-23)
(1.16862 0.279749 -2.69242e-20)
(1.20246 0.292504 3.06676e-20)
(1.22622 0.301372 -3.16855e-21)
(1.24162 0.30681 -2.94623e-20)
(1.25044 0.309378 -7.18395e-20)
(1.25433 0.309657 -1.14496e-20)
(1.25476 0.308194 -3.4981e-21)
(1.25289 0.305463 -2.96146e-20)
(1.24963 0.301845 5.319e-20)
(1.24561 0.297637 -4.31913e-20)
(1.24121 0.293045 -1.49555e-20)
(1.23665 0.288107 3.41999e-20)
(0.0349097 -0.00134711 1.27621e-20)
(0.115075 0.000597359 -2.10608e-20)
(0.205994 0.0109717 3.61316e-20)
(0.305857 0.0276119 5.43911e-20)
(0.412325 0.049773 1.06186e-20)
(0.522492 0.0764356 2.55927e-20)
(0.633055 0.106292 -5.40835e-20)
(0.740559 0.137883 -2.24399e-20)
(0.841693 0.169683 9.4361e-21)
(0.933596 0.200228 2.27232e-22)
(1.01412 0.228247 -5.14482e-21)
(1.08199 0.252767 2.34393e-20)
(1.13685 0.27318 2.01128e-20)
(1.17921 0.28925 3.1361e-20)
(1.21019 0.301071 -4.25095e-20)
(1.23142 0.308997 -1.2109e-20)
(1.24467 0.31355 -1.17604e-21)
(1.25175 0.315326 4.58847e-20)
(1.25431 0.314926 -2.66808e-20)
(1.25375 0.312896 2.45698e-20)
(1.2512 0.3097 -2.86128e-20)
(1.24747 0.305705 -2.3261e-20)
(1.24315 0.30119 -1.63861e-20)
(1.23856 0.296335 2.24833e-20)
(1.23388 0.291203 1.32967e-21)
(0.0375548 -0.000903549 -1.82104e-20)
(0.122551 0.002226 -1.67728e-20)
(0.217839 0.014115 -5.19976e-20)
(0.321523 0.0324386 3.20291e-20)
(0.43112 0.0563254 3.11294e-20)
(0.543575 0.0846227 -2.11917e-20)
(0.655466 0.115894 4.28186e-20)
(0.763278 0.148575 -7.62398e-22)
(0.86372 0.181068 1.76696e-21)
(0.95404 0.211883 -1.57752e-20)
(1.03228 0.239767 1.32456e-20)
(1.09739 0.26381 -1.22917e-20)
(1.14928 0.28349 -3.19868e-20)
(1.18868 0.298667 -6.51092e-21)
(1.21692 0.30953 4.59431e-21)
(1.23572 0.316512 1.67612e-20)
(1.24696 0.320188 1.41789e-20)
(1.25244 0.32119 -6.97626e-21)
(1.2538 0.32013 -1.42874e-20)
(1.25237 0.317554 1.05047e-20)
(1.24921 0.313912 1.96675e-20)
(1.24509 0.309554 1.98222e-20)
(1.24051 0.304739 1.29276e-21)
(1.23576 0.299626 2.19614e-20)
(1.23098 0.294304 -4.82414e-21)
(0.0402649 -0.000381191 7.46864e-21)
(0.13016 0.00407176 1.44423e-20)
(0.229822 0.0175865 1.41354e-20)
(0.337272 0.0376744 -5.88649e-21)
(0.449884 0.0633322 -1.14407e-20)
(0.564464 0.0932713 1.36574e-20)
(0.677484 0.125928 -8.39478e-21)
(0.785389 0.159635 8.65172e-21)
(0.884936 0.192736 -2.65829e-20)
(0.973504 0.223724 1.16249e-20)
(1.04934 0.25138 7.43178e-21)
(1.11164 0.274865 2.25428e-20)
(1.16057 0.293749 1.64155e-20)
(1.19708 0.307994 -6.52816e-21)
(1.22268 0.317881 -6.49191e-21)
(1.2392 0.323917 1.86767e-21)
(1.24856 0.326729 -8.97912e-21)
(1.25258 0.326976 3.72182e-21)
(1.25284 0.325278 9.88241e-21)
(1.25063 0.322175 -1.18687e-20)
(1.24695 0.318102 5.24957e-21)
(1.24248 0.313391 -1.42422e-20)
(1.23769 0.308284 1.32024e-20)
(1.23282 0.302918 -1.66093e-20)
(1.22796 0.297407 6.46448e-21)
(0.0430349 0.000223118 -1.18991e-20)
(0.137886 0.00614089 1.28437e-21)
(0.241917 0.0213922 8.36435e-21)
(0.353065 0.0433219 -1.41609e-20)
(0.468569 0.0707909 -2.90925e-21)
(0.585103 0.102372 -1.57484e-20)
(0.699051 0.136377 -1.72594e-20)
(0.806841 0.171043 -5.13243e-21)
(0.905299 0.204663 2.42312e-21)
(0.991962 0.235728 4.44142e-21)
(1.06529 0.263066 -1.58473e-20)
(1.12476 0.285915 -3.97437e-21)
(1.17076 0.303947 -1.58504e-20)
(1.20445 0.317227 -9.28844e-21)
(1.22751 0.326125 6.77712e-21)
(1.24188 0.331218 -5.8502e-21)
(1.2495 0.333179 -1.13221e-20)
(1.25218 0.33269 -1.0489e-20)
(1.25146 0.330374 -9.99536e-22)
(1.24857 0.326761 -1.49557e-20)
(1.24443 0.322272 5.61687e-22)
(1.23968 0.317219 1.74144e-20)
(1.23471 0.311826 2.24589e-22)
(1.22973 0.306209 -4.4212e-21)
(1.22481 0.300511 4.5353e-21)
(0.0458591 0.000912287 5.72863e-21)
(0.145711 0.00843885 2.18577e-21)
(0.254092 0.0255366 -2.5687e-21)
(0.368862 0.0493824 2.41564e-21)
(0.487125 0.0786968 -1.06507e-21)
(0.605437 0.111914 4.51315e-21)
(0.720111 0.147224 -1.25461e-21)
(0.827583 0.182777 1.01818e-21)
(0.924773 0.216825 -3.51923e-21)
(1.00939 0.247873 -4.10751e-21)
(1.08015 0.274803 -2.25104e-21)
(1.13675 0.296945 7.11667e-21)
(1.17986 0.314075 3.31319e-21)
(1.21083 0.326361 -3.85521e-21)
(1.23148 0.334261 3.40653e-21)
(1.24382 0.338418 -4.22533e-22)
(1.24984 0.339543 6.34999e-21)
(1.2513 0.338337 2.80288e-21)
(1.2497 0.335421 9.47697e-22)
(1.2462 0.331316 8.82156e-21)
(1.24167 0.326423 -1.66016e-21)
(1.23668 0.321037 -7.19558e-21)
(1.23156 0.315363 -3.58884e-22)
(1.2265 0.309498 1.10713e-21)
(1.22153 0.303612 -3.27399e-21)
(0.0487315 0.00168895 3.12937e-21)
(0.153618 0.0109703 3.71866e-21)
(0.266319 0.0300231 -4.16065e-21)
(0.384621 0.055855 5.96025e-21)
(0.505502 0.0870436 -1.95172e-21)
(0.625413 0.121885 1.91092e-21)
(0.740615 0.15845 -3.83389e-22)
(0.847573 0.194814 1.02569e-21)
(0.943326 0.229199 -2.3147e-21)
(1.02579 0.260135 -6.11626e-21)
(1.0939 0.286573 -3.89482e-22)
(1.14764 0.307942 6.21602e-21)
(1.18791 0.324125 4.50595e-21)
(1.21625 0.335393 -4.29887e-21)
(1.23461 0.342291 3.01042e-21)
(1.24507 0.345519 6.94875e-22)
(1.2496 0.345826 4.07444e-21)
(1.24996 0.343921 2.99552e-21)
(1.24757 0.340425 1.87485e-21)
(1.24355 0.335842 7.65705e-21)
(1.23868 0.330557 -8.38129e-23)
(1.23349 0.324845 -7.32125e-21)
(1.22826 0.318894 -2.06106e-21)
(1.22314 0.312783 2.02828e-21)
(1.21814 0.30671 -1.50095e-21)
(0.0516457 0.00255547 -7.80263e-21)
(0.161586 0.013739 -3.4168e-21)
(0.278566 0.0348536 3.49014e-21)
(0.400301 0.0627373 -8.45487e-21)
(0.523653 0.095823 4.73326e-22)
(0.644979 0.132269 -2.56807e-20)
(0.760512 0.170036 -1.54874e-20)
(0.86677 0.20713 -4.66591e-21)
(0.960933 0.241759 8.06282e-21)
(1.04113 0.272491 -6.54497e-21)
(1.10655 0.298358 -1.21917e-20)
(1.15745 0.318891 -7.40061e-21)
(1.19495 0.334088 -7.54697e-21)
(1.22076 0.344321 -6.45854e-21)
(1.23696 0.350215 3.51329e-21)
(1.24565 0.352525 -6.89431e-21)
(1.24883 0.352029 -1.3709e-20)
(1.24819 0.349445 -3.94108e-21)
(1.24511 0.345386 -6.69509e-21)
(1.24063 0.34034 -1.13975e-20)
(1.23548 0.334672 -2.19781e-21)
(1.23012 0.328641 1.27922e-20)
(1.22481 0.322416 2.00198e-21)
(1.21964 0.31606 -3.32891e-21)
(1.21461 0.309799 1.1606e-20)
(0.0545948 0.00351385 5.2396e-21)
(0.169596 0.0167477 -6.65785e-21)
(0.290801 0.0400285 2.55997e-20)
(0.41586 0.0700252 -1.42784e-20)
(0.541528 0.105025 -4.79968e-21)
(0.664086 0.143051 1.8869e-20)
(0.779757 0.18196 -6.77009e-21)
(0.885137 0.219701 3.54757e-21)
(0.977569 0.254482 -1.02822e-20)
(1.05541 0.284921 -3.84267e-21)
(1.11812 0.310139 2.47507e-21)
(1.16621 0.329781 2.2774e-20)
(1.20101 0.343958 1.40006e-20)
(1.22441 0.353141 5.64478e-21)
(1.23856 0.358033 -8.15317e-21)
(1.24562 0.359438 -3.1985e-21)
(1.24755 0.358158 2.16132e-21)
(1.24602 0.354912 1.05766e-21)
(1.24233 0.350306 3.30193e-21)
(1.23745 0.344809 -5.93187e-21)
(1.23206 0.338768 -1.45203e-21)
(1.22657 0.332423 -9.64128e-21)
(1.2212 0.325926 1.57654e-21)
(1.21601 0.319326 -1.1456e-20)
(1.21097 0.312877 2.2101e-21)
(0.0575715 0.00456575 -2.42067e-20)
(0.177627 0.0199983 -1.83418e-20)
(0.302992 0.0455467 -2.87682e-20)
(0.431257 0.0777126 1.27405e-20)
(0.559081 0.114637 2.23509e-20)
(0.682685 0.154212 -3.24514e-21)
(0.798308 0.194199 3.63937e-20)
(0.902643 0.232503 8.48904e-21)
(0.993219 0.267344 -1.87033e-20)
(1.06863 0.297402 -9.52984e-21)
(1.12862 0.321901 1.42008e-20)
(1.17394 0.340601 -1.67018e-20)
(1.20612 0.353728 -3.61436e-20)
(1.22722 0.361852 8.35729e-21)
(1.23945 0.365747 -7.90499e-21)
(1.245 0.36626 3.83014e-20)
(1.2458 0.364213 1.55557e-21)
(1.24346 0.360324 7.75226e-21)
(1.23924 0.355186 -1.39843e-20)
(1.23403 0.349251 2.61075e-21)
(1.22845 0.342844 1.74737e-20)
(1.22286 0.336189 8.16884e-21)
(1.21744 0.329422 7.29801e-21)
(1.21224 0.322578 1.29345e-20)
(1.2072 0.31594 1.95272e-21)
(0.0605686 0.00571248 2.91446e-20)
(0.18566 0.0234916 -2.17704e-20)
(0.315107 0.0514058 6.43643e-20)
(0.446451 0.0857918 2.12575e-20)
(0.576266 0.124645 4.55168e-20)
(0.700733 0.165733 -4.2044e-21)
(0.816125 0.20673 -2.48889e-20)
(0.919259 0.245511 -3.9322e-20)
(1.00787 0.28032 9.14197e-21)
(1.0808 0.309914 -2.13969e-20)
(1.13807 0.333627 2.25215e-21)
(1.18066 0.351339 1.68008e-20)
(1.21032 0.363392 3.62261e-20)
(1.22923 0.370451 2.59568e-20)
(1.23967 0.373355 -5.19123e-20)
(1.24382 0.372993 -1.00381e-20)
(1.2436 0.370196 1.14456e-20)
(1.24055 0.365682 2.65341e-20)
(1.23586 0.360026 -2.03362e-20)
(1.23037 0.353662 2.83849e-20)
(1.22463 0.346896 -2.21509e-20)
(1.21897 0.339935 -1.8592e-20)
(1.21353 0.332899 -3.47737e-21)
(1.20834 0.325812 5.01404e-21)
(1.20331 0.318985 -1.57095e-20)
(0.0635784 0.00695495 -5.45673e-20)
(0.193671 0.0272274 2.23576e-20)
(0.327114 0.0576018 -1.26836e-20)
(0.461402 0.0942533 -4.8957e-20)
(0.59304 0.135035 -5.62893e-21)
(0.718187 0.177594 -7.86758e-21)
(0.833173 0.21953 -1.31404e-20)
(0.934961 0.258698 6.40666e-20)
(1.0215 0.293386 2.06252e-20)
(1.09192 0.322437 1.52017e-20)
(1.14647 0.345301 1.3667e-20)
(1.18641 0.361985 -1.1662e-20)
(1.21365 0.372945 4.49707e-20)
(1.23048 0.378935 -5.47082e-20)
(1.23924 0.38086 3.73417e-20)
(1.24212 0.379636 5.68245e-21)
(1.24097 0.376108 -4.00885e-20)
(1.2373 0.370984 -6.73905e-20)
(1.2322 0.364824 5.75686e-21)
(1.22648 0.358041 -6.69677e-21)
(1.22062 0.350923 -1.84764e-21)
(1.21492 0.343659 1.17739e-20)
(1.20948 0.336354 -3.54849e-20)
(1.20431 0.329025 1.10662e-20)
(1.19929 0.322006 2.02452e-20)
(0.066593 0.00829368 8.32935e-20)
(0.201641 0.0312044 -3.64082e-20)
(0.33898 0.0641292 -4.27026e-20)
(0.476071 0.103086 -1.71619e-20)
(0.60936 0.145788 -4.8875e-20)
(0.735006 0.189772 2.7069e-21)
(0.84942 0.232572 2.99272e-20)
(0.949729 0.272041 -9.91083e-21)
(1.03412 0.306519 -5.20194e-20)
(1.10199 0.334951 -6.85874e-20)
(1.15386 0.356909 -1.29938e-20)
(1.19121 0.372529 -1.00616e-20)
(1.21613 0.38238 -1.2518e-20)
(1.23101 0.387304 7.25537e-20)
(1.23822 0.388258 4.21296e-20)
(1.23992 0.386191 -3.51537e-20)
(1.23795 0.381949 6.37437e-20)
(1.23372 0.376231 3.53309e-20)
(1.22828 0.369579 1.43691e-20)
(1.22237 0.362385 -4.71304e-20)
(1.21642 0.354919 -4.8577e-20)
(1.2107 0.347355 -1.84045e-20)
(1.20527 0.339783 4.13798e-20)
(1.20013 0.332211 -2.68466e-20)
(1.19514 0.325001 -3.75727e-21)
(0.0696046 0.00972879 -4.00583e-20)
(0.209548 0.0354204 2.57503e-20)
(0.350674 0.0709811 1.6837e-20)
(0.490418 0.112277 5.85627e-20)
(0.625186 0.156887 1.44652e-20)
(0.751154 0.202244 -6.44272e-20)
(0.864836 0.245831 -1.76815e-20)
(0.963547 0.285513 1.98654e-21)
(1.04572 0.319696 1.72986e-20)
(1.11102 0.347437 8.78863e-20)
(1.16025 0.368437 -3.33598e-20)
(1.19509 0.382963 4.28412e-20)
(1.2178 0.391693 3.36624e-21)
(1.23084 0.395553 -3.65888e-20)
(1.23661 0.395551 -1.047e-20)
(1.23725 0.392657 5.55391e-20)
(1.23454 0.387717 -4.07895e-20)
(1.22982 0.381421 3.15911e-20)
(1.2241 0.374288 -3.24035e-20)
(1.21804 0.366691 7.49935e-20)
(1.21204 0.358882 7.30556e-20)
(1.20631 0.35102 4.16696e-20)
(1.20092 0.343181 -3.09362e-20)
(1.19583 0.335367 -2.56853e-20)
(1.19087 0.327964 -1.51607e-20)
(0.0726048 0.01126 2.92242e-20)
(0.21737 0.0398719 6.24273e-20)
(0.362163 0.0781491 -4.62024e-20)
(0.504406 0.121813 -1.9072e-20)
(0.640478 0.168311 6.04353e-21)
(0.766597 0.214985 4.22976e-20)
(0.879398 0.259282 4.03706e-20)
(0.9764 0.299088 -8.34896e-21)
(1.0563 0.332895 6.6684e-20)
(1.11903 0.359876 -4.88481e-20)
(1.16567 0.379871 2.79004e-20)
(1.19809 0.393276 -1.27674e-20)
(1.21869 0.400879 -5.88998e-20)
(1.23 0.403681 -1.68966e-20)
(1.23445 0.402736 -2.5822e-20)
(1.23413 0.399032 -6.37409e-20)
(1.23076 0.393413 5.35037e-20)
(1.22563 0.386551 4.03456e-21)
(1.21967 0.378948 6.7631e-20)
(1.2135 0.370956 -1.95212e-20)
(1.20747 0.362808 -1.42665e-20)
(1.20176 0.354649 1.80065e-20)
(1.19642 0.346544 2.53922e-20)
(1.19138 0.338487 2.5581e-21)
(1.18648 0.330891 1.96916e-20)
(0.0755856 0.0128865 -9.60302e-21)
(0.225085 0.0445547 -1.757e-20)
(0.373417 0.0856235 8.95212e-21)
(0.517999 0.131677 4.41976e-20)
(0.655202 0.18004 3.69368e-20)
(0.781302 0.227972 1.33149e-20)
(0.893082 0.272896 -6.34048e-20)
(0.988279 0.312741 2.29679e-20)
(1.06586 0.346091 -1.05682e-20)
(1.12604 0.37225 -1.99284e-20)
(1.17013 0.391198 -3.68908e-20)
(1.20023 0.40346 -3.16123e-20)
(1.21883 0.409931 3.69049e-20)
(1.22854 0.411683 8.86906e-21)
(1.23177 0.409811 -1.2625e-20)
(1.23058 0.405314 4.55489e-20)
(1.22663 0.399032 -8.1806e-21)
(1.22115 0.391618 4.19602e-20)
(1.21501 0.383555 2.57751e-20)
(1.20875 0.375174 2.2618e-20)
(1.20272 0.36669 2.7148e-20)
(1.19705 0.358237 -4.28842e-20)
(1.19177 0.349866 -1.91921e-20)
(1.18681 0.341568 -4.02701e-21)
(1.18195 0.333777 1.06104e-20)
(0.0785386 0.0146073 8.91391e-20)
(0.232673 0.0494631 1.76602e-20)
(0.384407 0.093393 -9.63937e-21)
(0.531162 0.141851 4.20723e-20)
(0.669322 0.19205 4.4919e-20)
(0.795243 0.241177 -9.43291e-20)
(0.905869 0.286648 6.32133e-20)
(0.999178 0.326447 -1.5807e-20)
(1.07441 0.359264 -9.42113e-21)
(1.13206 0.384541 1.40657e-19)
(1.17367 0.402404 -1.60833e-20)
(1.20153 0.413507 5.59481e-20)
(1.21825 0.418845 -2.81682e-20)
(1.22646 0.419557 -3.22008e-20)
(1.22858 0.416774 1.87174e-20)
(1.22662 0.411503 -3.74531e-20)
(1.22217 0.404572 1.06084e-20)
(1.21639 0.39662 -8.38895e-20)
(1.2101 0.388105 -1.21801e-19)
(1.2038 0.37934 1.31935e-20)
(1.19779 0.370525 -6.9572e-20)
(1.19218 0.361779 1.56135e-20)
(1.18697 0.353142 2.27677e-20)
(1.18209 0.344602 5.59808e-20)
(1.17731 0.336618 2.67092e-20)
(0.0814556 0.0164208 -8.74512e-20)
(0.240112 0.0545909 -1.42668e-19)
(0.395101 0.101445 -3.69347e-20)
(0.543863 0.152319 -1.00964e-19)
(0.682808 0.204319 7.73813e-20)
(0.808392 0.254575 8.21765e-20)
(0.917745 0.300511 -1.28467e-19)
(1.00909 0.340179 1.28968e-20)
(1.08195 0.372391 4.76129e-21)
(1.1371 0.396733 -1.06763e-19)
(1.17632 0.413478 6.78998e-20)
(1.20204 0.423408 -1.0926e-19)
(1.21698 0.427614 -1.09418e-20)
(1.22381 0.4273 3.42665e-20)
(1.22491 0.423622 4.35347e-20)
(1.22226 0.417593 4.10173e-20)
(1.21738 0.410031 -4.43341e-20)
(1.21136 0.401552 7.23407e-20)
(1.20496 0.392594 2.06961e-20)
(1.19865 0.383451 2.42544e-20)
(1.19268 0.374307 -6.59894e-20)
(1.18714 0.365269 -4.80006e-20)
(1.18203 0.356367 1.69635e-20)
(1.17724 0.347587 -3.46516e-20)
(1.17253 0.339409 7.26768e-22)
(0.0843283 0.0183249 -1.9657e-20)
(0.247382 0.0599305 8.27617e-20)
(0.405472 0.109766 -1.80473e-20)
(0.55607 0.16306 3.81549e-21)
(0.69563 0.21682 -7.46315e-20)
(0.820728 0.268138 -1.67823e-21)
(0.928697 0.314456 4.78338e-20)
(1.01802 0.353913 1.3748e-20)
(1.0885 0.385451 -7.50775e-20)
(1.14119 0.408809 -2.15156e-20)
(1.17808 0.424407 -1.78964e-19)
(1.20176 0.433154 1.81777e-20)
(1.21504 0.436234 1.2688e-19)
(1.2206 0.434905 -1.20691e-19)
(1.22079 0.430351 -7.41652e-20)
(1.21753 0.423582 -6.37533e-20)
(1.21228 0.415403 2.43365e-20)
(1.20607 0.406409 -9.11744e-20)
(1.1996 0.397016 4.49518e-20)
(1.1933 0.3875 -4.591e-20)
(1.18739 0.378029 4.84561e-20)
(1.18195 0.368702 3.68863e-20)
(1.17694 0.359535 1.35388e-20)
(1.17226 0.350515 -1.97975e-20)
(1.16763 0.342144 1.12716e-21)
(0.0871486 0.0203173 -1.20566e-19)
(0.254463 0.0654734 3.72201e-20)
(0.415493 0.118342 1.22181e-21)
(0.567753 0.174052 5.7391e-20)
(0.707761 0.22953 4.63649e-21)
(0.832232 0.281837 6.25609e-20)
(0.938715 0.328456 -3.07011e-20)
(1.02596 0.367624 1.33751e-19)
(1.09407 0.398424 -9.11933e-20)
(1.14435 0.420752 1.44532e-19)
(1.17899 0.435179 1.19006e-19)
(1.20075 0.442737 1.37549e-19)
(1.21247 0.444698 -9.88033e-20)
(1.21685 0.44237 1.00795e-19)
(1.21622 0.436957 5.72726e-21)
(1.21243 0.429466 -8.13521e-20)
(1.20687 0.420684 9.53482e-21)
(1.20052 0.411186 4.55419e-20)
(1.19401 0.401366 -2.63621e-20)
(1.18775 0.391482 -3.85255e-20)
(1.18192 0.381688 -6.6343e-20)
(1.17659 0.372072 5.16514e-20)
(1.1717 0.362641 -2.23863e-20)
(1.16714 0.353382 -4.6986e-21)
(1.16261 0.344818 -8.03566e-20)
(0.0899085 0.0223952 1.7889e-19)
(0.261335 0.0712103 -4.4663e-20)
(0.425137 0.127155 3.664e-20)
(0.578885 0.185274 -1.09339e-19)
(0.719176 0.242422 -2.56777e-20)
(0.842885 0.295647 -2.7597e-20)
(0.947791 0.342485 -6.09502e-20)
(1.03293 0.381287 -2.43652e-19)
(1.09867 0.411288 1.06108e-19)
(1.14659 0.432546 -4.8838e-20)
(1.17908 0.445782 -1.18813e-19)
(1.199 0.452149 -3.22598e-20)
(1.20928 0.453 3.25023e-20)
(1.21259 0.44969 -8.92631e-20)
(1.21123 0.443435 5.45386e-20)
(1.20698 0.435239 4.8862e-21)
(1.20117 0.425869 2.56947e-21)
(1.19471 0.415878 -9.04108e-21)
(1.18821 0.405638 8.94897e-20)
(1.182 0.39539 -1.17935e-22)
(1.17628 0.385275 1.69873e-19)
(1.17107 0.375373 -5.54419e-20)
(1.16631 0.365679 -5.42296e-20)
(1.16188 0.356182 6.86504e-20)
(1.15746 0.347426 6.6455e-20)
(0.0926 0.0245553 -2.52737e-21)
(0.267979 0.0771309 1.07696e-19)
(0.43438 0.136189 -1.18007e-20)
(0.589441 0.196702 8.86583e-20)
(0.729855 0.255469 -1.49031e-20)
(0.852674 0.309537 -5.48648e-20)
(0.955923 0.356514 2.62172e-21)
(1.03892 0.394878 1.77827e-19)
(1.10232 0.424023 -1.32704e-20)
(1.14794 0.444175 -9.61974e-20)
(1.17837 0.456205 8.45053e-20)
(1.19657 0.46138 -3.52322e-20)
(1.2055 0.461133 3.25835e-20)
(1.20784 0.456858 1.19332e-19)
(1.20583 0.449781 -3.32648e-20)
(1.20119 0.440897 2.70979e-20)
(1.19518 0.430953 -3.58105e-20)
(1.18867 0.420478 -8.85061e-20)
(1.18219 0.409826 8.64788e-21)
(1.17607 0.399218 -3.78379e-20)
(1.17046 0.388785 -2.98717e-20)
(1.16538 0.378599 -3.0411e-21)
(1.16077 0.368644 1.23134e-19)
(1.15649 0.358909 -3.37765e-21)
(1.15219 0.349963 1.39448e-20)
(0.0952155 0.0267941 -1.43718e-19)
(0.274377 0.0832241 -1.47283e-20)
(0.443199 0.145425 6.34098e-20)
(0.599395 0.208314 -8.73122e-20)
(0.739777 0.268643 1.97302e-20)
(0.861588 0.323479 5.49832e-20)
(0.963108 0.370516 2.72327e-21)
(1.04394 0.408372 -1.67393e-19)
(1.10503 0.43661 6.59965e-20)
(1.14842 0.455625 -5.32939e-20)
(1.17688 0.466435 1.01004e-19)
(1.19346 0.470423 2.09655e-20)
(1.20115 0.469091 1.1091e-19)
(1.20262 0.463869 -5.6794e-20)
(1.20004 0.455989 9.33526e-21)
(1.19508 0.446434 2.06206e-20)
(1.18892 0.435929 -1.75685e-20)
(1.18238 0.424981 2.63278e-20)
(1.17595 0.413923 5.00611e-20)
(1.16994 0.40296 1.49829e-19)
(1.16446 0.392213 -8.185e-20)
(1.15954 0.381743 -2.97925e-20)
(1.15509 0.371528 -7.44511e-20)
(1.15096 0.361557 -3.53396e-20)
(1.1468 0.352421 -4.9889e-20)
(0.0977474 0.0291076 1.01399e-19)
(0.280512 0.0894779 1.89975e-20)
(0.45157 0.154845 -9.63213e-20)
(0.608727 0.220084 1.12716e-20)
(0.748926 0.281916 -5.33833e-20)
(0.869617 0.337444 2.42285e-22)
(0.969347 0.384465 4.08655e-20)
(1.04801 0.421747 9.74858e-20)
(1.10683 0.449029 -5.14952e-20)
(1.14806 0.466879 4.08041e-20)
(1.17464 0.476462 -9.54938e-20)
(1.1897 0.479269 -1.37025e-19)
(1.19626 0.476867 -1.71083e-19)
(1.19694 0.470717 -7.30074e-20)
(1.19387 0.462054 2.76034e-20)
(1.18864 0.451844 1.2601e-20)
(1.18239 0.440792 1.77435e-19)
(1.17585 0.429381 -3.25815e-20)
(1.16951 0.417923 6.62476e-21)
(1.16362 0.40661 -5.60934e-20)
(1.1583 0.39555 6.0346e-20)
(1.15354 0.3848 2.4653e-20)
(1.14926 0.374327 4.90714e-20)
(1.1453 0.364117 -1.00939e-20)
(1.14128 0.354795 -1.62606e-20)
(0.100188 0.0314914 -9.68949e-20)
(0.286367 0.0958796 -2.81794e-20)
(0.459474 0.164428 7.86565e-20)
(0.617418 0.231986 -2.45985e-19)
(0.757288 0.295261 -5.62854e-20)
(0.876756 0.351405 1.93608e-20)
(0.974643 0.398333 -3.39233e-20)
(1.05114 0.434978 7.59711e-20)
(1.10772 0.461261 1.56567e-20)
(1.14688 0.477924 7.648e-20)
(1.17167 0.486275 1.32071e-19)
(1.18532 0.487908 1.99669e-19)
(1.19084 0.484454 8.57645e-20)
(1.19082 0.477395 -4.67731e-20)
(1.18733 0.467968 1.81723e-20)
(1.1819 0.45712 -1.77433e-20)
(1.17559 0.445534 -1.04112e-19)
(1.1691 0.433669 9.80829e-20)
(1.16286 0.421819 -1.72404e-19)
(1.15711 0.41016 1.64642e-20)
(1.15196 0.398792 -2.09208e-20)
(1.14738 0.387765 3.7763e-20)
(1.14328 0.377035 -4.44243e-20)
(1.1395 0.366587 -6.02695e-21)
(1.13561 0.357085 4.56425e-20)
(0.102532 0.033941 -1.42585e-19)
(0.291927 0.102416 1.06664e-20)
(0.466892 0.174154 3.36459e-20)
(0.625449 0.243996 1.53318e-19)
(0.764851 0.308647 1.86041e-19)
(0.883001 0.365331 1.00095e-19)
(0.979002 0.412094 -9.34823e-20)
(1.05333 0.448043 -1.54623e-19)
(1.10773 0.473287 -1.28283e-19)
(1.14489 0.488743 1.18931e-20)
(1.168 0.495861 -1.2613e-19)
(1.18033 0.496333 -3.48435e-20)
(1.18491 0.491843 -5.24791e-20)
(1.18428 0.483898 1.00973e-19)
(1.18044 0.473725 4.12796e-20)
(1.17486 0.462256 -1.48605e-19)
(1.16853 0.450149 6.77484e-20)
(1.16212 0.43784 3.1963e-20)
(1.15601 0.425604 1.16847e-19)
(1.15042 0.413604 6.42237e-20)
(1.14544 0.401932 -7.05419e-20)
(1.14106 0.39063 -7.78337e-20)
(1.13716 0.379648 4.72716e-20)
(1.13356 0.368974 5.27361e-20)
(1.12978 0.359295 -1.72892e-20)
(0.104771 0.0364512 1.02205e-19)
(0.297176 0.109072 3.9473e-21)
(0.473806 0.184002 -1.79647e-19)
(0.632806 0.256085 -2.83799e-21)
(0.771605 0.322047 -2.67276e-19)
(0.88835 0.379195 6.82335e-21)
(0.982429 0.425721 -4.23286e-20)
(1.05461 0.460919 9.40234e-20)
(1.10688 0.48509 1.35626e-19)
(1.14212 0.499324 3.31542e-20)
(1.16365 0.50521 2.65993e-20)
(1.17477 0.504533 -5.9744e-20)
(1.1785 0.499029 7.41691e-21)
(1.17733 0.490217 6.68522e-20)
(1.17321 0.479319 -6.31809e-20)
(1.16752 0.467245 7.72194e-20)
(1.16122 0.45463 -6.31079e-20)
(1.15491 0.441886 -5.95056e-20)
(1.14895 0.429271 -6.22114e-20)
(1.14354 0.416936 -7.0405e-20)
(1.13876 0.404962 5.75387e-20)
(1.13458 0.393389 7.02708e-20)
(1.13089 0.38216 -1.65998e-20)
(1.1275 0.371281 -1.23925e-20)
(1.12385 0.361409 -7.22838e-21)
(0.106899 0.0390167 -1.82992e-19)
(0.302102 0.115835 1.05288e-19)
(0.480201 0.193948 1.67578e-19)
(0.639475 0.268228 1.6356e-19)
(0.777542 0.335432 1.04316e-19)
(0.892804 0.392967 -1.22709e-19)
(0.984936 0.43919 1.00983e-19)
(1.05498 0.473584 3.30193e-21)
(1.10519 0.49665 -1.09076e-19)
(1.13861 0.509652 -1.2349e-19)
(1.15864 0.514311 1.57121e-19)
(1.16865 0.512501 -4.55821e-20)
(1.17161 0.506001 -8.40919e-20)
(1.16999 0.496345 -5.63976e-20)
(1.16565 0.484741 -2.81434e-21)
(1.15991 0.47208 4.74138e-20)
(1.15367 0.458968 5.78331e-20)
(1.14749 0.4458 -2.48313e-20)
(1.1417 0.432813 9.59302e-20)
(1.13649 0.420147 9.98765e-21)
(1.13192 0.407877 6.62639e-21)
(1.12795 0.396037 -4.30247e-20)
(1.12448 0.384563 -5.48791e-20)
(1.1213 0.373482 9.06246e-21)
(1.11785 0.363434 -4.19302e-20)
(0.10891 0.0416321 1.57779e-19)
(0.306692 0.122688 7.49864e-21)
(0.486063 0.203972 -2.02186e-19)
(0.645446 0.280398 3.28956e-21)
(0.782659 0.348772 -7.91023e-20)
(0.896366 0.40662 9.96317e-20)
(0.986531 0.452473 1.13236e-19)
(1.05448 0.486018 -8.04259e-20)
(1.10268 0.507952 -7.95328e-20)
(1.13436 0.519713 6.41814e-20)
(1.153 0.523153 -1.07201e-19)
(1.16199 0.520226 1.53396e-19)
(1.16428 0.512754 3.47716e-20)
(1.16227 0.502274 -1.49023e-20)
(1.15776 0.489985 1.65615e-19)
(1.15202 0.476752 -4.08488e-20)
(1.14588 0.463158 -4.35886e-20)
(1.13985 0.449574 2.22217e-20)
(1.13426 0.436222 -4.85105e-21)
(1.12925 0.423231 -7.47228e-20)
(1.1249 0.410669 -3.72569e-20)
(1.12117 0.398567 -3.40006e-20)
(1.11794 0.386852 6.47268e-20)
(1.11498 0.37557 -7.93238e-21)
(1.11173 0.365351 6.92835e-20)
(0.1108 0.0442915 8.25663e-20)
(0.310934 0.129616 -3.23333e-19)
(0.49138 0.21405 4.23299e-20)
(0.650709 0.292566 -1.55816e-19)
(0.786952 0.362038 2.86197e-19)
(0.899041 0.420126 -1.25636e-19)
(0.987228 0.465547 7.39316e-20)
(1.05311 0.498197 -2.90458e-20)
(1.09938 0.518976 8.20276e-20)
(1.1294 0.529493 -5.9837e-20)
(1.14675 0.531724 2.41217e-20)
(1.15481 0.5277 4.01662e-20)
(1.15651 0.519278 6.60406e-20)
(1.15419 0.507998 -1.72391e-19)
(1.14957 0.495043 7.05241e-20)
(1.14387 0.481255 4.25757e-20)
(1.13785 0.467191 -1.7908e-20)
(1.13201 0.453201 -2.78941e-20)
(1.12662 0.439492 -1.29317e-20)
(1.12184 0.426181 2.48077e-20)
(1.11773 0.413331 1.35104e-20)
(1.11423 0.40097 8.87283e-20)
(1.11125 0.38902 -3.43082e-20)
(1.10854 0.37754 -4.11907e-21)
(1.1055 0.367154 -5.23152e-20)
(0.112561 0.0469887 -7.09603e-20)
(0.314818 0.136603 5.4455e-21)
(0.49614 0.224159 1.2902e-19)
(0.655257 0.304706 -9.79253e-20)
(0.790421 0.375203 6.83151e-20)
(0.900835 0.433458 6.36195e-20)
(0.98704 0.478387 -1.24792e-19)
(1.0509 0.510103 2.08568e-20)
(1.0953 0.529708 4.14519e-21)
(1.12376 0.53898 1.68808e-19)
(1.1399 0.540014 1.04728e-20)
(1.14713 0.534913 -1.53754e-19)
(1.14832 0.525564 -1.31704e-19)
(1.14575 0.513507 1.27248e-19)
(1.14108 0.499907 -1.58216e-19)
(1.13546 0.48558 2.77574e-20)
(1.1296 0.471059 -7.99583e-21)
(1.12396 0.456674 1.83949e-20)