/*--------------------------------*- C++ -*----------------------------------*\
  =========                 |
  \\      /  F ield         | OpenFOAM: The Open Source CFD Toolbox
   \\    /   O peration     | Website:  https://openfoam.org
    \\  /    A nd           | Version:  7
     \\/     M anipulation  |
\*---------------------------------------------------------------------------*/
FoamFile
{
    version     2.0;
    format      ascii;
    class       volScalarField;
    location    "280";
    object      p;
}
// * * * * * * * * * * * * * * * * * * * * * * * * * * * * * * * * * * * * * //

dimensions      [0 2 -2 0 0 0 0];

internalField   nonuniform List<scalar> 
4575
(
-0.150677
-0.155459
-0.140472
-0.176332
-0.159968
-0.14466
-0.130084
-0.182015
-0.164426
-0.148547
-0.133667
-0.11952
-0.188216
-0.169368
-0.152296
-0.136923
-0.122491
-0.108789
-0.195006
-0.174773
-0.156483
-0.139954
-0.125109
-0.111141
-0.0978988
-0.202486
-0.180705
-0.161078
-0.143373
-0.127411
-0.113113
-0.099627
-0.0868608
-0.210749
-0.187259
-0.166136
-0.147145
-0.130051
-0.114679
-0.10095
-0.087962
-0.0756867
-0.219885
-0.194527
-0.17175
-0.151317
-0.132988
-0.11653
-0.101772
-0.0886308
-0.0761591
-0.0643905
-0.229954
-0.202596
-0.178007
-0.155976
-0.136261
-0.118623
-0.102825
-0.0887041
-0.0761707
-0.0642331
-0.0529884
-0.240931
-0.211528
-0.184993
-0.161207
-0.139953
-0.120985
-0.104063
-0.0889513
-0.0754896
-0.0635843
-0.0522
-0.0414998
-0.252613
-0.221307
-0.192773
-0.167097
-0.144148
-0.123699
-0.105506
-0.0893253
-0.074923
-0.062144
-0.0508871
-0.0400775
-0.0299467
-0.264468
-0.231747
-0.201337
-0.173711
-0.14893
-0.126848
-0.107234
-0.0898402
-0.0744253
-0.0607557
-0.0486826
-0.0380947
-0.0278842
-0.0183569
-0.275439
-0.242343
-0.210517
-0.181048
-0.154368
-0.130516
-0.10933
-0.0905763
-0.0740062
-0.0593789
-0.0464645
-0.0351204
-0.0252224
-0.0156412
-0.00676754
-0.252081
-0.219836
-0.188954
-0.160468
-0.134771
-0.111877
-0.0916148
-0.0737455
-0.058021
-0.0442022
-0.0320639
-0.0214714
-0.0122843
-0.00337023
0.00477629
-0.259259
-0.228322
-0.196982
-0.167091
-0.139627
-0.114946
-0.0930386
-0.0737245
-0.0567616
-0.0419026
-0.0289106
-0.017568
-0.00774868
0.000707871
0.00891229
0.0162392
-0.261447
-0.234322
-0.204201
-0.173817
-0.144961
-0.118556
-0.0949203
-0.0740259
-0.0556822
-0.0396453
-0.0256691
-0.0135199
-0.0029902
0.00603574
0.0137479
0.0212046
0.0275961
-0.235452
-0.20901
-0.179759
-0.15038
-0.122598
-0.097285
-0.0747232
-0.0548648
-0.0375114
-0.0224176
-0.00933891
0.00195477
0.0116563
0.0198729
0.0268403
0.0335081
0.038746
-0.228941
-0.209077
-0.183369
-0.155038
-0.126708
-0.100038
-0.0758468
-0.0543834
-0.0355817
-0.0192362
-0.00510031
0.00706925
0.0174976
0.0263601
0.0337649
0.0400116
0.0457917
0.0493918
-0.212472
-0.201667
-0.182369
-0.157445
-0.130081
-0.10284
-0.0773155
-0.0542735
-0.0339306
-0.016204
-0.000881578
0.0122841
0.0235354
0.0330917
0.0411126
0.0477301
0.0533108
0.0580094
0.0592456
-0.184444
-0.174071
-0.155378
-0.131283
-0.10493
-0.0788161
-0.0544668
-0.032598
-0.0133951
0.00324053
0.0175268
0.0297121
0.0400379
0.0487178
0.0559039
0.0617815
0.0667459
0.0701729
0.0690257
-0.156205
-0.156126
-0.146204
-0.128156
-0.104933
-0.07963
-0.0546756
-0.0315283
-0.0108539
0.00719232
0.0227234
0.0359625
0.0471589
0.056553
0.0643536
0.070716
0.075886
0.0801851
0.0821881
0.0817452
-0.127135
-0.12757
-0.11812
-0.100752
-0.0784395
-0.0542235
-0.030459
-0.00853706
0.010925
0.0278004
0.0422156
0.0543986
0.0645992
0.0730564
0.0799755
0.08552
0.0899671
0.0935375
0.0947181
0.0950779
-0.0978779
-0.09883
-0.0898731
-0.0732185
-0.0518525
-0.0287552
-0.0062067
0.0144698
0.0327045
0.0483975
0.061688
0.0728079
0.0820071
0.0895232
0.0955595
0.100287
0.103991
0.106813
0.107351
0.107809
-0.0684904
-0.0699631
-0.0615176
-0.0456066
-0.0252197
-0.0032697
0.0180404
0.037455
0.0544502
0.068952
0.081111
0.0911626
0.0993566
0.105929
0.111081
0.11499
0.117937
0.120021
0.119978
0.120219
-0.0390301
-0.0410246
-0.033108
-0.0179683
0.00141073
0.0221886
0.0422415
0.0603809
0.0761276
0.089432
0.100455
0.109435
0.116622
0.122248
0.126515
0.129603
0.131785
0.133138
0.132514
0.132389
-0.00955426
-0.0120708
-0.00469912
0.00964458
0.0279903
0.0475752
0.0663559
0.0832102
0.0977023
0.109805
0.11969
0.127598
0.133776
0.138457
0.141839
0.144102
0.145516
0.146137
0.144918
0.14434
0.0198797
0.016842
0.0236544
0.0371801
0.054471
0.0728457
0.0903427
0.105905
0.11914
0.130041
0.138788
0.145623
0.150795
0.15453
0.157028
0.158467
0.159108
0.158999
0.157168
0.156084
0.0492143
0.0456574
0.0518981
0.0645869
0.0808048
0.097956
0.114161
0.128429
0.140405
0.150106
0.157717
0.163484
0.167651
0.170445
0.172061
0.172676
0.172545
0.171703
0.16925
0.167627
0.0783927
0.0743193
0.0799776
0.0918134
0.106944
0.122862
0.137772
0.150745
0.161466
0.169969
0.17645
0.181153
0.184321
0.186178
0.186915
0.186709
0.185806
0.184233
0.181151
0.178967
0.107358
0.102772
0.107839
0.118809
0.132841
0.147521
0.161134
0.172815
0.182286
0.1896
0.194958
0.198604
0.200779
0.201705
0.201569
0.200547
0.198875
0.196574
0.192861
0.190102
0.136054
0.13096
0.135429
0.145523
0.158451
0.171889
0.184209
0.194605
0.202834
0.208968
0.213211
0.21581
0.217002
0.217004
0.216003
0.214171
0.211735
0.20871
0.204369
0.164425
0.158829
0.162695
0.171906
0.183725
0.195925
0.206957
0.216077
0.223077
0.228041
0.231183
0.232745
0.232964
0.232053
0.230196
0.227562
0.22437
0.220627
0.215663
0.192415
0.186325
0.189584
0.19791
0.20862
0.219585
0.229341
0.237197
0.242981
0.246791
0.248844
0.249383
0.248642
0.246831
0.244129
0.240702
0.236762
0.232312
0.226731
0.219972
0.213394
0.216047
0.223485
0.23309
0.242831
0.251322
0.257931
0.262515
0.265187
0.266168
0.2657
0.264014
0.261316
0.257782
0.253574
0.248898
0.24375
0.247041
0.239984
0.242031
0.248585
0.257092
0.26562
0.272863
0.278243
0.281647
0.283201
0.283129
0.281672
0.279057
0.275487
0.271135
0.266161
0.26076
0.254928
0.273571
0.266044
0.267489
0.273163
0.280584
0.287914
0.293929
0.298102
0.300347
0.300805
0.2997
0.297273
0.293748
0.289324
0.284172
0.278446
0.272335
0.265833
0.29951
0.291524
0.292372
0.297175
0.303522
0.309675
0.314484
0.317474
0.318586
0.317971
0.315856
0.312481
0.308066
0.302808
0.296872
0.290412
0.283607
0.276451
0.324809
0.316376
0.316633
0.320577
0.325868
0.330865
0.334494
0.336327
0.336333
0.334671
0.331572
0.327272
0.32199
0.315918
0.309219
0.302042
0.294561
0.349419
0.340551
0.340227
0.343325
0.347581
0.351448
0.353925
0.354632
0.353561
0.350881
0.346824
0.341625
0.3355
0.328636
0.321195
0.313322
0.305183
0.373294
0.364004
0.36311
0.365379
0.368623
0.371389
0.372746
0.372358
0.370242
0.366574
0.361588
0.355518
0.348575
0.340945
0.332784
0.324236
0.315459
0.396388
0.38669
0.385239
0.386699
0.388957
0.390654
0.390924
0.389477
0.386349
0.381726
0.375843
0.36893
0.361196
0.352825
0.343969
0.334769
0.325376
0.418658
0.408566
0.406573
0.407246
0.408549
0.409209
0.40843
0.405961
0.401858
0.396314
0.389565
0.38184
0.373346
0.36426
0.354735
0.344907
0.440062
0.429592
0.427073
0.426984
0.427363
0.427025
0.425236
0.421783
0.416743
0.410315
0.402735
0.394231
0.385005
0.375234
0.365067
0.354635
0.460559
0.449728
0.446702
0.445877
0.445367
0.44407
0.441312
0.436918
0.430981
0.423707
0.415332
0.406082
0.396157
0.385731
0.374949
0.363941
0.480111
0.468935
0.465422
0.463892
0.46253
0.460317
0.456634
0.451342
0.444549
0.436469
0.427337
0.417376
0.406786
0.395736
0.384368
0.372811
0.498681
0.48718
0.483201
0.480997
0.478824
0.475738
0.471176
0.465031
0.457427
0.448582
0.438731
0.428098
0.416876
0.405233
0.393311
0.381234
0.516236
0.504427
0.500005
0.497162
0.494219
0.490307
0.484915
0.477964
0.469594
0.460027
0.449499
0.438229
0.426412
0.414211
0.401766
0.532744
0.520646
0.515806
0.512358
0.50869
0.504001
0.497828
0.490121
0.481031
0.470786
0.459622
0.447757
0.435381
0.422656
0.40972
0.548173
0.535807
0.530574
0.52656
0.522213
0.516797
0.509895
0.501481
0.491721
0.480845
0.469087
0.456666
0.443769
0.430556
0.417162
0.562496
0.549882
0.544284
0.539743
0.534764
0.528675
0.521096
0.512029
0.501647
0.490186
0.47788
0.464944
0.451565
0.4379
0.424083
0.575687
0.562846
0.556911
0.551884
0.546324
0.539614
0.531414
0.521746
0.510795
0.498796
0.485987
0.472579
0.458757
0.444678
0.430472
0.587723
0.574676
0.568434
0.562963
0.556874
0.549599
0.540833
0.530619
0.519149
0.506663
0.493396
0.479559
0.465336
0.45088
0.436321
0.598583
0.585352
0.578833
0.572961
0.566395
0.558612
0.549339
0.538634
0.526699
0.513775
0.500097
0.485876
0.471292
0.456498
0.441623
0.608248
0.594855
0.58809
0.581863
0.574874
0.566641
0.556918
0.545779
0.533433
0.520122
0.506081
0.49152
0.476617
0.461525
0.44637
0.616701
0.603169
0.59619
0.589654
0.582297
0.573673
0.563559
0.552044
0.539341
0.525694
0.511339
0.496483
0.481305
0.465954
0.450556
0.623928
0.61028
0.60312
0.596322
0.588652
0.579697
0.569253
0.55742
0.544415
0.530486
0.515865
0.50076
0.485348
0.469779
0.454176
0.629919
0.616178
0.608869
0.601856
0.593932
0.584706
0.573992
0.5619
0.548649
0.534489
0.519652
0.504344
0.488743
0.472995
0.457226
0.634663
0.620853
0.613429
0.60625
0.598127
0.588692
0.57777
0.565477
0.552037
0.537699
0.522695
0.507232
0.491484
0.4756
0.638155
0.624299
0.616794
0.609496
0.601234
0.591651
0.580582
0.568148
0.554576
0.540113
0.524993
0.50942
0.49357
0.47759
0.64039
0.626512
0.61896
0.611593
0.603249
0.593579
0.582426
0.569911
0.556262
0.541728
0.526542
0.510907
0.494999
0.478964
0.641367
0.62749
0.619926
0.612538
0.60417
0.594476
0.5833
0.570764
0.557096
0.542544
0.527341
0.511692
0.495769
0.479721
0.641087
0.627235
0.619692
0.612332
0.603998
0.594342
0.583205
0.570708
0.557077
0.542561
0.527392
0.511774
0.495882
0.479861
0.639553
0.62575
0.618262
0.610979
0.602737
0.59318
0.582144
0.569745
0.556208
0.541781
0.526696
0.511157
0.495338
0.479387
0.636771
0.62304
0.615642
0.608484
0.600391
0.590995
0.58012
0.567879
0.554493
0.540208
0.525256
0.509842
0.494141
0.478299
0.46244
0.63275
0.619115
0.611838
0.604853
0.596967
0.587792
0.57714
0.565115
0.551935
0.537845
0.523076
0.507834
0.492293
0.476602
0.460883
0.627501
0.613984
0.606863
0.600098
0.592474
0.58358
0.573211
0.56146
0.548542
0.534698
0.520162
0.505137
0.4898
0.474299
0.458759
0.621036
0.60766
0.600727
0.594228
0.586923
0.578369
0.568342
0.556924
0.544322
0.530776
0.51652
0.501758
0.486667
0.471397
0.456072
0.613372
0.600161
0.593446
0.587259
0.580326
0.572171
0.562545
0.551515
0.539283
0.526087
0.512158
0.497704
0.482901
0.467901
0.452829
0.604528
0.591502
0.585037
0.579206
0.572698
0.564999
0.555831
0.545246
0.533437
0.52064
0.507086
0.492984
0.47851
0.463819
0.449035
0.594523
0.581705
0.57552
0.570086
0.564056
0.556868
0.548215
0.538129
0.526795
0.514447
0.501314
0.487606
0.473503
0.459158
0.444699
0.58338
0.570791
0.564915
0.559922
0.554419
0.547796
0.539712
0.530179
0.519372
0.50752
0.494854
0.481583
0.46789
0.453928
0.439828
0.571125
0.558787
0.553246
0.548733
0.543806
0.537802
0.530341
0.521413
0.511181
0.499873
0.487717
0.474925
0.461681
0.44814
0.434433
0.557786
0.545717
0.54054
0.536545
0.532241
0.526906
0.52012
0.511847
0.50224
0.49152
0.479918
0.467646
0.454888
0.441802
0.428522
0.543392
0.531613
0.526823
0.523383
0.519747
0.51513
0.509069
0.5015
0.492565
0.482479
0.471472
0.459758
0.447524
0.434929
0.422108
0.527974
0.516504
0.512126
0.509276
0.50635
0.502498
0.49721
0.490394
0.482175
0.472766
0.462395
0.451278
0.439602
0.427531
0.415201
0.402731
0.511568
0.500425
0.496481
0.494253
0.492077
0.489036
0.484567
0.478548
0.47109
0.462399
0.452704
0.442219
0.431138
0.419623
0.407814
0.395832
0.494208
0.48341
0.47992
0.478345
0.476958
0.47477
0.471164
0.465987
0.459332
0.451399
0.442416
0.4326
0.422145
0.411218
0.399959
0.388494
0.475933
0.465497
0.462481
0.461586
0.461024
0.459728
0.457028
0.452733
0.446921
0.439785
0.431551
0.422438
0.412642
0.402332
0.391651
0.380728
0.456782
0.446724
0.4442
0.444011
0.444307
0.443941
0.442186
0.438814
0.433883
0.427579
0.420128
0.41175
0.402643
0.39298
0.382905
0.372549
0.436798
0.427133
0.425116
0.425657
0.42684
0.42744
0.426666
0.424254
0.42024
0.414804
0.408169
0.400557
0.392168
0.383178
0.373734
0.363969
0.354024
0.416023
0.406767
0.405271
0.406561
0.408659
0.410256
0.410499
0.409081
0.406019
0.401483
0.395695
0.388878
0.381235
0.372944
0.364155
0.355005
0.345639
0.394503
0.385668
0.384705
0.386764
0.389802
0.392425
0.393716
0.393325
0.391246
0.387641
0.382728
0.376733
0.369862
0.362294
0.354184
0.345669
0.336903
0.372284
0.363884
0.363464
0.366306
0.370305
0.373981
0.376348
0.377014
0.375949
0.373302
0.369292
0.364146
0.35807
0.351248
0.343837
0.335978
0.32783
0.349414
0.341461
0.341593
0.34523
0.350208
0.354959
0.35843
0.36018
0.360154
0.358493
0.355411
0.351136
0.345878
0.339823
0.333131
0.325947
0.318436
0.310601
0.325943
0.318447
0.319138
0.32358
0.329552
0.335398
0.339995
0.342854
0.343893
0.343241
0.34111
0.337728
0.333308
0.32804
0.322086
0.315593
0.308734
0.301513
0.301921
0.294894
0.296146
0.3014
0.308378
0.315336
0.321079
0.325068
0.327193
0.327572
0.326413
0.323944
0.320381
0.315917
0.310717
0.304931
0.29874
0.292147
0.2774
0.270851
0.272668
0.278738
0.286729
0.294812
0.301717
0.306855
0.310087
0.311516
0.311347
0.309809
0.30712
0.303476
0.299044
0.29398
0.288468
0.282517
0.275666
0.252434
0.24637
0.248753
0.255639
0.264648
0.273865
0.281947
0.288249
0.292605
0.295101
0.295938
0.295347
0.293546
0.290736
0.287086
0.282755
0.277935
0.272637
0.266356
0.227076
0.221506
0.224452
0.232151
0.24218
0.252538
0.261805
0.269286
0.274778
0.278356
0.280214
0.280582
0.279683
0.277719
0.274862
0.271274
0.267155
0.26252
0.256818
0.201381
0.196311
0.199816
0.208325
0.219371
0.230871
0.241331
0.249999
0.25664
0.261311
0.264201
0.265541
0.265554
0.264446
0.262392
0.259556
0.256145
0.252181
0.247065
0.242832
0.175404
0.170839
0.1749
0.184208
0.196266
0.208907
0.220564
0.230426
0.238223
0.243996
0.247929
0.250249
0.251183
0.250939
0.249695
0.247618
0.244922
0.241634
0.237108
0.233427
0.149202
0.145147
0.149754
0.159852
0.172912
0.186689
0.199542
0.210601
0.21956
0.226443
0.231424
0.234731
0.236593
0.23722
0.236792
0.235478
0.2335
0.230894
0.226958
0.223821
0.122831
0.11929
0.124435
0.135307
0.149356
0.164261
0.178305
0.190561
0.200686
0.208681
0.214716
0.219016
0.22181
0.223311
0.223704
0.223157
0.221899
0.219974
0.216627
0.21402
0.0963475
0.0933231
0.0989947
0.110624
0.125645
0.141665
0.156894
0.170344
0.181633
0.190743
0.197834
0.203129
0.206858
0.209237
0.210452
0.210672
0.210134
0.20889
0.206126
0.20403
0.0698089
0.0673029
0.0734885
0.0858545
0.101828
0.118947
0.135349
0.149987
0.162437
0.17266
0.180807
0.187097
0.191762
0.19502
0.197057
0.198044
0.198224
0.197659
0.195467
0.193851
0.0432724
0.0412854
0.0479704
0.0610506
0.0779518
0.0961495
0.113711
0.129526
0.143132
0.154464
0.163664
0.170948
0.176548
0.180683
0.183542
0.185294
0.186188
0.186299
0.184663
0.183478
0.0167948
0.0153264
0.0224952
0.0362637
0.0540657
0.0733182
0.0920199
0.109
0.123752
0.136187
0.146434
0.154709
0.161241
0.166252
0.16993
0.172443
0.174045
0.174831
0.173733
0.172899
-0.00956684
-0.0105183
-0.00288316
0.0115453
0.0302174
0.0504973
0.0703174
0.0884456
0.104331
0.117859
0.129148
0.138407
0.145867
0.151749
0.156244
0.159514
0.161815
0.163279
0.162712
0.162093
-0.0357561
-0.0361936
-0.0281106
-0.013053
0.00645496
0.0277309
0.0486439
0.0679001
0.0849035
0.099514
0.111835
0.122071
0.130452
0.1372
0.142508
0.146532
0.149518
0.151665
0.151676
0.150981
-0.0617166
-0.0616451
-0.0531334
-0.0374803
-0.0171738
0.00506332
0.0270398
0.0474008
0.0655043
0.081182
0.0945229
0.105726
0.115021
0.122629
0.128747
0.133522
0.137176
0.139987
0.140718
0.139321
-0.0868186
-0.0778983
-0.0616855
-0.0406213
-0.0174616
0.00554532
0.0269845
0.0461669
0.0628947
0.0772416
0.0894007
0.0995991
0.10806
0.114983
0.120513
0.124821
0.128244
0.130227
0.128287
-0.111663
-0.102354
-0.0856194
-0.0638409
-0.0398007
-0.0157997
0.00668769
0.0269247
0.0446828
0.0600194
0.0731208
0.0842122
0.0935173
0.10124
0.107532
0.112521
0.116521
0.119644
0.11981
-0.126449
-0.109232
-0.0867863
-0.0619109
-0.0369558
-0.0134537
0.00781069
0.0265767
0.0428844
0.0569123
0.068884
0.0790234
0.0875388
0.0945962
0.100304
0.104921
0.109026
0.111274
-0.132477
-0.109412
-0.0837501
-0.0578845
-0.0334041
-0.0111427
0.00860616
0.0258637
0.0408004
0.0536375
0.0645995
0.0738987
0.0817159
0.088159
0.0934332
0.0983442
0.102055
-0.155305
-0.131673
-0.105277
-0.0785476
-0.053129
-0.0299037
-0.00919982
0.00898415
0.0248095
0.0384948
0.0502653
0.060336
0.0688999
0.0760728
0.0820193
0.0876393
0.092384
-0.153526
-0.126451
-0.0989079
-0.0725941
-0.0484413
-0.0268128
-0.00772836
0.00896319
0.0234773
0.0360392
0.0468664
0.0561601
0.0640451
0.0706597
0.0769472
0.0825229
-0.147232
-0.118929
-0.0917664
-0.0667251
-0.0442052
-0.0242486
-0.00671555
0.00860544
0.0219394
0.0335051
0.0435097
0.0520855
0.0593531
0.066272
0.0725718
-0.138575
-0.110613
-0.0847257
-0.06135
-0.0405521
-0.0222045
-0.00610061
0.00798367
0.0202677
0.0309624
0.0402065
0.0481067
0.0556176
0.0625586
-0.157813
-0.129104
-0.102415
-0.0782214
-0.0566152
-0.037482
-0.0206213
-0.00581055
0.00716956
0.0185322
0.0284212
0.0369324
0.0449997
0.052516
-0.147207
-0.119764
-0.0947942
-0.072415
-0.0525274
-0.0349377
-0.019426
-0.00577369
0.00623332
0.0167437
0.0258444
0.0344393
0.0424843
-0.136747
-0.111044
-0.0879294
-0.0673203
-0.0490314
-0.0328458
-0.0185465
-0.00591933
0.00518844
0.0148576
0.0239562
0.0324976
-0.126948
-0.103137
-0.0818414
-0.0628845
-0.0460535
-0.0311335
-0.017911
-0.00622955
0.00398722
0.0135681
0.0225815
-0.118018
-0.0960721
-0.0764797
-0.0590331
-0.0435196
-0.029727
-0.0174957
-0.00675205
0.00329165
0.0127566
-0.109994
-0.0898008
-0.0717692
-0.0556902
-0.0413533
-0.0285959
-0.0173461
-0.0068581
0.00304037
-0.102832
-0.0842471
-0.0676313
-0.0527764
-0.0395168
-0.0277815
-0.0168673
-0.00655181
-0.0964528
-0.0793297
-0.0639833
-0.0502457
-0.0380461
-0.0267234
-0.016007
-0.0907728
-0.0749619
-0.0607709
-0.0481283
-0.036415
-0.025314
-0.0857011
-0.0710816
-0.0580177
-0.0459321
-0.0344628
-0.0811677
-0.067705
-0.0552652
-0.0434446
-0.0644063
-0.0522511
-0.0608746
0.0616465
0.051653
0.0414182
0.0314373
0.0210813
0.0104241
-0.000281376
-0.0109742
-0.0216584
-0.0323067
-0.0428835
-0.0533666
-0.0637428
-0.0740011
-0.0841311
-0.0941245
-0.103975
-0.113675
-0.123222
-0.132609
-0.141834
0.0507146
0.0404075
0.0291407
0.0192311
0.00962381
-0.000227453
-0.0100955
-0.0198102
-0.0293901
-0.0388649
-0.0482263
-0.0574619
-0.0665692
-0.0755491
-0.0844007
-0.0931223
-0.101713
-0.11017
-0.118494
-0.126682
-0.134734
0.0382083
0.0282596
0.0175019
0.0084172
-4.21131e-05
-0.00867746
-0.0173799
-0.0259364
-0.0343375
-0.0426344
-0.0508395
-0.058943
-0.06694
-0.074831
-0.082616
-0.0902933
-0.0978609
-0.105317
-0.11266
-0.119889
-0.127002
0.0261817
0.0170313
0.00740811
-0.000634886
-0.00806207
-0.0156445
-0.0233268
-0.030901
-0.0383322
-0.0456645
-0.0529165
-0.0600802
-0.0671481
-0.0741189
-0.080993
-0.0877698
-0.0944481
-0.101027
-0.107507
-0.113887
-0.120167
0.0159373
0.00774827
-0.000683416
-0.00776607
-0.0143312
-0.0210282
-0.0278182
-0.0345208
-0.041095
-0.0475753
-0.0539811
-0.0603085
-0.066551
-0.0727072
-0.0787784
-0.0847651
-0.0906673
-0.096485
-0.102219
-0.107868
-0.113435
0.00748341
0.000176135
-0.00719918
-0.0134565
-0.0192995
-0.0252462
-0.0312626
-0.0372018
-0.0430279
-0.0487678
-0.0544394
-0.0600412
-0.0655684
-0.07102
-0.0763973
-0.0817014
-0.0869327
-0.0920917
-0.0971788
-0.102195
-0.10714
0.000510107
-0.00602669
-0.01247
-0.0179901
-0.0231914
-0.0284741
-0.0338023
-0.0390602
-0.0442204
-0.0493047
-0.0543277
-0.0592893
-0.0641863
-0.0690181
-0.0737859
-0.0784911
-0.0831343
-0.0877161
-0.0922373
-0.0966988
-0.101101
-0.00520892
-0.011058
-0.0166745
-0.0215325
-0.0261583
-0.0308518
-0.0355717
-0.0402276
-0.0448009
-0.0493092
-0.0537641
-0.0581657
-0.0625117
-0.0668021
-0.071038
-0.0752204
-0.0793503
-0.0834283
-0.0874551
-0.0914317
-0.0953587
-0.00982636
-0.0150542
-0.0199425
-0.0242137
-0.0283274
-0.0324999
-0.0366842
-0.0408102
-0.0448669
-0.0488688
-0.0528247
-0.0567345
-0.0605969
-0.0644119
-0.0681805
-0.0719038
-0.0755827
-0.0792178
-0.0828098
-0.0863597
-0.0898681
-0.0134808
-0.0181496
-0.0224027
-0.0261589
-0.0298193
-0.0335319
-0.0372451
-0.0409052
-0.0445075
-0.048064
-0.0515812
-0.0550589
-0.0584961
-0.0618932
-0.0652511
-0.0685706
-0.0718526
-0.0750978
-0.0783067
-0.0814802
-0.084619
-0.0163048
-0.0204735
-0.0241747
-0.0274802
-0.0307395
-0.0340457
-0.0373441
-0.0405942
-0.0437962
-0.0469605
-0.0500913
-0.0531883
-0.056251
-0.0592797
-0.0622753
-0.0652386
-0.0681703
-0.0710709
-0.0739411
-0.0767815
-0.0795927
-0.0184181
-0.0221404
-0.025363
-0.0282741
-0.0311782
-0.0341248
-0.0370575
-0.0399466
-0.0427958
-0.045614
-0.0484039
-0.0511652
-0.0538973
-0.0566008
-0.0592764
-0.0619248
-0.0645466
-0.0671422
-0.0697123
-0.0722573
-0.0747779
-0.0199247
-0.0232491
-0.0260569
-0.0286228
-0.0312122
-0.0338405
-0.0364507
-0.0390214
-0.0415592
-0.0440718
-0.0465607
-0.0490252
-0.051465
-0.0538808
-0.0562732
-0.0586426
-0.0609896
-0.0633147
-0.0656182
-0.0679007
-0.0701627
-0.0209151
-0.023885
-0.0263335
-0.0285974
-0.0309078
-0.0332542
-0.0355796
-0.0378694
-0.0401321
-0.0423744
-0.044597
-0.0467988
-0.0489799
-0.0511408
-0.053282
-0.0554039
-0.057507
-0.0595916
-0.0616581
-0.0637069
-0.0657384
-0.0214681
-0.0241223
-0.0262597
-0.0282593
-0.0303224
-0.0324187
-0.0344925
-0.0365341
-0.0385536
-0.0405567
-0.0425433
-0.0445124
-0.0464641
-0.0483987
-0.0503169
-0.0522189
-0.054105
-0.0559756
-0.057831
-0.0596715
-0.0614974
-0.0216525
-0.0240255
-0.0258937
-0.0276619
-0.0295055
-0.0313799
-0.0332311
-0.0350533
-0.0368575
-0.0386485
-0.0404259
-0.0421886
-0.0439365
-0.0456702
-0.0473901
-0.0490965
-0.0507895
-0.0524694
-0.0541366
-0.0557912
-0.0574335
-0.021528
-0.0236509
-0.0252859
-0.0268515
-0.0285002
-0.0301776
-0.0318317
-0.0334597
-0.035073
-0.036676
-0.0382676
-0.0398469
-0.0414139
-0.0429689
-0.0445123
-0.0460444
-0.0475653
-0.0490752
-0.0505743
-0.0520629
-0.0535411
-0.0211468
-0.023047
-0.0244802
-0.0258682
-0.0273438
-0.028846
-0.0303255
-0.0317816
-0.0332256
-0.0346616
-0.0360883
-0.0375046
-0.0389105
-0.0403064
-0.0416927
-0.0430695
-0.0444368
-0.0457949
-0.047144
-0.0484842
-0.0498156
-0.0205545
-0.0222563
-0.0235148
-0.0247469
-0.0260687
-0.0274153
-0.0287399
-0.0300435
-0.0313374
-0.032625
-0.033905
-0.0351763
-0.0364388
-0.0376931
-0.0389393
-0.0401775
-0.0414078
-0.0426304
-0.0438453
-0.0450528
-0.0462528
-0.0197904
-0.0213156
-0.0224228
-0.0235183
-0.0247033
-0.0259114
-0.0270986
-0.028267
-0.0294274
-0.0305831
-0.0317326
-0.0328748
-0.0340097
-0.0351377
-0.0362589
-0.0373735
-0.0384815
-0.0395829
-0.0406779
-0.0417666
-0.042849
-0.0188893
-0.0202571
-0.0212332
-0.0222088
-0.023272
-0.0243568
-0.0254221
-0.0264704
-0.0275123
-0.0285507
-0.029584
-0.0306112
-0.0316324
-0.0326477
-0.0336575
-0.0346616
-0.0356602
-0.0366534
-0.0376411
-0.0386236
-0.0396007
-0.0178809
-0.0191086
-0.0199711
-0.0208413
-0.0217963
-0.0227713
-0.0237282
-0.0246699
-0.0256064
-0.0265403
-0.0274701
-0.0283949
-0.0293146
-0.0302295
-0.0311396
-0.0320452
-0.0329461
-0.0338423
-0.0347341
-0.0356213
-0.0365041
-0.0167915
-0.0178943
-0.0186582
-0.0194359
-0.0202945
-0.0211717
-0.0220322
-0.0228792
-0.023722
-0.0245628
-0.0254004
-0.0262338
-0.027063
-0.0278881
-0.0287094
-0.0295267
-0.0303402
-0.0311498
-0.0319555
-0.0327575
-0.0335557
-0.0156436
-0.0166349
-0.0173135
-0.0180097
-0.0187825
-0.0195726
-0.0203474
-0.0211101
-0.0218694
-0.0226274
-0.0233827
-0.0241346
-0.0248829
-0.025628
-0.0263697
-0.0271082
-0.0278435
-0.0285754
-0.0293042
-0.0300298
-0.0307521
-0.0144567
-0.0153487
-0.015953
-0.0165777
-0.0172741
-0.0179864
-0.0186849
-0.0193726
-0.0200576
-0.0207416
-0.0214236
-0.0221027
-0.0227789
-0.0234523
-0.024123
-0.0247909
-0.0254561
-0.0261186
-0.0267783
-0.0274354
-0.0280897
-0.0132477
-0.0140509
-0.0145909
-0.0151524
-0.0157807
-0.0164237
-0.0170542
-0.0176752
-0.0182939
-0.018912
-0.0195285
-0.0201426
-0.0207543
-0.0213636
-0.0219707
-0.0225755
-0.0231779
-0.0237781
-0.024376
-0.0249716
-0.0255648
-0.0120309
-0.0127549
-0.0132388
-0.0137447
-0.0143123
-0.0148934
-0.0154634
-0.0160248
-0.0165844
-0.0171437
-0.0177016
-0.0182576
-0.0188116
-0.0193636
-0.0199137
-0.0204619
-0.0210082
-0.0215525
-0.0220949
-0.0226353
-0.0231737
-0.0108185
-0.0114717
-0.0119067
-0.0123636
-0.012877
-0.0134029
-0.0139188
-0.0144271
-0.0149339
-0.0154406
-0.0159463
-0.0164503
-0.0169526
-0.0174533
-0.0179524
-0.0184499
-0.0189457
-0.0194399
-0.0199325
-0.0204233
-0.0209125
-0.00962075
-0.0102107
-0.0106031
-0.0110166
-0.0114817
-0.0119581
-0.0124257
-0.0128867
-0.0133463
-0.013806
-0.0142648
-0.0147223
-0.0151783
-0.015633
-0.0160864
-0.0165383
-0.0169889
-0.0174381
-0.0178859
-0.0183322
-0.0187771
-0.00844635
-0.0089797
-0.00933476
-0.00970988
-0.0101317
-0.010564
-0.0109884
-0.011407
-0.0118244
-0.012242
-0.0126589
-0.0130746
-0.0134892
-0.0139026
-0.0143149
-0.014726
-0.0151359
-0.0155447
-0.0159522
-0.0163584
-0.0167634
-0.0073023
-0.00778492
-0.00810726
-0.00844832
-0.00883154
-0.0092242
-0.00960999
-0.00999062
-0.0103703
-0.0107501
-0.0111294
-0.0115077
-0.011885
-0.0122613
-0.0126367
-0.0130111
-0.0133845
-0.0137568
-0.0141281
-0.0144982
-0.0148673
-0.00619432
-0.00663145
-0.006925
-0.0072358
-0.00758441
-0.00794158
-0.00829274
-0.00863935
-0.00898514
-0.00933104
-0.00967656
-0.0100213
-0.0103651
-0.0107081
-0.0110503
-0.0113916
-0.011732
-0.0120716
-0.0124102
-0.0127478
-0.0130845
-0.00512694
-0.00552324
-0.00579137
-0.00607521
-0.0063928
-0.0067181
-0.00703817
-0.00735425
-0.00766959
-0.00798506
-0.00830021
-0.00861467
-0.00892837
-0.00924136
-0.00955362
-0.00986515
-0.0101759
-0.0104858
-0.010795
-0.0111033
-0.0114107
-0.00410365
-0.00446325
-0.00470886
-0.00496862
-0.00525834
-0.005555
-0.00584712
-0.00613573
-0.00642369
-0.00671176
-0.00699956
-0.00728677
-0.00757332
-0.00785924
-0.00814453
-0.00842916
-0.0087131
-0.00899634
-0.00927886
-0.00956062
-0.00984163
-0.003127
-0.00345359
-0.00367916
-0.00391735
-0.00418201
-0.00445288
-0.00471983
-0.0049837
-0.00524698
-0.00551035
-0.00577348
-0.0060361
-0.00629814
-0.00655962
-0.00682053
-0.00708086
-0.00734058
-0.00759967
-0.0078581
-0.00811586
-0.00837294
-0.00219877
-0.00249562
-0.00270327
-0.00292209
-0.00316418
-0.0034118
-0.00365603
-0.00389758
-0.00413858
-0.00437964
-0.00462049
-0.00486088
-0.00510076
-0.00534013
-0.005579
-0.00581734
-0.00605512
-0.00629234
-0.00652896
-0.00676497
-0.00700035
-0.00132004
-0.00159006
-0.00178163
-0.00198299
-0.00220471
-0.00243132
-0.00265503
-0.00287638
-0.00309723
-0.00331812
-0.0035388
-0.00375908
-0.00397888
-0.00419823
-0.00441712
-0.00463553
-0.00485343
-0.0050708
-0.00528764
-0.00550391
-0.00571961
-0.00049128
-0.000737063
-0.000914141
-0.00109972
-0.00130302
-0.00151062
-0.00171575
-0.00191881
-0.00212141
-0.002324
-0.00252641
-0.00272844
-0.00293005
-0.00313123
-0.00333199
-0.0035323
-0.00373215
-0.00393151
-0.00413037
-0.00432872
-0.00452653
0.000287535
6.3663e-05
-0.000100282
-0.000271549
-0.000458165
-0.000648549
-0.000836812
-0.00102328
-0.00120931
-0.00139531
-0.00158112
-0.00176658
-0.00195165
-0.00213633
-0.00232061
-0.00250448
-0.00268791
-0.00287089
-0.0030534
-0.00323543
-0.00341696
0.00101686
0.000812822
0.000660824
0.000502568
0.000331094
0.000156341
-1.66038e-05
-0.000187984
-0.000358951
-0.000529858
-0.000700577
-0.00087097
-0.001041
-0.00121065
-0.00137994
-0.00154883
-0.00171732
-0.00188538
-0.00205301
-0.00222018
-0.00238688
0.00169751
0.00151144
0.00137035
0.00122396
0.00106625
0.000905709
0.000746704
0.000589061
0.00043181
0.000274644
0.000117669
-3.89981e-05
-0.00019532
-0.000351293
-0.000506913
-0.000662163
-0.000817027
-0.000971491
-0.00112554
-0.00127916
-0.00143235
0.00233058
0.00216081
0.00202972
0.00189418
0.001749
0.00160139
0.00145509
0.00130997
0.00116522
0.00102059
0.000876143
0.000731994
0.000588171
0.000444679
0.000301526
0.000158724
1.62879e-05
-0.000125767
-0.000267429
-0.000408686
-0.000549525
0.00291741
0.00276242
0.00264053
0.00251492
0.00238117
0.00224535
0.00211063
0.00197695
0.00184362
0.00171042
0.00157741
0.00144468
0.00131227
0.00118017
0.0010484
0.000916964
0.000785876
0.000655151
0.000524801
0.000394837
0.00026527
0.00345951
0.00331795
0.00320452
0.00308804
0.00296471
0.00283964
0.0027155
0.00259227
0.00246936
0.0023466
0.00222404
0.00210175
0.00197976
0.00185807
0.0017367
0.00161564
0.00149492
0.00137455
0.00125453
0.00113488
0.00101562
0.00395855
0.00382916
0.00372355
0.00361544
0.00350163
0.00338637
0.0032719
0.00315821
0.00304483
0.00293161
0.00281859
0.00270584
0.00259337
0.00248119
0.00236931
0.00225774
0.00214649
0.00203557
0.00192499
0.00181477
0.00170491
0.00441624
0.0042979
0.00419951
0.00409911
0.00399399
0.00388766
0.00378202
0.00367705
0.00357239
0.00346788
0.00336358
0.00325953
0.00315576
0.00305226
0.00294906
0.00284615
0.00274355
0.00264127
0.00253931
0.0024377
0.00233643
0.00483438
0.00472605
0.00463433
0.004541
0.00444381
0.00434565
0.00424806
0.00415106
0.00405434
0.00395779
0.00386144
0.00376534
0.0036695
0.00357393
0.00347864
0.00338363
0.00328892
0.00319452
0.00310043
0.00300667
0.00291324
0.00521477
0.00511549
0.00502992
0.00494309
0.00485313
0.00476239
0.00467214
0.0045824
0.00449293
0.00440363
0.00431453
0.00422567
0.00413706
0.00404872
0.00396063
0.00387283
0.0037853
0.00369808
0.00361115
0.00352454
0.00343825
0.00555918
0.00546808
0.00538816
0.00530727
0.00522389
0.0051399
0.00505632
0.00497319
0.00489031
0.0048076
0.0047251
0.00464282
0.00456078
0.004479
0.00439747
0.0043162
0.00423521
0.00415451
0.00407409
0.00399398
0.00586934
0.00578558
0.00571084
0.00563539
0.00555797
0.00548008
0.00540255
0.0053254
0.00524849
0.00517176
0.00509523
0.00501892
0.00494283
0.00486699
0.0047914
0.00471606
0.00464098
0.00456618
0.00449166
0.00441742
0.0061469
0.00606971
0.0059997
0.00592917
0.00585713
0.00578474
0.00571266
0.00564091
0.00556939
0.00549805
0.0054269
0.00535596
0.00528525
0.00521477
0.00514452
0.00507453
0.00500478
0.0049353
0.00486609
0.00479715
0.00639337
0.00632202
0.00625628
0.00619019
0.00612297
0.0060555
0.0059883
0.0059214
0.0058547
0.00578819
0.00572186
0.00565573
0.00558983
0.00552414
0.00545869
0.00539347
0.0053285