/*--------------------------------*- C++ -*----------------------------------*\
  =========                 |
  \\      /  F ield         | OpenFOAM: The Open Source CFD Toolbox
   \\    /   O peration     | Website:  https://openfoam.org
    \\  /    A nd           | Version:  7
     \\/     M anipulation  |
\*---------------------------------------------------------------------------*/
FoamFile
{
    version     2.0;
    format      ascii;
    class       volVectorField;
    location    "60";
    object      U;
}
// * * * * * * * * * * * * * * * * * * * * * * * * * * * * * * * * * * * * * //

dimensions      [0 1 -1 0 0 0 0];

internalField   nonuniform List<vector> 
7156
(
(0.0146612 -0.00264339 1.1592e-20)
(0.0559721 -0.00655286 6.34434e-21)
(0.0165484 -0.00276716 -1.01601e-19)
(0.0616686 -0.00658275 3.79949e-20)
(0.119291 -0.0053954 1.16801e-19)
(0.188283 -0.000212262 -8.08992e-20)
(0.0185286 -0.00284887 2.43429e-20)
(0.0676017 -0.00648044 8.17169e-20)
(0.129178 -0.00467706 8.03099e-21)
(0.202048 0.00143479 -7.83913e-21)
(0.284884 0.011854 -9.59773e-20)
(0.375929 0.0263911 -9.05331e-21)
(0.47299 0.0446174 1.22123e-19)
(0.020601 -0.00288439 -7.54899e-20)
(0.0737656 -0.00623549 -6.94408e-20)
(0.139388 -0.00372011 -1.01047e-19)
(0.216177 0.00341008 -4.91326e-20)
(0.302674 0.0150763 6.05746e-20)
(0.396962 0.0309982 7.36734e-20)
(0.496671 0.050644 -8.11146e-20)
(0.599053 0.073285 -7.36118e-20)
(0.701113 0.0980025 -5.00976e-20)
(0.799806 0.12374 1.96271e-20)
(0.0227642 -0.00286954 4.11144e-20)
(0.0801537 -0.00583758 5.3643e-20)
(0.149904 -0.00251078 3.87036e-20)
(0.230643 0.00572823 1.93805e-20)
(0.320775 0.0187159 -3.60725e-21)
(0.418217 0.0360741 -8.55542e-20)
(0.520423 0.057162 4.5533e-20)
(0.624488 0.0811402 5.90331e-21)
(0.727298 0.106987 -7.54577e-21)
(0.825761 0.133564 1.20427e-19)
(0.917062 0.159707 -3.17333e-21)
(0.998907 0.184335 -1.74858e-20)
(1.06971 0.206544 3.55149e-20)
(0.0250163 -0.00280019 9.66767e-21)
(0.0867578 -0.0052766 -8.3136e-20)
(0.160711 -0.00103587 -9.65486e-21)
(0.245419 0.00840286 9.13802e-20)
(0.339146 0.0227842 -1.87704e-20)
(0.439638 0.0416254 4.47489e-20)
(0.544182 0.0641712 -4.71316e-20)
(0.649718 0.0894687 1.24772e-20)
(0.753036 0.116396 -1.71423e-20)
(0.85102 0.143736 2.32524e-21)
(0.940918 0.170284 -3.03009e-20)
(1.02058 0.194956 -8.34204e-20)
(1.08863 0.216882 4.31946e-20)
(1.14452 0.235473 -1.29148e-20)
(1.18849 0.250439 7.60576e-20)
(1.22145 0.261773 -4.79363e-21)
(1.24474 0.2697 -1.17607e-19)
(0.0273552 -0.0026722 2.70638e-20)
(0.0935685 -0.00454272 4.18225e-20)
(0.17179 0.000717194 -1.05669e-20)
(0.260475 0.0114465 -4.0832e-20)
(0.357742 0.0272908 -7.78599e-21)
(0.461172 0.0476564 8.20188e-20)
(0.56788 0.0716689 3.424e-20)
(0.674672 0.0982606 -8.09048e-21)
(0.778258 0.12621 3.74894e-20)
(0.875523 0.154233 -3.74696e-20)
(0.963803 0.181092 3.47738e-20)
(1.04112 0.20571 3.01513e-21)
(1.10632 0.227265 -3.79024e-20)
(1.1591 0.245237 -5.31772e-20)
(1.19994 0.259423 -7.43497e-20)
(1.22994 0.269901 -5.36662e-20)
(1.2506 0.276968 7.7889e-20)
(1.26361 0.281066 -1.6117e-20)
(1.27067 0.282706 -4.39202e-20)
(1.27333 0.282405 -2.63672e-20)
(1.27292 0.280636 -3.93234e-20)
(0.029778 -0.0024815 -3.44688e-20)
(0.100575 -0.00362641 1.55003e-20)
(0.183119 0.00276023 4.33302e-20)
(0.275777 0.0148703 1.8837e-20)
(0.37652 0.0322438 4.90052e-20)
(0.48276 0.0541697 -7.35347e-20)
(0.591454 0.0796506 -1.74027e-20)
(0.699281 0.107504 1.47834e-20)
(0.802896 0.136413 2.31245e-20)
(0.899211 0.165033 7.94249e-20)
(0.985678 0.192105 -2.50183e-20)
(1.06051 0.216574 4.10301e-20)
(1.12278 0.237672 -2.29176e-20)
(1.17244 0.25496 -2.11535e-20)
(1.21021 0.268323 3.77762e-20)
(1.23737 0.277922 5.707e-20)
(1.25553 0.284125 -5.01529e-20)
(1.26646 0.287424 -1.59642e-20)
(1.27187 0.288361 1.03937e-20)
(1.27327 0.287462 6.77569e-20)
(1.27195 0.285199 1.07492e-19)
(1.2689 0.281963 4.95236e-20)
(1.26483 0.278065 1.20563e-20)
(1.26021 0.273744 6.281e-20)
(1.2553 0.26896 -1.19609e-20)
(0.0322814 -0.00222412 8.355e-20)
(0.107766 -0.00251857 -3.64309e-20)
(0.194677 0.0051042 -2.98907e-20)
(0.291292 0.0186843 2.82916e-20)
(0.395433 0.0376494 -1.33528e-19)
(0.504347 0.0611655 1.92757e-20)
(0.614837 0.0881093 3.32777e-20)
(0.723478 0.117184 5.34319e-21)
(0.826889 0.146985 -3.35503e-20)
(0.922036 0.176113 -8.03898e-20)
(1.00651 0.203301 -1.07021e-21)
(1.07873 0.227527 -3.26944e-20)
(1.13802 0.248089 3.6182e-21)
(1.18459 0.264633 7.95793e-20)
(1.21936 0.277134 2.70891e-20)
(1.24379 0.285837 -2.80718e-20)
(1.25959 0.291177 9.34011e-20)
(1.26859 0.293689 -1.2257e-20)
(1.27248 0.29394 4.86357e-20)
(1.27276 0.292464 -8.34759e-20)
(1.27063 0.289726 -2.92382e-20)
(1.26702 0.286104 -6.49869e-20)
(1.26258 0.281892 6.50299e-20)
(1.25773 0.277303 -1.85427e-20)
(1.25267 0.272325 -2.3974e-20)
(0.0348617 -0.00189621 -2.56367e-20)
(0.115128 -0.00121059 1.49909e-20)
(0.206439 0.00775917 6.58462e-21)
(0.306983 0.022897 -7.74218e-20)
(0.414433 0.0435119 7.06206e-21)
(0.525873 0.068642 -1.90046e-20)
(0.637966 0.0970362 -3.56871e-21)
(0.747199 0.127285 3.46273e-20)
(0.850179 0.157903 1.58005e-20)
(0.943952 0.187447 4.90349e-20)
(1.02627 0.214655 2.63253e-20)
(1.09578 0.238548 1.29868e-21)
(1.15207 0.258498 -4.55129e-23)
(1.19557 0.274244 -2.94024e-20)
(1.22743 0.285852 3.34636e-20)
(1.24924 0.293648 -3.45306e-21)
(1.26284 0.298128 -3.21921e-20)
(1.27005 0.299868 -7.84694e-20)
(1.27257 0.299453 -1.25214e-20)
(1.27182 0.297419 -3.81776e-21)
(1.26898 0.294224 -3.23574e-20)
(1.26489 0.29023 5.81095e-20)
(1.26014 0.285713 -4.7177e-20)
(1.25509 0.280862 -1.63314e-20)
(1.2499 0.275694 3.73334e-20)
(0.0375147 -0.00149405 1.38442e-20)
(0.122647 0.000305589 -2.29139e-20)
(0.21838 0.0107341 3.93018e-20)
(0.322814 0.0275154 5.92189e-20)
(0.433471 0.0498338 1.15978e-20)
(0.547281 0.0765954 2.78782e-20)
(0.660779 0.10642 -5.89632e-20)
(0.770383 0.137791 -2.44867e-20)
(0.872713 0.169146 1.02721e-20)
(0.964922 0.199014 2.24999e-22)
(1.04495 0.226146 -5.60849e-21)
(1.11167 0.249618 2.55912e-20)
(1.16493 0.268888 2.19268e-20)
(1.20542 0.283787 3.42173e-20)
(1.23446 0.294476 -4.64019e-20)
(1.2538 0.301358 -1.32037e-20)
(1.26532 0.304984 -1.28475e-21)
(1.27089 0.305967 5.01103e-20)
(1.27215 0.304905 -2.91439e-20)
(1.27051 0.302333 2.68395e-20)
(1.26704 0.298698 -3.12572e-20)
(1.26253 0.294343 -2.54121e-20)
(1.25752 0.28953 -1.79002e-20)
(1.2523 0.284422 2.45544e-20)
(1.24701 0.279067 1.44764e-21)
(0.0402357 -0.00101412 -1.97603e-20)
(0.130307 0.00203738 -1.82127e-20)
(0.230474 0.0140369 -5.64963e-20)
(0.338745 0.0325449 3.48144e-20)
(0.452499 0.0566156 3.38785e-20)
(0.568515 0.0850197 -2.30769e-20)
(0.683216 0.116249 4.66298e-20)
(0.792972 0.148682 -8.30359e-22)
(0.894444 0.180692 1.90564e-21)
(0.984912 0.210788 -1.71996e-20)
(1.06252 0.23775 1.44319e-20)
(1.1264 0.26072 -1.33774e-20)
(1.17665 0.279244 -3.48759e-20)
(1.21418 0.293256 -7.10789e-21)
(1.24052 0.303004 5.0123e-21)
(1.2575 0.308967 1.82865e-20)
(1.2671 0.31175 1.54653e-20)
(1.27115 0.311992 -7.6158e-21)
(1.27128 0.310303 -1.56019e-20)
(1.26883 0.307211 1.14691e-20)
(1.26481 0.303149 2.14842e-20)
(1.25995 0.298446 2.16556e-20)
(1.25472 0.293344 1.41058e-21)
(1.24936 0.287983 2.39941e-20)
(1.24399 0.282441 -5.27333e-21)
(0.0430196 -0.000453108 8.08684e-21)
(0.138093 0.00399152 1.56668e-20)
(0.242691 0.0176742 1.53624e-20)
(0.354737 0.0379892 -6.40883e-21)
(0.471465 0.0638558 -1.24383e-20)
(0.589517 0.0939069 1.48431e-20)
(0.705217 0.126507 -9.15328e-21)
(0.814912 0.159938 9.41176e-21)
(0.915328 0.192517 -2.89414e-20)
(1.0039 0.222747 1.26493e-20)
(1.07898 0.249446 8.07904e-21)
(1.13998 0.271835 2.45588e-20)
(1.18724 0.289557 1.78774e-20)
(1.2219 0.302643 -7.12178e-21)
(1.24563 0.311435 -7.07216e-21)
(1.26041 0.316481 2.03203e-21)
(1.2682 0.318431 -9.79814e-21)
(1.27087 0.31795 4.05795e-21)
(1.26999 0.315651 1.07869e-20)
(1.26683 0.312056 -1.2962e-20)
(1.26233 0.307582 5.73405e-21)
(1.25717 0.30254 -1.55618e-20)
(1.25175 0.297154 1.44263e-20)
(1.24629 0.291543 -1.81469e-20)
(1.24085 0.285815 7.0604e-21)
(0.0458609 0.000192061 -1.28841e-20)
(0.145987 0.00617394 1.38935e-21)
(0.255003 0.0216515 9.07337e-21)
(0.370749 0.0438505 -1.53721e-20)
(0.49032 0.0715511 -3.16012e-21)
(0.610231 0.103247 -1.71186e-20)
(0.726728 0.137179 -1.87651e-20)
(0.836155 0.171539 -5.58269e-21)
(0.935327 0.204598 2.63276e-21)
(1.02185 0.234866 4.8248e-21)
(1.09434 0.261215 -1.7245e-20)
(1.15243 0.282949 -4.32147e-21)
(1.19673 0.299815 -1.72496e-20)
(1.2286 0.311945 -1.01189e-20)
(1.24986 0.319769 7.38305e-21)
(1.26255 0.3239 -6.37483e-21)
(1.26869 0.325031 -1.23438e-20)
(1.2701 0.323845 -1.14415e-20)
(1.2683 0.320954 -1.09118e-21)
(1.26451 0.316872 -1.63302e-20)
(1.25961 0.311998 6.13725e-22)
(1.25419 0.306625 1.90304e-20)
(1.24862 0.300959 2.46133e-22)
(1.24307 0.2951 -4.83275e-21)
(1.23758 0.289187 4.9591e-21)
(0.0487535 0.000924201 6.19668e-21)
(0.15397 0.00858981 2.36683e-21)
(0.267379 0.0259728 -2.78293e-21)
(0.38674 0.0501289 2.62035e-21)
(0.509015 0.0796962 -1.15551e-21)
(0.630604 0.113029 4.90047e-21)
(0.747695 0.148247 -1.36117e-21)
(0.856653 0.183461 1.10537e-21)
(0.954408 0.21691 -3.82594e-21)
(1.03876 0.247124 -4.46456e-21)
(1.10858 0.273036 -2.44672e-21)
(1.16376 0.294047 7.73859e-21)
(1.20516 0.310009 3.60504e-21)
(1.23434 0.321157 -4.19565e-21)
(1.25324 0.328006 3.70937e-21)
(1.26399 0.331229 -4.59302e-22)
(1.26859 0.331555 6.92064e-21)
(1.26886 0.32968 3.05741e-21)
(1.26625 0.326215 1.03419e-21)
(1.26191 0.32166 9.63205e-21)
(1.25665 0.316397 -1.81316e-21)
(1.25102 0.310699 -7.86412e-21)
(1.24533 0.304757 -3.92415e-22)
(1.23971 0.298653 1.21059e-21)
(1.23419 0.292554 -3.58022e-21)
(0.0516913 0.00174584 3.37854e-21)
(0.162025 0.0112434 4.02186e-21)
(0.279789 0.0306408 -4.5028e-21)
(0.402669 0.0568232 6.45562e-21)
(0.5275 0.0882837 -2.11398e-21)
(0.650584 0.123238 2.07092e-21)
(0.768068 0.159691 -4.17312e-22)
(0.876365 0.195682 1.1126e-21)
(0.972543 0.22943 -2.50925e-21)
(1.05462 0.259496 -6.63763e-21)
(1.12171 0.28489 -4.22656e-22)
(1.174 0.305115 6.75e-21)
(1.21257 0.320131 4.89509e-21)
(1.23915 0.330276 -4.67166e-21)
(1.25582 0.336146 3.27561e-21)
(1.26475 0.338469 7.56592e-22)
(1.26795 0.338005 4.43821e-21)
(1.26718 0.335459 3.26564e-21)
(1.26385 0.331437 2.04534e-21)
(1.25903 0.326422 8.36107e-21)
(1.25348 0.320778 -9.12039e-23)
(1.24767 0.314763 -8.00496e-21)
(1.24189 0.308548 -2.25507e-21)
(1.23623 0.302198 2.21948e-21)
(1.23068 0.295913 -1.64471e-21)
(0.0546677 0.00265921 -8.41902e-21)
(0.170131 0.0141381 -3.68973e-21)
(0.292202 0.0356568 3.77215e-21)
(0.418493 0.0639301 -9.14513e-21)
(0.545727 0.0973044 5.14363e-22)
(0.670118 0.133859 -2.7813e-20)
(0.7878 0.171492 -1.67784e-20)
(0.895253 0.208178 -5.05544e-21)
(0.989709 0.242133 8.74428e-21)
(1.06941 0.271962 -7.09426e-21)
(1.13375 0.29676 -1.32214e-20)
(1.18317 0.316139 -8.03525e-21)
(1.21897 0.330173 -8.19539e-21)
(1.24307 0.339299 -7.01135e-21)
(1.25765 0.344188 3.81939e-21)
(1.26488 0.345622 -7.50225e-21)
(1.2668 0.344384 -1.49317e-20)
(1.26509 0.341184 -4.29602e-21)
(1.26113 0.33662 -7.30453e-21)
(1.25589 0.331157 -1.24468e-20)
(1.25009 0.325142 -2.40262e-21)
(1.24415 0.318813 1.39906e-20)
(1.23829 0.312327 2.18941e-21)
(1.2326 0.305733 -3.64633e-21)
(1.22704 0.299261 1.27142e-20)
(0.0576754 0.00366618 5.65646e-21)
(0.178268 0.0172763 -7.18929e-21)
(0.304584 0.0410206 2.7642e-20)
(0.434171 0.0714445 -1.54238e-20)
(0.563647 0.106747 -5.19015e-21)
(0.68916 0.144875 2.0432e-20)
(0.806847 0.183626 -7.31109e-21)
(0.913285 0.220926 3.84621e-21)
(1.00588 0.254995 -1.11319e-20)
(1.08314 0.284498 -4.15835e-21)
(1.14471 0.308628 2.69284e-21)
(1.19129 0.327109 2.46888e-20)
(1.22442 0.340129 1.51916e-20)
(1.24615 0.348222 6.13717e-21)
(1.25874 0.352134 -8.86368e-21)
(1.26442 0.352691 -3.47936e-21)
(1.26516 0.350695 2.35712e-21)
(1.26262 0.346858 1.15705e-21)
(1.25809 0.341765 3.60473e-21)
(1.25251 0.335866 -6.48026e-21)
(1.2465 0.329486 -1.58717e-21)
(1.24045 0.322849 -1.05476e-20)
(1.23455 0.316092 1.72773e-21)
(1.22884 0.309255 -1.25623e-20)
(1.22328 0.302594 2.42733e-21)
(0.060707 0.00476828 -2.60738e-20)
(0.186415 0.0206595 -1.97837e-20)
(0.316903 0.0467306 -3.10583e-20)
(0.449662 0.0793597 1.3775e-20)
(0.581215 0.1166 2.41505e-20)
(0.707662 0.156268 -3.5025e-21)
(0.825168 0.196071 3.93704e-20)
(0.930429 0.233899 9.18571e-21)
(1.02106 0.267992 -2.02282e-20)
(1.0958 0.297086 -1.03128e-20)
(1.1546 0.320478 1.5384e-20)
(1.1984 0.338012 -1.81186e-20)
(1.22894 0.349991 -3.92e-20)
(1.24842 0.357044 9.07485e-21)
(1.25916 0.359983 -8.59289e-21)
(1.26339 0.359675 4.16567e-20)
(1.26306 0.356937 1.69771e-21)
(1.25978 0.352479 8.45371e-21)
(1.25477 0.346872 -1.52539e-20)
(1.24889 0.340546 2.85354e-21)
(1.24271 0.333809 1.91158e-20)
(1.23658 0.326866 8.94495e-21)
(1.23065 0.31984 8.00211e-21)
(1.22495 0.312758 1.41757e-20)
(1.21939 0.305908 2.14968e-21)
(0.0637551 0.00596664 3.13857e-20)
(0.194552 0.0242879 -2.34392e-20)
(0.329128 0.0527835 6.94168e-20)
(0.464924 0.0876673 2.29249e-20)
(0.598386 0.126847 4.9121e-20)
(0.725582 0.168017 -4.53232e-21)
(0.842727 0.208804 -2.68959e-20)
(0.946661 0.247073 -4.24966e-20)
(1.03521 0.2811 9.90394e-21)
(1.1074 0.309702 -2.31341e-20)
(1.16344 0.332293 2.43174e-21)
(1.20452 0.348837 1.818e-20)
(1.23257 0.359753 3.92767e-20)
(1.24991 0.36576 2.81639e-20)
(1.25892 0.367734 -5.63848e-20)
(1.26182 0.366576 -1.09265e-20)
(1.26054 0.363113 1.24613e-20)
(1.2566 0.358049 2.89267e-20)
(1.25116 0.351939 -2.22091e-20)
(1.24503 0.345196 3.10174e-20)
(1.23873 0.338106 -2.42345e-20)
(1.23255 0.330861 -2.03641e-20)
(1.22661 0.323567 -3.8038e-21)
(1.22092 0.316241 5.5129e-21)
(1.21537 0.3092 -1.72593e-20)
(0.0668118 0.00726202 -5.86765e-20)
(0.202656 0.028161 2.40983e-20)
(0.341224 0.0591748 -1.37025e-20)
(0.479918 0.096357 -5.28039e-20)
(0.615115 0.137473 -6.11764e-21)
(0.742877 0.180101 -8.48341e-21)
(0.859491 0.221799 -1.41639e-20)
(0.961958 0.260422 6.92116e-20)
(1.04835 0.294295 2.22983e-20)
(1.11795 0.322329 1.64482e-20)
(1.17124 0.344058 1.47683e-20)
(1.20968 0.359575 -1.26503e-20)
(1.23535 0.369409 4.87226e-20)
(1.25067 0.374369 -5.93329e-20)
(1.25806 0.375387 4.05555e-20)
(1.25975 0.373393 6.18164e-21)
(1.2576 0.369221 -4.36438e-20)
(1.25309 0.363567 -7.34752e-20)
(1.24729 0.356966 6.27529e-21)
(1.24095 0.349813 -7.30969e-21)
(1.23455 0.342376 -2.02074e-21)
(1.22834 0.33483 1.29184e-20)
(1.22241 0.327268 -3.89632e-20)
(1.21675 0.319698 1.21748e-20)
(1.21124 0.312465 2.22917e-20)
(0.0698691 0.00865476 8.95177e-20)
(0.210706 0.032277 -3.91364e-20)
(0.353161 0.0658983 -4.59913e-20)
(0.494603 0.105417 -1.84819e-20)
(0.631363 0.14846 -5.26939e-20)
(0.759509 0.192498 2.93535e-21)
(0.875428 0.235032 3.23061e-20)
(0.976303 0.273922 -1.07113e-20)
(1.06045 0.307553 -5.61593e-20)
(1.12745 0.334945 -7.40807e-20)
(1.17804 0.355759 -1.40721e-20)
(1.2139 0.370214 -1.08975e-20)
(1.23729 0.378953 -1.35727e-20)
(1.25071 0.382867 7.86559e-20)
(1.25662 0.38294 4.57358e-20)
(1.2572 0.380126 -3.82196e-20)
(1.25428 0.375262 6.93944e-20)
(1.24926 0.36903 3.85238e-20)
(1.24315 0.36195 1.56973e-20)
(1.23666 0.354394 -5.15527e-20)
(1.23019 0.346614 -5.32373e-20)
(1.22398 0.338769 -2.01852e-20)
(1.21807 0.330939 4.54571e-20)
(1.21246 0.323126 -2.9524e-20)
(1.20697 0.3157 -4.10936e-21)
(0.0729189 0.0101448 -4.3034e-20)
(0.21868 0.0366331 2.77301e-20)
(0.364906 0.0729465 1.81077e-20)
(0.508943 0.114834 6.30448e-20)
(0.647089 0.159788 1.56088e-20)
(0.775444 0.205183 -6.93909e-20)
(0.890513 0.248476 -1.90523e-20)
(0.989682 0.287545 2.1247e-21)
(1.07153 0.320852 1.86839e-20)
(1.13592 0.347533 9.49035e-20)
(1.18386 0.367381 -3.60501e-20)
(1.21723 0.380747 4.63198e-20)
(1.23845 0.38838 3.6466e-21)
(1.25009 0.391251 -3.96622e-20)
(1.25462 0.390391 -1.1382e-20)
(1.2542 0.386773 6.03551e-20)
(1.25059 0.381232 -4.44388e-20)
(1.24513 0.374437 3.44496e-20)
(1.23877 0.366887 -3.5411e-20)
(1.23215 0.358936 8.20563e-20)
(1.22565 0.350816 8.00717e-20)
(1.21944 0.342674 4.57604e-20)
(1.21358 0.334576 -3.40189e-20)
(1.20802 0.326519 -2.83082e-20)
(1.20258 0.318899 -1.6727e-20)
(0.075953 0.0117317 3.13404e-20)
(0.226557 0.0412256 6.70705e-20)
(0.376428 0.0803103 -4.9677e-20)
(0.522901 0.124592 -2.05241e-20)
(0.662256 0.171438 6.51707e-21)
(0.790648 0.218133 4.55802e-20)
(0.904721 0.262105 4.34813e-20)
(1.00208 0.301267 -9.01815e-21)
(1.08158 0.334169 7.18963e-20)
(1.14337 0.360073 -5.2697e-20)
(1.1887 0.37891 3.01238e-20)
(1.21968 0.391162 -1.38224e-20)
(1.23884 0.397684 -6.3763e-20)
(1.24881 0.399518 -1.83457e-20)
(1.25208 0.397739 -2.80365e-20)
(1.25075 0.393333 -6.92923e-20)
(1.24654 0.38713 5.82852e-20)
(1.2407 0.379784 4.40031e-21)
(1.23414 0.371774 7.39272e-20)
(1.22743 0.363433 -2.13672e-20)
(1.22092 0.354977 -1.56489e-20)
(1.21475 0.346539 1.98239e-20)
(1.20894 0.338174 2.79403e-20)
(1.20345 0.329873 2.78242e-21)
(1.19806 0.322058 2.17673e-20)
(0.078963 0.0134144 -1.03391e-20)
(0.234315 0.0460495 -1.88664e-20)
(0.387695 0.0879792 9.62691e-21)
(0.536439 0.134676 4.7486e-20)
(0.676829 0.183387 3.97301e-20)
(0.805092 0.231322 1.43289e-20)
(0.918033 0.275893 -6.82416e-20)
(1.0135 0.315061 2.47133e-20)
(1.09061 0.347481 -1.14116e-20)
(1.14981 0.372547 -2.14597e-20)
(1.19261 0.390334 -3.98279e-20)
(1.22129 0.401452 -3.4163e-20)
(1.2385 0.406858 3.99505e-20)
(1.24692 0.407664 9.62718e-21)
(1.24903 0.40498 -1.36887e-20)
(1.24689 0.399802 4.95388e-20)
(1.24214 0.392954 -8.90989e-21)
(1.23599 0.385069 4.5807e-20)
(1.22927 0.376607 2.82229e-20)
(1.22251 0.367881 2.48173e-20)
(1.21601 0.359092 2.98479e-20)
(1.20989 0.35036 -4.71895e-20)
(1.20416 0.341727 -2.12076e-20)
(1.19874 0.333183 -4.51892e-21)
(1.19342 0.325172 1.1783e-20)
(0.0819406 0.0151918 9.54607e-20)
(0.241933 0.051099 1.89705e-20)
(0.398679 0.0959416 -1.03567e-20)
(0.549526 0.145067 4.51135e-20)
(0.690775 0.195612 4.82634e-20)
(0.818748 0.244722 -1.01386e-19)
(0.930432 0.289811 6.80059e-20)
(1.02392 0.328903 -1.70268e-20)
(1.09863 0.360767 -1.01574e-20)
(1.15527 0.384938 1.51609e-19)
(1.19561 0.401639 -1.73408e-20)
(1.22208 0.411607 6.04188e-20)
(1.23745 0.415898 -3.04631e-20)
(1.24444 0.415686 -3.48652e-20)
(1.24549 0.412112 2.03084e-20)
(1.24263 0.406179 -4.07636e-20)
(1.23742 0.398698 1.156e-20)
(1.23101 0.390286 -9.16207e-20)
(1.22417 0.38138 -1.33322e-19)
(1.21738 0.372275 1.45002e-20)
(1.21091 0.363155 -7.64802e-20)
(1.20487 0.354131 1.71819e-20)
(1.19922 0.345231 2.50899e-20)
(1.1939 0.336443 6.19162e-20)
(1.18865 0.328237 2.96502e-20)
(0.0848775 0.017062 -9.36614e-20)
(0.249389 0.056367 -1.52872e-19)
(0.409349 0.104184 -3.95984e-20)
(0.562127 0.155746 -1.08397e-19)
(0.704063 0.208089 8.30523e-20)
(0.831593 0.258309 8.83123e-20)
(0.941905 0.303833 -1.38065e-19)
(1.03335 0.342767 1.38481e-20)
(1.10564 0.374003 5.12016e-21)
(1.15977 0.397229 -1.15e-19)
(1.19771 0.412812 7.3223e-20)
(1.22208 0.421618 -1.17984e-19)
(1.23573 0.424796 -1.18137e-20)
(1.24139 0.423578 3.71229e-20)
(1.24148 0.419131 4.72585e-20)
(1.23798 0.412458 4.46199e-20)
(1.23238 0.404361 -4.83621e-20)
(1.22576 0.395432 7.90416e-20)
(1.21884 0.38609 2.26127e-20)
(1.21205 0.37661 2.6692e-20)
(1.20564 0.367162 -7.26593e-20)
(1.19968 0.357846 -5.30168e-20)
(1.19414 0.348679 1.8743e-20)
(1.18891 0.339649 -3.84557e-20)
(1.18375 0.331248 8.51099e-22)
(0.0877655 0.0190229 -2.10447e-20)
(0.256665 0.0618457 8.86899e-20)
(0.419678 0.112693 -1.93056e-20)
(0.574214 0.166693 4.07161e-21)
(0.716666 0.220793 -8.0132e-20)
(0.843607 0.272053 -1.80739e-21)
(0.952439 0.317931 5.1424e-20)
(1.04179 0.356627 1.4771e-20)
(1.11166 0.38717 -8.07713e-20)
(1.16332 0.409402 -2.3133e-20)
(1.19895 0.423841 -1.92956e-19)
(1.22133 0.431477 1.96155e-20)
(1.23336 0.433546 1.37243e-19)
(1.2378 0.431335 -1.308e-19)
(1.23703 0.426031 -8.05593e-20)
(1.23296 0.418637 -6.93757e-20)
(1.22704 0.409936 2.65353e-20)
(1.22025 0.400501 -9.97619e-20)
(1.21328 0.39073 4.92236e-20)
(1.20653 0.38088 -5.04785e-20)
(1.20019 0.371107 5.33886e-20)
(1.19434 0.3615 4.0763e-20)
(1.18891 0.352067 1.50684e-20)
(1.1838 0.342794 -2.20784e-20)
(1.17872 0.334199 1.27743e-21)
(0.0905963 0.0210719 -1.28879e-19)
(0.263738 0.0675263 3.9846e-20)
(0.429639 0.121452 1.34474e-21)
(0.585756 0.177887 6.14774e-20)
(0.728557 0.233699 4.95675e-21)
(0.85477 0.285927 6.71158e-20)
(0.962028 0.332078 -3.29047e-20)
(1.04924 0.370458 1.43664e-19)
(1.1167 0.400245 -9.79921e-20)
(1.16594 0.421441 1.55583e-19)
(1.19935 0.434714 1.28256e-19)
(1.21983 0.441174 1.48521e-19)
(1.23036 0.442143 -1.06845e-19)
(1.23368 0.438954 1.09266e-19)
(1.23214 0.43281 6.21608e-21)
(1.22759 0.42471 -8.86136e-20)
(1.22139 0.415418 1.03983e-20)
(1.21449 0.405488 4.98523e-20)
(1.20751 0.395295 -2.90273e-20)
(1.20081 0.385079 -4.25103e-20)
(1.19457 0.374983 -7.33583e-20)
(1.18883 0.365087 5.72988e-20)
(1.18353 0.355388 -2.48337e-20)
(1.17854 0.345875 -5.35111e-21)
(1.17357 0.337085 -8.99665e-20)
(0.0933621 0.0232059 1.91151e-19)
(0.270591 0.0733987 -4.77591e-20)
(0.439207 0.130445 3.92726e-20)
(0.596728 0.189304 -1.17109e-19)
(0.739715 0.246779 -2.7515e-20)
(0.865068 0.299902 -2.95846e-20)
(0.970666 0.346246 -6.53354e-20)
(1.05571 0.384237 -2.61663e-19)
(1.12078 0.413209 1.1403e-19)
(1.16765 0.43333 -5.26058e-20)
(1.19894 0.445418 -1.28074e-19)
(1.21763 0.450701 -3.48566e-20)
(1.22676 0.450579 3.51467e-20)
(1.22907 0.446427 -9.67737e-20)
(1.22684 0.439462 5.92371e-20)
(1.22187 0.430671 5.27847e-21)
(1.21546 0.420803 2.82864e-21)
(1.20848 0.410387 -9.87331e-21)
(1.20152 0.399779 9.83836e-20)
(1.19489 0.3892 -2.14735e-22)
(1.18876 0.378784 1.87963e-19)
(1.18315 0.3686 -6.14309e-20)
(1.17799 0.358638 -6.05238e-20)
(1.17315 0.348883 7.67429e-20)
(1.1683 0.339902 7.45672e-20)
(0.0960548 0.0254216 -2.76477e-21)
(0.277204 0.0794525 1.15142e-19)
(0.448357 0.139654 -1.26001e-20)
(0.607105 0.200922 9.49076e-20)
(0.750119 0.260006 -1.59538e-20)
(0.874488 0.313951 -5.87749e-20)
(0.97835 0.360408 2.84015e-21)
(1.0612 0.397937 1.90859e-19)
(1.1239 0.426041 -1.42353e-20)
(1.16849 0.445053 -1.03504e-19)
(1.19773 0.455942 9.10418e-20)
(1.21475 0.460049 -3.80282e-20)
(1.22258 0.458847 3.52404e-20)
(1.22397 0.45375 1.29421e-19)
(1.22114 0.44598 -3.62106e-20)
(1.21582 0.436516 2.93879e-20)
(1.20924 0.426084 -3.92694e-20)
(1.20223 0.415192 -9.71815e-20)
(1.19531 0.404174 9.56022e-21)
(1.18878 0.393238 -4.18989e-20)
(1.18278 0.382504 -3.2942e-20)
(1.17732 0.372035 -3.28286e-21)
(1.17232 0.361809 1.37625e-19)
(1.16763 0.351814 -3.65713e-21)
(1.16291 0.342643 1.59223e-20)
(0.0986668 0.0277152 -1.53386e-19)
(0.28356 0.0856761 -1.57331e-20)
(0.457066 0.149061 6.78124e-20)
(0.616863 0.212716 -9.34071e-20)
(0.759749 0.273352 2.11267e-20)
(0.88302 0.328043 5.89289e-20)
(0.985081 0.374535 2.96444e-21)
(1.06572 0.411537 -1.79555e-19)
(1.1261 0.438721 7.08883e-20)
(1.16846 0.456595 -5.73274e-20)
(1.19577 0.466274 1.08842e-19)
(1.2112 0.469208 2.26362e-20)
(1.21785 0.466941 1.20052e-19)
(1.21841 0.460916 -6.15643e-20)
(1.21506 0.45236 1.01311e-20)
(1.20945 0.442238 2.23994e-20)
(1.20275 0.431255 -1.93153e-20)
(1.19573 0.419896 2.88075e-20)
(1.18889 0.408475 5.52892e-20)
(1.18248 0.397186 1.65911e-19)
(1.17663 0.386136 -9.09968e-20)
(1.17133 0.375384 -3.32031e-20)
(1.16649 0.364895 -8.34374e-20)
(1.16196 0.354659 -3.97772e-20)
(1.15739 0.345304 -5.63924e-20)
(0.101191 0.0300826 1.08158e-19)
(0.289641 0.092057 2.02777e-20)
(0.465313 0.158646 -1.02905e-19)
(0.625983 0.22466 1.2047e-20)
(0.768592 0.28679 -5.71306e-20)
(0.890657 0.342151 2.6158e-22)
(0.990859 0.388603 4.379e-20)
(1.06929 0.425011 1.04549e-19)
(1.12737 0.451229 -5.5308e-20)
(1.1676 0.46794 4.38902e-20)
(1.19306 0.476402 -1.02912e-19)
(1.20702 0.47817 -1.47954e-19)
(1.21258 0.474852 -1.8516e-19)
(1.2124 0.467918 -7.92563e-20)
(1.2086 0.458595 3.0079e-20)
(1.20276 0.447831 1.37312e-20)
(1.19599 0.436309 1.94569e-19)
(1.18901 0.424492 -3.58944e-20)
(1.18226 0.412675 7.46397e-21)
(1.17599 0.401037 -6.20842e-20)
(1.1703 0.389675 6.72892e-20)
(1.16517 0.378641 2.76311e-20)
(1.16051 0.367892 5.51399e-20)
(1.15616 0.357413 -1.15814e-20)
(1.15172 0.347879 -1.86178e-20)
(0.10362 0.0325193 -1.03344e-19)
(0.295432 0.0985824 -3.0086e-20)
(0.473079 0.168388 8.40377e-20)
(0.634445 0.23673 -2.62893e-19)
(0.776634 0.30029 -6.01678e-20)
(0.897393 0.356246 2.07383e-20)
(0.995691 0.402582 -3.63486e-20)
(1.07191 0.438336 8.14594e-20)
(1.12776 0.463548 1.68029e-20)
(1.16592 0.479073 8.22168e-20)
(1.18963 0.486314 1.42264e-19)
(1.20223 0.486926 2.15579e-19)
(1.2068 0.482574 9.27536e-20)
(1.20596 0.474749 -5.09245e-20)
(1.20178 0.464677 1.98583e-20)
(1.19577 0.453287 -1.93164e-20)
(1.18897 0.44124 -1.14261e-19)
(1.18205 0.428974 1.08189e-19)
(1.17542 0.416767 -1.91023e-19)
(1.16931 0.404784 1.83184e-20)
(1.16379 0.393114 -2.3366e-20)
(1.15885 0.381802 4.26125e-20)
(1.15439 0.370794 -5.02565e-20)
(1.15022 0.360079 -7.12089e-21)
(1.14588 0.350365 5.21829e-20)
(0.105946 0.0350204 -1.51976e-19)
(0.300917 0.105238 1.13505e-20)
(0.480344 0.178267 3.58839e-20)
(0.642234 0.248898 1.63844e-19)
(0.783864 0.313824 1.98892e-19)
(0.903227 0.370298 1.0708e-19)
(0.999581 0.416447 -1.00059e-19)
(1.07361 0.451489 -1.65741e-19)
(1.12727 0.475657 -1.37747e-19)
(1.16345 0.48998 1.27865e-20)
(1.18551 0.495999 -1.35961e-19)
(1.19684 0.495466 -3.75811e-20)
(1.20051 0.490098 -5.68077e-20)
(1.19911 0.481403 1.09768e-19)
(1.19462 0.4706 4.50881e-20)
(1.18849 0.4586 -1.62927e-19)
(1.18169 0.446039 7.45277e-20)
(1.17487 0.433334 3.53988e-20)
(1.16838 0.420743 1.29598e-19)
(1.16244 0.40842 7.18955e-20)
(1.15712 0.396446 -7.92478e-20)
(1.15238 0.384859 -8.78668e-20)
(1.14812 0.3736 5.36607e-20)
(1.14415 0.362671 6.02132e-20)
(1.13994 0.352754 -1.97661e-20)
(0.108164 0.0375808 1.08946e-19)
(0.306082 0.112011 4.23176e-21)
(0.487093 0.188261 -1.91737e-19)
(0.649336 0.261139 -3.00407e-21)
(0.790274 0.327362 -2.85612e-19)
(0.908157 0.384279 7.30136e-21)
(1.00254 0.430172 -4.52931e-20)
(1.07439 0.464449 1.00786e-19)
(1.12592 0.487538 1.45615e-19)
(1.16021 0.500645 3.56828e-20)
(1.18072 0.505445 2.87154e-20)
(1.19088 0.503781 -6.46544e-20)
(1.19375 0.497415 7.93707e-21)
(1.19185 0.487871 7.2758e-20)
(1.18711 0.476357 -6.9131e-20)
(1.18091 0.463763 8.46658e-20)
(1.17417 0.4507 -6.94821e-20)
(1.16746 0.437564 -6.58427e-20)
(1.16114 0.424597 -6.93531e-20)
(1.15539 0.411938 -7.86575e-20)
(1.15028 0.399663 6.475e-20)
(1.14575 0.387806 7.98223e-20)
(1.14171 0.376297 -1.87072e-20)
(1.13795 0.365164 -1.43995e-20)
(1.13391 0.355059 -8.41791e-21)
(0.110268 0.0401951 -1.94851e-19)
(0.310914 0.118884 1.12217e-19)
(0.493311 0.198347 1.78817e-19)
(0.655737 0.273424 1.74613e-19)
(0.795858 0.340875 1.11483e-19)
(0.912187 0.39816 -1.31195e-19)
(1.00457 0.44373 1.08126e-19)
(1.07427 0.477192 3.56945e-21)
(1.12374 0.499174 -1.17129e-19)
(1.15623 0.511054 -1.32961e-19)
(1.17529 0.514641 1.6949e-19)
(1.18437 0.511861 -4.93142e-20)
(1.18653 0.504519 -9.13622e-20)
(1.18421 0.494147 -6.13681e-20)
(1.17929 0.48194 -3.33116e-21)
(1.17306 0.468768 5.2062e-20)
(1.1664 0.455216 6.39196e-20)
(1.15984 0.441659 -2.77166e-20)
(1.15371 0.428321 1.07108e-19)
(1.14816 0.415332 1.12889e-20)
(1.14326 0.402761 7.55011e-21)
(1.13897 0.390635 -4.9185e-20)
(1.13516 0.378882 -6.34263e-20)
(1.13162 0.367544 1.05336e-20)
(1.12779 0.35726 -4.95925e-20)
(0.11225 0.0428575 1.68027e-19)
(0.315401 0.125843 7.95722e-21)
(0.498984 0.208503 -2.15652e-19)
(0.661429 0.285727 3.45232e-21)
(0.800612 0.354335 -8.44915e-20)
(0.915319 0.411914 1.06499e-19)
(1.00569 0.457096 1.21185e-19)
(1.07328 0.489698 -8.61831e-20)
(1.12075 0.510547 -8.53697e-20)
(1.15152 0.521195 6.91027e-20)
(1.16923 0.523576 -1.15679e-19)
(1.17734 0.519697 1.66188e-19)
(1.17886 0.5114 3.78545e-20)
(1.1762 0.500221 -1.60675e-20)
(1.17114 0.487341 1.81469e-19)
(1.16494 0.473606 -4.49922e-20)
(1.15839 0.459578 -4.81512e-20)
(1.15201 0.445608 2.46993e-20)
(1.14608 0.431908 -5.38361e-21)
(1.14075 0.418594 -8.4482e-20)
(1.13609 0.40573 -4.26056e-20)
(1.13203 0.393341 -3.94509e-20)
(1.12847 0.381348 7.5093e-20)
(1.12516 0.369806 -9.58181e-21)
(1.12154 0.359349 8.25574e-20)
(0.114107 0.0455621 8.79134e-20)
(0.319531 0.132873 -3.44572e-19)
(0.504101 0.218706 4.51524e-20)
(0.666402 0.29802 -1.66295e-19)
(0.804535 0.367713 3.0564e-19)
(0.91756 0.425512 -1.34299e-19)
(1.00592 0.470246 7.91348e-20)
(1.07142 0.501944 -3.12056e-20)
(1.11697 0.521639 8.79908e-20)
(1.14611 0.531051 -6.45417e-20)
(1.16256 0.532238 2.60667e-20)
(1.16979 0.52728 4.37395e-20)
(1.17076 0.51805 7.19232e-20)
(1.16782 0.506086 -1.88377e-19)
(1.16269 0.492553 7.75666e-20)
(1.15655 0.478271 4.6956e-20)
(1.15015 0.463778 -1.99346e-20)
(1.14396 0.449406 -3.12809e-20)
(1.13825 0.43535 -1.46504e-20)
(1.13317 0.421717 2.80665e-20)
(1.12875 0.408565 1.52623e-20)
(1.12494 0.395917 1.02706e-19)
(1.12164 0.383688 -4.01506e-20)
(1.11858 0.371947 -5.55253e-21)
(1.11518 0.36132 -6.33747e-20)
(0.115832 0.0483027 -7.55141e-20)
(0.323296 0.139956 5.81861e-21)
(0.508651 0.228931 1.37593e-19)
(0.670652 0.310276 -1.04478e-19)
(0.807626 0.380979 7.29325e-20)
(0.918919 0.438927 6.80022e-20)
(1.00526 0.483154 -1.33549e-19)
(1.06873 0.513911 2.23307e-20)
(1.11242 0.532434 4.36407e-21)
(1.14003 0.540611 1.81874e-19)
(1.15532 0.540617 1.12922e-20)
(1.16175 0.5346 -1.66888e-19)
(1.16225 0.52446 -1.43749e-19)
(1.1591 0.511733 1.39421e-19)
(1.15395 0.497566 -1.74172e-19)
(1.1479 0.482753 3.08765e-20)
(1.14168 0.467809 -8.77125e-21)
(1.13572 0.453045 2.0775e-20)