/*--------------------------------*- C++ -*----------------------------------*\
  =========                 |
  \\      /  F ield         | OpenFOAM: The Open Source CFD Toolbox
   \\    /   O peration     | Website:  https://openfoam.org
    \\  /    A nd           | Version:  7
     \\/     M anipulation  |
\*---------------------------------------------------------------------------*/
FoamFile
{
    version     2.0;
    format      ascii;
    class       surfaceScalarField;
    location    "280";
    object      phi;
}
// * * * * * * * * * * * * * * * * * * * * * * * * * * * * * * * * * * * * * //

dimensions      [0 3 -1 0 0 0 0];

internalField   nonuniform List<scalar> 
8842
(
-1.61778e-06
3.9148e-05
-3.75303e-05
-6.01511e-06
9.62005e-05
-9.18032e-05
0.000136564
-0.000129662
-1.5717e-06
4.07197e-05
-5.87578e-06
0.000100505
0.000143358
-1.51144e-06
4.22312e-05
-5.68638e-06
0.00010468
0.00014999
-1.43699e-06
4.36682e-05
-5.44651e-06
0.000108689
0.000156407
-1.3485e-06
4.50167e-05
-5.15638e-06
0.000112497
0.000162553
-1.24637e-06
4.6263e-05
-4.81712e-06
0.000116068
0.000168374
-1.13123e-06
4.73943e-05
-4.4306e-06
0.000119367
0.000173817
-1.00396e-06
4.83982e-05
-3.99948e-06
0.000122363
0.000178832
-8.65752e-07
4.9264e-05
-3.52737e-06
0.000125024
-8.06588e-06
0.00018337
0.00022578
-7.18038e-07
4.9982e-05
-3.0187e-06
0.000127325
-7.03712e-06
0.000187389
0.000231562
-5.62455e-07
5.05445e-05
-2.47848e-06
0.000129241
-5.93721e-06
0.000190848
0.000236651
-4.00693e-07
5.09452e-05
-1.9124e-06
0.000130753
-4.77679e-06
0.000193712
0.000240996
-2.34525e-07
5.11797e-05
-1.32628e-06
0.000131844
-3.56766e-06
0.000195953
0.000244554
-6.59053e-08
5.12456e-05
-7.26404e-07
0.000132505
-2.32214e-06
0.000197549
0.00024729
1.03748e-07
5.11418e-05
-1.19302e-07
0.000132728
-1.05338e-06
0.000198483
0.000249176
2.71555e-07
5.08703e-05
4.88129e-07
0.000132511
2.2568e-07
0.000198746
0.000250192
4.36058e-07
5.04342e-05
1.08878e-06
0.000131859
1.4992e-06
0.000198335
1.36453e-06
0.000250327
0.000288691
5.95091e-07
4.98391e-05
1.67573e-06
0.000130778
2.75459e-06
0.000197256
3.5039e-06
0.000249578
0.000288442
7.46661e-07
4.90925e-05
2.24193e-06
0.000129283
3.97701e-06
0.000195521
5.60425e-06
0.000247951
0.000287109
8.88888e-07
4.82036e-05
2.78068e-06
0.000127391
5.15245e-06
0.000193149
7.64273e-06
0.00024546
0.000284701
1.02003e-06
4.71836e-05
3.28567e-06
0.000125125
6.26773e-06
0.000190167
9.59717e-06
0.000242131
1.30655e-05
0.000281233
0.000308052
1.13847e-06
4.60451e-05
3.75103e-06
0.000122513
7.31048e-06
0.000186608
1.14467e-05
0.000237995
1.59482e-05
0.000276731
0.000303241
1.24282e-06
4.48023e-05
4.17151e-06
0.000119584
8.26932e-06
0.00018251
1.31723e-05
0.000233092
1.86708e-05
0.000271233
0.000297201
1.33186e-06
4.34704e-05
4.54255e-06
0.000116373
9.13433e-06
0.000177918
1.47564e-05
0.00022747
2.12073e-05
0.000264782
0.000289971
1.40466e-06
4.20658e-05
4.86051e-06
0.000112917
9.89737e-06
0.000172882
1.61848e-05
0.000221182
2.35356e-05
0.000257431
3.19091e-05
0.000281598
0.000293918
1.46055e-06
4.06052e-05
5.1227e-06
0.000109255
1.05523e-05
0.000167452
1.74465e-05
0.000214288
2.56382e-05
0.000249239
3.51016e-05
0.000272134
0.000283067
1.4992e-06
3.9106e-05
5.32758e-06
0.000105427
1.10952e-05
0.000161684
1.85339e-05
0.000206849
2.75032e-05
0.00024027
3.79967e-05
0.000261641
0.000270917
1.52061e-06
3.75854e-05
5.47481e-06
0.000101473
1.15247e-05
0.000155635
1.94439e-05
0.00019893
2.91242e-05
0.00023059
4.05851e-05
0.00025018
5.39791e-05
0.000257523
0.000252585
1.52514e-06
3.60603e-05
5.56543e-06
9.74325e-05
1.18424e-05
0.000149358
2.0178e-05
0.000190594
3.05026e-05
0.000220265
4.28665e-05
0.000237816
5.7449e-05
0.000242941
0.000235472
1.51357e-06
3.45467e-05
5.60188e-06
9.33441e-05
1.20528e-05
0.000142907
2.07428e-05
0.000181904
3.16467e-05
0.000209361
4.48519e-05
0.000224611
6.05693e-05
0.000227223
0.000216898
1.48709e-06
3.30596e-05
5.5881e-06
8.92431e-05
1.21635e-05
0.000136331
2.11503e-05
0.000172918
3.25734e-05
0.000197938
4.65629e-05
0.000210622
6.3368e-05
0.000210418
8.33686e-05
0.000196898
0.000169637
1.44731e-06
3.16123e-05
5.52951e-06
8.51609e-05
1.21854e-05
0.000129675
2.14178e-05
0.000163685
3.33075e-05
0.000186048
4.80331e-05
0.000195896
6.58883e-05
0.000192563
8.72963e-05
0.00017549
0.000144113
1.39623e-06
3.02161e-05
5.43304e-06
8.11241e-05
1.21325e-05
0.000122976
2.1568e-05
0.00015425
3.3882e-05
0.000173734
4.93074e-05
0.00018047
6.81889e-05
0.000173681
9.10003e-05
0.000152679
0.000118357
0.000116757
6.50925e-05
1.33626e-06
2.88798e-05
5.30697e-06
7.71534e-05
1.20216e-05
0.000116261
2.16289e-05
0.000144642
3.43376e-05
0.000161026
5.04413e-05
0.000164367
7.03426e-05
0.00015378
9.45731e-05
0.000128448
0.000123809
8.75211e-05
3.00249e-05
1.27018e-06
2.76096e-05
5.16086e-06
7.32627e-05
1.18723e-05
0.00010955
2.16326e-05
0.000134882
3.4722e-05
0.000147936
5.15005e-05
0.000147588
7.24353e-05
0.000132845
9.81235e-05
0.00010276
0.000129308
5.63363e-05
-7.55327e-06
1.20103e-06
2.64086e-05
5.00528e-06
6.94585e-05
1.17064e-05
0.000102849
2.16154e-05
0.000124973
3.50885e-05
0.000134463
5.25581e-05
0.000130119
7.45629e-05
0.00011084
0.000101772
7.55505e-05
0.000135003
2.31051e-05
0.000175227
-4.77766e-05
-0.000138559
1.13209e-06
2.52765e-05
4.85159e-06
6.5739e-05
1.15474e-05
9.61528e-05
2.16161e-05
0.000114904
3.54946e-05
0.000120585
5.36933e-05
0.00011192
7.68285e-05
8.77053e-05
0.000105648
4.67308e-05
0.000141049
-1.22952e-05
0.000184075
-9.08033e-05
-0.000190388
1.06678e-06
2.42097e-05
4.71161e-06
6.20941e-05
1.14194e-05
8.9445e-05
2.16752e-05
0.000104649
3.60002e-05
0.00010626
5.49881e-05
9.29319e-05
7.93383e-05
6.3355e-05
0.000109883
1.61863e-05
0.000147599
-5.00115e-05
0.000193606
-0.00013681
0.000249134
-0.000245917
-0.000379108
1.00853e-06
2.32012e-05
4.5972e-06
5.85055e-05
1.13471e-05
8.26951e-05
2.18335e-05
9.41622e-05
3.66655e-05
9.14278e-05
5.65242e-05
7.30732e-05
8.21973e-05
3.76819e-05
0.000114603
-1.62198e-05
0.000154801
-9.02095e-05
0.000203977
-0.000185986
0.0002634
-0.000305339
-0.000450044
9.60672e-07
2.22405e-05
4.51995e-06
5.49462e-05
1.13543e-05
7.58607e-05
2.21306e-05
8.3386e-05
3.75485e-05
7.60099e-05
5.83803e-05
5.22413e-05
8.55048e-05
1.05575e-05
0.000119928
-5.06434e-05
0.000162787
-0.000133069
0.000215323
-0.000238522
0.000278819
-0.000368835
0.000354495
-0.00052572
-0.000710531
9.26217e-07
2.13143e-05
4.49052e-06
5.13819e-05
1.14633e-05
6.8888e-05
2.26033e-05
7.22459e-05
3.87032e-05
5.99101e-05
6.06285e-05
3.0316e-05
8.93502e-05
-1.81643e-05
0.000125961
-8.72538e-05
0.000171666
-0.000178774
0.000227744
-0.0002946
0.000295466
-0.000436556
0.000375957
-0.000606212
-0.000804597
9.08217e-07
2.04061e-05
4.51911e-06
4.7771e-05
1.16946e-05
6.17125e-05
2.32854e-05
6.06551e-05
4.01777e-05
4.30178e-05
6.33315e-05
7.16226e-06
9.38089e-05
-4.86418e-05
0.000132783
-0.000126228
0.000181515
-0.000227506
0.0002413
-0.000354386
0.000313356
-0.000508612
0.000398668
-0.000691523
0.000497782
-0.000903711
-0.00114463
9.08932e-07
1.94972e-05
4.61388e-06
4.4066e-05
1.20653e-05
5.42611e-05
2.42048e-05
4.85156e-05
4.20119e-05
2.52106e-05
6.65402e-05
-1.7366e-05
9.89391e-05
-8.10407e-05
0.000140453
-0.000167741
0.000192382
-0.000279436
0.000256008
-0.000418011
0.000332454
-0.000585058
0.000422508
-0.000781577
0.000526399
-0.0010076
0.000643571
-0.0012618
-0.00154116
9.30266e-07
1.85669e-05
4.78155e-06
4.02148e-05
1.25891e-05
4.64536e-05
2.53835e-05
3.57211e-05
4.42365e-05
6.35771e-06
7.02916e-05
-4.34212e-05
0.00010478
-0.000115529
0.000149002
-0.000211963
0.000204277
-0.000334711
0.000271836
-0.00048557
0.000352665
-0.000665886
0.000447296
-0.000876209
0.000555582
-0.00111589
0.000676482
-0.0013827
-0.00167261
9.73583e-07
1.75933e-05
5.02701e-06
3.61613e-05
1.3276e-05
3.82046e-05
2.68375e-05
2.21596e-05
4.68719e-05
-1.36767e-05
7.46083e-05
-7.11575e-05
0.000111348
-0.000152268
0.000158434
-0.000259049
0.000217174
-0.000393451
0.000288711
-0.000557107
0.000373842
-0.000751017
0.000472793
-0.000975159
0.000584988
-0.00122808
0.000708872
-0.00150659
0.000841842
-0.00180558
-0.0021183
1.03969e-06
1.65536e-05
5.35324e-06
3.18478e-05
1.4132e-05
2.94258e-05
2.85755e-05
7.71616e-06
4.99283e-05
-3.50295e-05
7.94973e-05
-0.000100726
0.000118642
-0.000191413
0.000168724
-0.000309132
0.000231011
-0.000455737
0.000306515
-0.000632612
0.000395794
-0.000840297
0.000498715
-0.00107808
0.000614239
-0.00134361
0.000740285
-0.00163263
0.000873751
-0.00193904
0.00101072
-0.00225527
-0.00257282
1.12885e-06
1.54248e-05
5.76139e-06
2.72152e-05
1.51594e-05
2.00278e-05
3.05999e-05
-7.72431e-06
5.34056e-05
-5.78352e-05
8.49511e-05
-0.000132272
0.000126638
-0.000233099
0.000179822
-0.000362317
0.000245694
-0.000521609
0.000325093
-0.000712011
0.000418289
-0.000933492
0.000524745
-0.00118454
0.000642935
-0.0014618
0.000770269
-0.00175997
0.000903203
-0.00207197
0.00103754
-0.00238961
-0.0027042
1.24081e-06
1.4184e-05
6.25082e-06
2.22052e-05
1.63564e-05
9.92216e-06
3.29065e-05
-2.42744e-05
5.72938e-05
-8.22225e-05
9.09483e-05
-0.000165926
0.000135294
-0.000277445
0.000191654
-0.000418677
0.000261103
-0.000591058
0.000344262
-0.000795171
0.000441068
-0.0010303
0.000550547
-0.00129402
0.000670677
-0.00158193
0.000798394
-0.00188769
0.000929799
-0.00220338
0.00106055
-0.00252036
0.00118641
-0.00283006
-0.00312592
1.37493e-06
1.2809e-05
6.81939e-06
1.67608e-05
1.77184e-05
-9.76839e-07
3.54857e-05
-4.20417e-05
6.15745e-05
-0.000108311
9.74553e-05
-0.000201807
0.000144552
-0.000324541
0.000204124
-0.000478249
0.000277092
-0.000664026
0.000363814
-0.000881892
0.000463851
-0.00113034
0.000575773
-0.00140594
0.000697073
-0.00170323
0.00082427
-0.00201488
0.000953207
-0.00233232
0.00107953
-0.00264668
0.00119924
-0.00294976
0.00130904
-0.00323573
-0.00349874
1.53016e-06
1.12789e-05
7.46364e-06
1.08273e-05
1.92376e-05
-1.27508e-05
3.83229e-05
-6.1127e-05
6.62218e-05
-0.00013621
0.000104428
-0.000240013
0.000154341
-0.000374454
0.000217123
-0.000541031
0.000293499
-0.000740402
0.000383523
-0.000971917
0.000486351
-0.00123316
0.000600084
-0.00151967
0.000721762
-0.00182491
0.000847556
-0.00214068
0.000973169
-0.00245793
0.00109435
-0.00276787
0.00120747
-0.00306288
0.00130978
-0.00333804
0.00139999
-0.00358895
-0.00382012
1.70525e-06
9.57362e-06
8.17915e-06
4.35339e-06
2.09043e-05
-2.5476e-05
4.13998e-05
-8.16224e-05
7.12036e-05
-0.000166014
0.000111814
-0.000280624
0.000164578
-0.000427219
0.000230526
-0.000606978
0.000310148
-0.000820024
0.000403157
-0.00106493
0.00050828
-0.00133829
0.000623155
-0.00163455
0.000744414
-0.00194616
0.000867973
-0.00226423
0.000989504
-0.00257946
0.00110499
-0.00288335
0.00121122
-0.00316912
0.00130608
-0.00343289
0.00138886
-0.00367174
-0.00389107
0.00145981
1.89875e-06
7.67487e-06
8.96076e-06
-2.70862e-06
2.2707e-05
-3.92223e-05
4.46947e-05
-0.00010361
7.64832e-05
-0.000197803
0.000119553
-0.000323694
0.000175172
-0.000482838
0.000244201
-0.000676007
0.000326857
-0.00090268
0.00042248
-0.00116055
0.000529356
-0.00144516
0.000644683
-0.00174987
0.000764747
-0.00206623
0.000885304
-0.00238479
0.00100211
-0.00269627
0.00111147
-0.00299271
0.00121069
-0.00326834
0.00129824
-0.00352044
0.00137399
-0.00374749
-0.00395562
0.00143854
2.10915e-06
5.56572e-06
9.8029e-06
-1.04024e-05
2.46331e-05
-5.40525e-05
4.81841e-05
-0.000127161
8.20204e-05
-0.000231639
0.000127583
-0.000369256
0.000186027
-0.000541282
0.000258009
-0.000747989
0.00034344
-0.000988111
0.00044126
-0.00125837
0.000549314
-0.00155322
0.000664399
-0.00186496
0.000782528
-0.00218436
0.000899399
-0.00250166
0.00101096
-0.00280783
0.00111391
-0.00309567
0.00120611
-0.00336054
0.0012866
-0.00360093
0.00135576
-0.00381664
-0.00401435
0.00141449
2.33493e-06
3.23079e-06
1.06998e-05
-1.87672e-05
2.66691e-05
-7.00218e-05
5.18428e-05
-0.000152335
8.77727e-05
-0.000267569
0.000135834
-0.000417318
0.000197041
-0.000602489
0.00027181
-0.000822758
0.000359711
-0.00107601
0.000459273
-0.00135793
0.000567911
-0.00166185
0.00068207
-0.00197912
0.000797577
-0.00229987
0.000910174
-0.00261426
0.00101609
-0.00291374
0.00111248
-0.00319207
0.00119777
-0.00344582
0.00127153
-0.00367469
0.00133456
-0.00387967
-0.00406781
0.00138801
2.57461e-06
6.5618e-07
1.16455e-05
-2.78381e-05
2.88016e-05
-8.71779e-05
5.56449e-05
-0.000179178
9.36956e-05
-0.000305619
0.000144238
-0.00046786
0.000208112
-0.000666363
0.000285461
-0.000900106
0.00037549
-0.00116604
0.000476307
-0.00145875
0.000584929
-0.00177048
0.000697506
-0.00209169
0.000809771
-0.00241213
0.000917605
-0.00272209
0.00101759
-0.00301372
0.00110739
-0.00328187
0.00118596
-0.00352438
0.00125337
-0.0037421
0.00131075
-0.00393706
-0.00411651
0.00135946
2.82679e-06
-2.17061e-06
1.26343e-05
-3.76456e-05
3.10166e-05
-0.00010556
5.95638e-05
-0.000207725
9.97441e-05
-0.0003458
0.000152724
-0.000520841
0.000219137
-0.000732776
0.000298822
-0.000979792
0.000390602
-0.00125782
0.00049217
-0.00156032
0.000600178
-0.00187848
0.000710558
-0.00220207
0.000819038
-0.00252061
0.000921724
-0.00282478
0.00101561
-0.00310761
0.00109889
-0.00336515
0.00117101
-0.0035965
0.00123247
-0.00380357
0.00128469
-0.00398928
-0.00416096
0.00132914
3.09015e-06
-5.26076e-06
1.36606e-05
-4.82161e-05
3.33004e-05
-0.0001252
6.35728e-05
-0.000237998
0.000105872
-0.000388099
0.00016122
-0.000576188
0.000230012
-0.000801568
0.000311758
-0.00106154
0.000404885
-0.00135095
0.000506687
-0.00166212
0.000613502
-0.0019853
0.000721122
-0.00230969
0.000825356
-0.00262484
0.000922613
-0.00292204
0.00101034
-0.00319534
0.00108724
-0.00344205
0.00115323
-0.00366249
0.00120919
-0.00385952
0.0012567
-0.0040368
-0.00420157
0.00129732
3.36347e-06
-8.62423e-06
1.47189e-05
-5.95715e-05
3.56393e-05
-0.00014612
6.7645e-05
-0.000270003
0.000112034
-0.000432489
0.000169655
-0.000633809
0.000240637
-0.00087255
0.000324139
-0.00114504
0.000418188
-0.001445
0.000519707
-0.00176364
0.000624779
-0.00209037
0.000729135
-0.00241405
0.00082875
-0.00272446
0.000920391
-0.00301368
0.00100199
-0.00327693
0.00107273
-0.00351279
0.00113295
-0.00372271
0.00118382
-0.00391039
0.00122707
-0.00408005
-0.00423876
0.00126426
3.64556e-06
-1.22698e-05
1.58036e-05
-7.17295e-05
3.80195e-05
-0.000168336
7.17533e-05
-0.000303737
0.000118184
-0.000478919
0.000177958
-0.000693583
0.000250913
-0.000945505
0.000335841
-0.00122997
0.000430375
-0.00153953
0.000531105
-0.00186437
0.000633922
-0.00219319
0.000734577
-0.0025147
0.000829284
-0.00281917
0.000915215
-0.00309961
0.000990779
-0.0033525
0.00105563
-0.00357764
0.00111046
-0.00377754
0.00115667
-0.0039566
0.00119606
-0.00411943
-0.00427287
0.00123016
3.93528e-06
-1.62051e-05
1.69093e-05
-8.47036e-05
4.04274e-05
-0.000191854
7.58706e-05
-0.00033918
0.000124275
-0.000527324
0.00018606
-0.000755368
0.000260747
-0.00102019
0.00034675
-0.00131597
0.000441328
-0.00163411
0.000540778
-0.00196382
0.000640874
-0.00229328
0.000737463
-0.00261129
0.000827057
-0.00290876
0.000907263
-0.00317982
0.00097696
-0.00342219
0.00103622
-0.0036369
0.00108604
-0.00382737
0.00112799
-0.00399855
0.00116389
-0.00415533
-0.00430421
0.00119522
4.23149e-06
-2.04366e-05
1.80307e-05
-9.85028e-05
4.28489e-05
-0.000216673
7.99696e-05
-0.000376301
0.000130262
-0.000577616
0.000193892
-0.000818998
0.000270046
-0.00109635
0.000356761
-0.00140268
0.000450943
-0.00172829
0.000548652
-0.00206152
0.000645613
-0.00239025
0.000737841
-0.00270352
0.000822196
-0.00299311
0.000896731
-0.00325435
0.000960775
-0.00348624
0.00101477
-0.0036909
0.00105997
-0.00387257
0.00109803
-0.00403661
0.00113076
-0.00418806
-0.00433303
0.00115958
4.53303e-06
-2.49696e-05
1.91622e-05
-0.000113132
4.52699e-05
-0.00024278
8.40227e-05
-0.000415054
0.000136099
-0.000629692
0.000201388
-0.000884287
0.000278729
-0.00117369
0.000365784
-0.00148974
0.00045914
-0.00182165
0.000554678
-0.00215706
0.000648147
-0.00248371
0.000735789
-0.00279116
0.000814848
-0.00307217
0.000883825
-0.00332333
0.000942467
-0.00354488
0.000991538
-0.00373997
0.00103247
-0.0039135
0.001067
-0.00407113
0.00109686
-0.00421792
-0.00435955
0.00112338
4.83867e-06
-2.98083e-05
2.02979e-05
-0.000128591
4.76761e-05
-0.000270159
8.80023e-05
-0.00045538
0.000141741
-0.000683431
0.000208485
-0.000951031
0.000286716
-0.00125192
0.000373737
-0.00157676
0.000465854
-0.00191376
0.000558832
-0.00225004
0.000648508
-0.00257339
0.000731408
-0.00287406
0.000805178
-0.00314594
0.000868756
-0.00338691
0.000922271
-0.00359839
0.000966753
-0.00378445
0.00100377
-0.00395052
0.00103507
-0.00410243
0.00106232
-0.00424517
-0.00438396
0.00108673
5.1471e-06
-3.49554e-05
2.1432e-05
-0.000144876
5.00528e-05
-0.000298779
9.18806e-05
-0.000497208
0.000147144
-0.000738695
0.000215123
-0.00101901
0.000293939
-0.00133074
0.000380554
-0.00166338
0.000471042
-0.00200425
0.000561113
-0.00234011
0.000646755
-0.00265903
0.000724817
-0.00295213
0.000793359
-0.00321449
0.000851735
-0.00344528
0.00090041
-0.00364707
0.000940634
-0.00382467
0.000974061
-0.00398395
0.00100241
-0.00413078
0.00102726
-0.00427002
-0.00440642
0.00104972
5.45692e-06
-4.04123e-05
2.25582e-05
-0.000161977
5.2385e-05
-0.000328606
9.56303e-05
-0.000540453
0.000152267
-0.000795331
0.000221247
-0.00108799
0.000300336
-0.00140982
0.000386183
-0.00174922
0.00047468
-0.00209275
0.000561543
-0.00242697
0.000642966
-0.00274046
0.000716149
-0.00302531
0.00077957
-0.00327791
0.000832966
-0.00349868
0.000877097
-0.0036912
0.000913376
-0.00386095
0.000943507
-0.00401408
0.000969159
-0.00415643
0.000991798
-0.00429266
-0.00442704
0.00101242
5.76663e-06
-4.61789e-05
2.36702e-05
-0.000179881
5.46576e-05
-0.000359593
9.9224e-05
-0.000585019
0.000157068
-0.000853175
0.000226805
-0.00115773
0.000305854
-0.00148887
0.000390585
-0.00183395
0.00047676
-0.00217892
0.000560161
-0.00251037
0.000637233
-0.00281753
0.00070555
-0.00309363
0.000763991
-0.00333635
0.000812648
-0.00354733
0.000852524
-0.00373108
0.000885158
-0.00389359
0.00091226
-0.00404118
0.000935429
-0.0041796
0.000956012
-0.00431324
-0.00444592
0.000974896
6.07465e-06
-5.22536e-05
2.47613e-05
-0.000198568
5.68554e-05
-0.000391688
0.000102635
-0.000630799
0.000161509
-0.000912048
0.000231752
-0.00122797
0.000310451
-0.00156757
0.000393736
-0.00191724
0.000477293
-0.00226248
0.000557024
-0.00259011
0.000629664
-0.00289017
0.000693167
-0.00315713
0.000746799
-0.00338998
0.000790966
-0.0035915
0.000826873
-0.00376698
0.000856137
-0.00392285
0.000880449
-0.00406549
0.00090132
-0.00420047
0.000919978
-0.0043319
-0.00446315
0.000937202
6.37934e-06
2.58249e-05
5.89635e-05
0.000105839
-0.000677674
0.000165555
-0.000971765
0.000236048
-0.00129846
0.000314095
-0.00164562
0.000395626
-0.00199877
0.000476305
-0.00234316
0.000552204
-0.002666
0.000620374
-0.00295834
0.000679152
-0.00321591
0.000728166
-0.00343899
0.000768095
-0.00363143
0.000800304
-0.00379919
0.000826452
-0.003949
0.000848186
-0.00408723
0.000866918
-0.00421921
0.000883757
-0.00434874
-0.00447877
0.000899381
0.00010881
0.000169174
0.000239661
-0.00136895
0.000316762
-0.00172272
0.000396256
-0.00207826
0.000473835
-0.00242074
0.000545783
-0.00273795
0.000609487
-0.00302204
0.000663658
-0.00327008
0.000708256
-0.00348359
0.000744198
-0.00366737
0.000772964
-0.00382796
0.000796226
-0.00397226
0.000815567
-0.00410657
0.000832294
-0.00423593
0.000847399
-0.00436384
-0.00449284
0.000861468
0.000242563
0.000318441
0.00039564
0.000469934
-0.00249503
0.000537852
-0.00280587
0.000597126
-0.00308132
0.000646831
-0.00331978
0.000687226
-0.00352399
0.000719423
-0.00369957
0.000744983
-0.00385352
0.000765566
-0.00399285
0.000782674
-0.00412368
0.000797507
-0.00425077
0.000810946
-0.00437728
-0.00450539
0.000823492
0.000464663
0.000528507
0.000583419
0.000628814
0.00066522
-0.00356039
0.000693904
-0.00372825
0.000716478
-0.00387609
0.000734564
-0.00401093
0.000749576
-0.00413869
0.000762607
-0.0042638
0.000774434
-0.00438911
-0.00451643
0.00078548
0.000642372
0.000667763
0.00068755
0.000703301
-0.00402668
0.000716334
-0.00415172
0.000727638
-0.0042751
0.000737892
-0.00439936
-0.004526
0.000747454
0.000671845
0.000682998
0.000692634
0.000701348
-0.00453408
0.000709434
0.000671436
0.00435801
0.000772168
0.000750787
0.00380931
0.00076855
0.00394523
0.0007842
0.00407762
0.000798549
0.00420994
0.0043445
0.000812056
0.000649656
0.0030648
0.000693772
0.00328173
0.000729617
0.00347017
0.000758643
0.00363591
0.000782477
0.00378547
0.000802646
0.00392506
0.000820395
0.00405987
0.000836645
0.00419369
0.00432921
0.000851941
0.000466346
0.002145
0.000540764
0.00245963
0.000607754
0.00274867
0.000665723
0.00300683
0.000714332
0.00323312
0.000754261
0.00343025
0.00078685
0.00360332
0.00081372
0.0037586
0.000836462
0.00390232
0.00085643
0.0040399
0.00087466
0.00417546
0.00431207
0.000891794
0.000227051
0.00108756
0.000304132
0.00140306
0.000385731
0.0017327
0.000467668
0.00206306
0.000545975
0.00238132
0.000617496
0.00267715
0.000680259
0.00294406
0.00073357
0.00317981
0.00077784
0.00338598
0.000814256
0.00356691
0.000844398
0.00372846
0.000869908
0.00387681
0.00089224
0.00401757
0.000912548
0.00415515
0.00429304
0.000931577
9.72041e-05
0.000500902
0.000153889
0.000741599
0.000222227
0.00101922
0.000299706
0.00132558
0.000382802
0.0016496
0.000467407
0.00197845
0.000549437
0.00229929
0.00062545
0.00260114
0.000693098
0.00287641
0.000751307
0.0031216
0.000800177
0.0033371
0.000840699
0.00352639
0.000874378
0.00369478
0.000902878
0.00384831
0.000927744
0.0039927
0.000950249
0.00413265
0.00427204
0.000971251
5.32624e-06
3.06009e-05
2.20586e-05
0.00013049
5.12702e-05
0.000272898
9.36411e-05
0.000458531
0.000149143
0.000686097
0.000216756
0.000951611
0.000294311
0.00124803
0.000378561
0.00156535
0.00046553
0.00189149
0.000551067
0.00221375
0.000631487
0.00252072
0.000704074
0.00280383
0.000767354
0.00305832
0.000821081
0.00328338
0.000866003
0.00348146
0.000903506
0.00365728
0.000935248
0.00381656
0.000962848
0.0039651
0.000987695
0.0041078
0.00424897
0.00101076
5.01676e-06
2.55841e-05
2.09351e-05
0.000114571
4.89464e-05
0.000244887
8.99098e-05
0.000417568
0.000144054
0.000631953
0.000210684
0.000884981
0.000287988
0.00117073
0.00037303
0.00148031
0.000462018
0.0018025
0.000550799
0.00212497
0.000635487
0.00243603
0.00071302
0.00272629
0.000781516
0.00298983
0.000840347
0.00322455
0.00088997
0.00343184
0.000931608
0.00361564
0.000966874
0.0037813
0.000997439
0.00393454
0.0010248
0.00408044
0.00422372
0.00105006
4.709e-06
2.08751e-05
1.98033e-05
9.9477e-05
4.65742e-05
0.000218116
8.60389e-05
0.000378103
0.000138662
0.00057933
0.000204063
0.00081958
0.000280788
0.001094
0.000366244
0.00139485
0.000456872
0.00171187
0.000548581
0.00203326
0.000637341
0.00234727
0.000719776
0.00264386
0.000793594
0.00291601
0.000857756
0.00316038
0.000912385
0.00337721
0.000958487
0.00356954
0.00099759
0.00374219
0.00103139
0.00390074
0.00106147
0.00405035
0.00419613
0.00108906
4.40463e-06
1.64705e-05
1.867e-05
8.52116e-05
4.41696e-05
0.000192616
8.20573e-05
0.000340215
0.000133012
0.000528375
0.000196949
0.000755643
0.000272773
0.00101818
0.000358252
0.00130938
0.000450111
0.00162001
0.000544383
0.00193899
0.000636958
0.0022547
0.000724189
0.00255663
0.000803386
0.00283681
0.000873079
0.00309069
0.000933012
0.00331728
0.000983923
0.00351863
0.0010272
0.00369891
0.00106453
0.00386342
0.00109758
0.0040173
0.00416604
0.00112767
4.10518e-06
1.23653e-05
1.75415e-05
7.17753e-05
4.17477e-05
0.00016841
7.79933e-05
0.00030397
0.000127147
0.000479221
0.000189402
0.000693388
0.000264011
0.000943566
0.000349118
0.00122427
0.000441773
0.00152736
0.000538197
0.00184257
0.000634267
0.00215863
0.000726121
0.00246478
0.000810696
0.00275224
0.00088608
0.00301531
0.000951601
0.00325176
0.00100767
0.00346256
0.0010555
0.00365109
0.0010967
0.00382222
0.00113299
0.00398101
0.00413322
0.00116581
3.81197e-06
8.55333e-06
1.64238e-05
5.91634e-05
3.93231e-05
0.000145511
7.38745e-05
0.000269418
0.000121113
0.000431983
0.000181484
0.000633017
0.000254578
0.000870473
0.000338919
0.00113993
0.000431916
0.00143436
0.000530036
0.00174444
0.000629221
0.00205944
0.000725454
0.00236854
0.000815337
0.00266235
0.000896521
0.00293412
0.000967884
0.00318039
0.00102947
0.00340097
0.00108223
0.00359833
0.00112767
0.00377678
0.00116753
0.00394115
0.00409743
0.00120332
3.52618e-06
5.02715e-06
1.53222e-05
4.73674e-05
3.69092e-05
0.000123924
6.97269e-05
0.000236601
0.000114952
0.000386758
0.000173259
0.000574709
0.000244554
0.000799178
0.000327742
0.00105674
0.000420615
0.00134149
0.000519942
0.00164512
0.000621798
0.00195759
0.000722089
0.00226825
0.000817136
0.00256731
0.000904165
0.00284709
0.000981587
0.00310297
0.00104902
0.00333354
0.00110712
0.00354023
0.00115721
0.00372669
0.001201
0.00389735
0.00405837
0.00124007
3.24877e-06
1.77838e-06
1.42412e-05
3.6375e-05
3.45179e-05
0.000103647
6.5575e-05
0.000205544
0.000108708
0.000343625
0.000164791
0.000518626
0.000234026
0.000729943
0.000315688
0.000975077
0.000407967
0.00124921
0.00050798
0.00154511
0.000612009
0.00185356
0.000715962
0.0021643
0.000815942
0.00246733
0.000908785
0.00275425
0.000992428
0.00301933
0.00106603
0.00325993
0.00112987
0.00347639
0.00118504
0.00367151
0.00123318
0.00384922
0.00401568
0.00127586
2.98048e-06
-1.2021e-06
1.31846e-05
2.61709e-05
3.21596e-05
8.4672e-05
6.14407e-05
0.000176262
0.000102418
0.000302648
0.000156142
0.000464902
0.000223079
0.000663006
0.00030286
0.000895296
0.00039408
0.00115799
0.000494239
0.00144495
0.000599895
0.0017479
0.000707037
0.00205716
0.00081163
0.00236273
0.000910169
0.00265571
0.00100013
0.00292937
0.00108017
0.00317989
0.00115015
0.00340642
0.00121085
0.0036108
0.00126378
0.00379629
0.00396897
0.00131049
2.72177e-06
-3.92387e-06
1.21554e-05
1.67373e-05
2.98431e-05
6.69843e-05
5.73435e-05
0.000148762
9.61204e-05
0.000263871
0.000147371
0.000413652
0.0002118
0.000598577
0.000289371
0.000817725
0.00037908
0.00106828
0.000478836
0.00134519
0.000585529
0.00164121
0.000695318
0.00194737
0.000804112
0.00225394
0.000908131
0.00255169
0.00100441
0.00283309
0.00109111
0.00309319
0.0011676
0.00332993
0.00123431
0.0035441
0.0012925
0.0037381
0.00391779
0.00134368
2.47284e-06
-6.39671e-06
1.11554e-05
8.05477e-06
2.75751e-05
5.05646e-05
5.32997e-05
0.000123037
8.98461e-05
0.000227325
0.000138532
0.000364966
0.000200271
0.000536838
0.000275332
0.000742664
0.000363098
0.000980511
0.000461904
0.00124638
0.000569019
0.00153409
0.000680849
0.00183554
0.000793339
0.00214145
0.000902517
0.00244252
0.00100503
0.00273059
0.00109852
0.00299969
0.00118186
0.00324659
0.00125503
0.00347093
0.00131901
0.00367412
0.00386164
0.00137516
2.23363e-06
-8.63034e-06
1.01858e-05
1.02642e-07
2.53604e-05
3.539e-05
4.93222e-05
9.90755e-05
8.36231e-05
0.000193024
0.000129676
0.000318913
0.000188572
0.000477941
0.000260855
0.000670381
0.000346276
0.00089509
0.000443595
0.00114907
0.0005505
0.00142719
0.000663711
0.00172233
0.000779308
0.00202585
0.000893215
0.00232861
0.00100175
0.00262205
0.00110209
0.00289936
0.00119255
0.00315612
0.00127262
0.00339086
0.0013429
0.00360384
0.00379996
0.00140458
2.00381e-06
-1.06341e-05
9.24657e-06
-7.14012e-06
2.32019e-05
2.14347e-05
4.54209e-05
7.68565e-05
7.74744e-05
0.00016097
0.000120847
0.000275541
0.000176777
0.000422011
0.00024605
0.000601108
0.000328757
0.000812383
0.000424077
0.00105375
0.000530135
0.00132113
0.000644031
0.00160843
0.000762065
0.00190782
0.000880161
0.00221051
0.000994396
0.00250782
0.00110151
0.00279224
0.00119928
0.00305835
0.00128664
0.0033035
0.00136375
0.00352673
0.00373216
0.00143154
1.78279e-06
-1.24169e-05
8.33709e-06
-1.36944e-05
2.11007e-05
8.67105e-06
4.16026e-05
5.63546e-05
7.1418e-05
0.000131155
0.000112082
0.000234878
0.000164951
0.000369142
0.000231018
0.000535041
0.000310683
0.000732718
0.000403522
0.000960907
0.00050811
0.00121654
0.00062197
0.00149457
0.000741706
0.00178808
0.000863346
0.00208887
0.000982827
0.00238833
0.00109652
0.00267855
0.00120169
0.00295318
0.00129667
0.00320852
0.00138112
0.00344228
0.00365764
0.00145564
1.56981e-06