/*--------------------------------*- C++ -*----------------------------------*\
  =========                 |
  \\      /  F ield         | OpenFOAM: The Open Source CFD Toolbox
   \\    /   O peration     | Website:  https://openfoam.org
    \\  /    A nd           | Version:  7
     \\/     M anipulation  |
\*---------------------------------------------------------------------------*/
FoamFile
{
    version     2.0;
    format      ascii;
    class       volVectorField;
    location    "280";
    object      U;
}
// * * * * * * * * * * * * * * * * * * * * * * * * * * * * * * * * * * * * * //

dimensions      [0 1 -1 0 0 0 0];

internalField   nonuniform List<vector> 
4575
(
(-0.000684279 0.0221711 -1.05989e-21)
(-0.0035861 0.0523915 -5.53801e-21)
(-0.00912089 0.0714872 6.60108e-22)
(-0.00112948 0.0230776 -5.24986e-21)
(-0.00460259 0.0547429 4.23586e-21)
(-0.0104488 0.0749861 -4.96672e-21)
(-0.00160462 0.0239444 -4.10162e-20)
(-0.00568335 0.0570133 5.14281e-21)
(-0.011845 0.0783908 7.79077e-21)
(-0.00210719 0.0247625 6.74286e-20)
(-0.00682288 0.0591813 -2.95741e-20)
(-0.0133024 0.0816716 -2.02264e-20)
(-0.00263406 0.0255232 -8.97147e-21)
(-0.00801447 0.061226 1.17408e-19)
(-0.0148124 0.0848001 5.47489e-20)
(-0.00318157 0.026218 -4.51515e-20)
(-0.00925031 0.0631269 2.85353e-20)
(-0.0163652 0.0877472 -4.45132e-20)
(-0.00374549 0.026839 5.50824e-20)
(-0.0105215 0.0648644 -6.72388e-20)
(-0.0179503 0.0904856 -1.02667e-19)
(-0.00432119 0.0273787 9.51544e-21)
(-0.0118182 0.0664201 -3.35591e-20)
(-0.0195558 0.0929887 9.3028e-20)
(-0.00490367 0.0278306 -2.6204e-20)
(-0.01313 0.0677768 1.84588e-19)
(-0.0211694 0.0952323 -4.04519e-20)
(-0.0289233 0.112197 -4.78018e-20)
(-0.00548764 0.028189 -8.27006e-20)
(-0.0144457 0.0689198 1.0983e-19)
(-0.0227781 0.0971928 6.09868e-20)
(-0.0305222 0.114946 2.74704e-20)
(-0.00606763 0.0284493 1.51661e-19)
(-0.0157538 0.0698358 -8.32996e-20)
(-0.0243686 0.098851 2.92662e-20)
(-0.0320846 0.117354 1.06184e-19)
(-0.00663797 0.0286083 1.28916e-19)
(-0.0170422 0.0705144 -1.56023e-19)
(-0.0259269 0.100188 -1.6123e-19)
(-0.0335973 0.119396 -7.62514e-20)
(-0.007193 0.0286638 -1.59988e-19)
(-0.0182987 0.0709477 -1.51198e-19)
(-0.0274391 0.101191 6.19452e-20)
(-0.035047 0.121053 1.53817e-19)
(-0.00772716 0.0286147 6.81156e-20)
(-0.0195113 0.0711303 1.00187e-19)
(-0.0288911 0.101848 1.22617e-19)
(-0.0364207 0.122306 -2.04077e-19)
(-0.00823508 0.0284615 -3.89147e-20)
(-0.0206682 0.0710599 4.76261e-20)
(-0.0302692 0.102152 -1.02527e-19)
(-0.0377055 0.123144 -1.52498e-19)
(-0.00871165 0.0282057 1.4685e-19)
(-0.0217582 0.070737 -1.4532e-19)
(-0.0315605 0.102099 1.15929e-19)
(-0.0388891 0.123556 1.84876e-19)
(-0.00915236 0.0278502 -6.29204e-20)
(-0.022771 0.0701647 -4.35561e-20)
(-0.0327528 0.101688 1.203e-19)
(-0.0399599 0.123537 -1.66521e-19)
(-0.0449779 0.137008 -9.36881e-20)
(-0.00955317 0.0273993 -1.48554e-19)
(-0.0236974 0.0693494 2.09403e-19)
(-0.0338354 0.100924 2.54823e-21)
(-0.0409077 0.123085 -2.26824e-21)
(-0.0455265 0.137018 2.11478e-19)
(-0.00991067 0.0268582 4.85906e-20)
(-0.0245293 0.0683 -1.49457e-19)
(-0.0347987 0.0998139 1.42753e-19)
(-0.0417234 0.122204 -2.11658e-19)
(-0.0459338 0.13654 2.60813e-19)
(-0.0102222 0.0262334 1.91385e-20)
(-0.0252601 0.0670284 -7.84272e-20)
(-0.0356347 0.0983683 2.52056e-19)
(-0.0423992 0.1209 -3.22383e-19)
(-0.0461935 0.135574 -2.62178e-19)
(-0.0104858 0.0255323 -1.32428e-19)
(-0.0258846 0.0655486 -2.36056e-19)
(-0.0363368 0.096602 -1.33431e-19)
(-0.0429288 0.119183 1.74768e-19)
(-0.0463006 0.134127 -1.00941e-20)
(-0.0469817 0.142419 3.65026e-20)
(-0.0107005 0.0247632 1.22967e-19)
(-0.0263994 0.0638774 3.09138e-19)
(-0.0369006 0.0945331 -2.32274e-19)
(-0.0433072 0.117069 -1.11505e-19)
(-0.046251 0.132206 9.17774e-20)
(-0.046263 0.140831 -2.1935e-19)
(-0.010866 0.0239353 -1.35266e-19)
(-0.0268029 0.0620331 -1.488e-20)
(-0.0373233 0.0921824 3.2967e-19)
(-0.0435312 0.114576 3.23572e-19)
(-0.0460415 0.129826 -6.57833e-20)
(-0.0453803 0.138722 -4.09466e-20)
(-0.0109831 0.023058 8.6942e-20)
(-0.027095 0.060036 1.76295e-19)
(-0.0376039 0.0895735 -1.20501e-19)
(-0.0435989 0.111727 -1.47825e-19)
(-0.0456699 0.127005 -1.52518e-19)
(-0.044331 0.136101 -4.06477e-20)
(-0.0110533 0.0221415 -1.19083e-19)
(-0.0272776 0.0579075 -3.82349e-19)
(-0.0377433 0.0867326 1.20266e-19)
(-0.0435098 0.108547 6.76227e-21)
(-0.0451342 0.123763 4.98505e-19)
(-0.0431124 0.132984 -2.94763e-19)
(-0.0378677 0.136932 -2.50468e-19)
(-0.011079 0.0211958 -1.14477e-19)
(-0.0273542 0.0556701 4.53064e-19)
(-0.0377441 0.0836875 -3.41094e-19)
(-0.0432643 0.105066 -6.88128e-20)
(-0.0444324 0.120127 -1.14958e-19)
(-0.0417203 0.129392 -2.96379e-19)
(-0.0355395 0.133509 2.92124e-19)
(-0.0110635 0.0202314 1.62823e-19)
(-0.0273296 0.0533467 -1.98626e-19)
(-0.0376101 0.0804675 -2.46476e-19)
(-0.0428637 0.101313 -2.301e-19)
(-0.0435625 0.116125 7.56815e-20)
(-0.040149 0.125351 4.17099e-20)
(-0.033018 0.129564 1.0434e-19)
(-0.0110106 0.0192581 -3.4363e-19)
(-0.0272102 0.0509603 2.6858e-19)
(-0.0373462 0.0771027 2.97027e-19)
(-0.0423094 0.0973215 -1.71038e-19)
(-0.0425213 0.111791 2.88856e-19)
(-0.0383904 0.120888 2.75853e-19)
(-0.0302897 0.125123 -4.92876e-20)
(-0.0185103 0.125086 -2.75477e-19)
(-0.0109248 0.0182857 -2.71795e-19)
(-0.0270031 0.0485334 -2.47013e-19)
(-0.036958 0.0736235 1.92643e-19)
(-0.0416026 0.0931266 1.10702e-19)
(-0.0413042 0.10716 4.48477e-20)
(-0.0364328 0.116039 -8.1005e-20)
(-0.0273356 0.120215 -5.67724e-20)
(-0.0142869 0.120226 1.28589e-19)
(-0.0108109 0.0173233 1.31374e-19)
(-0.0267161 0.0460877 2.55759e-19)
(-0.0364511 0.0700601 -4.54954e-19)
(-0.0407437 0.088763 -3.44226e-19)
(-0.039904 0.102267 1.72644e-19)
(-0.0342604 0.110839 1.60858e-19)
(-0.0241302 0.114876 -3.30521e-19)
(-0.00976662 0.114866 -2.94922e-20)
(-0.010674 0.0163791 6.33169e-19)
(-0.0263574 0.0436436 -4.33015e-19)
(-0.0358309 0.0664417 1.03638e-19)
(-0.0397316 0.0842662 3.34035e-19)
(-0.0383108 0.0971542 -3.56158e-19)
(-0.0318524 0.105329 1.73833e-20)
(-0.0206405 0.109146 2.65505e-19)
(-0.00490297 0.109047 4.85006e-19)
(0.015211 0.105507 4.88118e-19)
(-0.0105192 0.0154605 -6.0032e-19)
(-0.0259347 0.0412198 4.31068e-19)
(-0.0351015 0.0627962 1.03335e-19)
(-0.0385629 0.079671 -3.31235e-19)
(-0.0365105 0.0918598 1.38381e-19)
(-0.0291822 0.0995541 -6.60504e-20)
(-0.0168253 0.103071 -4.9372e-20)
(0.000361454 0.102815 -4.08777e-19)
(0.0222529 0.0992253 -6.41948e-19)
(-0.0103515 0.0145737 4.80909e-19)
(-0.0254553 0.0388326 -1.21776e-19)
(-0.0342656 0.0591494 4.08266e-19)
(-0.0372313 0.0750115 9.77902e-20)
(-0.0344849 0.0864248 -2.13176e-19)
(-0.0262166 0.0935587 3.42013e-20)
(-0.0126344 0.0967006 -4.45896e-19)
(0.00609587 0.0962226 2.01485e-19)
(0.0298774 0.0925328 1.0838e-19)
(0.0587017 0.0860346 1.68284e-20)
(-0.0101755 0.0137235 -1.23059e-19)
(-0.024925 0.0364963 -1.30911e-19)
(-0.0333237 0.0555247 -2.55965e-19)
(-0.0357273 0.0703196 1.85202e-19)
(-0.0322105 0.0808892 3.32418e-19)
(-0.0229155 0.0873904 -4.25473e-19)
(-0.0080085 0.0900884 6.73446e-19)
(0.0123811 0.089329 -1.30556e-19)
(0.0381887 0.0854941 1.86428e-20)
(0.0694339 0.0789653 -4.46704e-19)
(-0.00999494 0.0129134 3.772e-20)
(-0.0243481 0.0342219 1.26886e-19)
(-0.0322734 0.0519426 1.50701e-19)
(-0.034037 0.0656254 -1.24543e-19)
(-0.0296583 0.0752923 3.08068e-19)
(-0.0192315 0.0810969 4.08551e-19)
(-0.00287901 0.0832902 6.22486e-21)
(0.0193091 0.0821979 -5.18334e-19)
(0.0473039 0.0781805 -4.11568e-19)
(0.0811555 0.0716017 4.28719e-19)
(-0.0098129 0.0121456 -2.27863e-19)
(-0.0237267 0.0320177 2.15728e-19)
(-0.0311089 0.0484201 -1.57357e-19)
(-0.0321421 0.060956 -7.71258e-20)
(-0.0267937 0.0696715 -2.08022e-19)
(-0.0151101 0.0747261 -1.55903e-19)
(0.00283107 0.076364 -2.76426e-19)
(0.0269818 0.0748968 4.52744e-19)
(0.0573509 0.0706693 1.79213e-19)
(0.0940198 0.0640312 -4.35162e-19)
(0.137141 0.0553164 -5.27596e-19)
(-0.00963129 0.0114205 -2.35455e-20)
(-0.0230603 0.0298891 -5.32493e-19)
(-0.0298207 0.0449708 1.28085e-19)
(-0.0300199 0.0563352 2.8168e-19)
(-0.0235764 0.064062 -5.1305e-20)
(-0.0104903 0.0683246 -3.33455e-19)
(0.00920637 0.0693679 3.63924e-19)
(0.035509 0.0674959 4.13272e-19)
(0.0684651 0.0630423 1.56787e-19)
(0.108186 0.0563473 7.73991e-19)
(0.154839 0.0477396 -3.58497e-19)
(-0.00945074 0.0107372 -1.31862e-19)
(-0.0223454 0.0278379 -4.70088e-20)
(-0.0283955 0.0416048 -4.24562e-19)
(-0.0276424 0.0517834 2.56732e-19)
(-0.0199604 0.0584959 -2.5901e-19)
(-0.005305 0.0619374 -2.60187e-19)
(0.0163375 0.0623601 -2.32653e-20)
(0.045006 0.0600661 -4.16561e-19)
(0.0807857 0.0553837 -6.55367e-19)
(0.123814 0.0486477 1.778e-19)
(0.174263 0.0401842 1.98422e-19)
(0.232292 0.0303016 -8.41088e-20)
(-0.00927047 0.0100935 4.11773e-19)
(-0.0215755 0.0258634 -6.43834e-20)
(-0.0268157 0.0383282 3.74265e-19)
(-0.024977 0.0473171 -3.79254e-19)
(-0.0158948 0.0530019 5.53504e-19)
(0.000517835 0.0556066 4.58197e-19)
(0.0243193 0.0553967 -3.72539e-19)
(0.0555905 0.0526782 -6.87345e-19)
(0.0944512 0.0477788 1.12996e-18)
(0.141057 0.0410316 2.77131e-19)
(0.195569 0.0327631 -2.15009e-19)
(0.258097 0.0232846 -2.11469e-19)
(-0.00908817 0.00948558 -6.57225e-19)
(-0.0207408 0.0239618 4.29207e-19)
(-0.0250594 0.0351437 -6.30975e-19)
(-0.0219869 0.0429489 -3.39314e-19)
(-0.0113247 0.0476053 1.2503e-19)
(0.00705354 0.0493712 -4.94599e-19)
(0.0332482 0.0485315 7.67291e-19)
(0.0673792 0.0454012 1.35416e-20)
(0.109594 0.0403115 -4.2033e-19)
(0.160054 0.0335977 -3.64016e-19)
(0.218892 0.0255881 -6.45776e-19)
(0.286135 0.0165968 -7.39584e-21)
(0.361603 0.00691819 -9.16291e-20)
(-0.00890003 0.00890889 2.3342e-19)
(-0.0198281 0.0221269 -4.27994e-19)
(-0.0231009 0.0320505 5.44199e-19)
(-0.0186311 0.0386876 7.55977e-19)
(-0.00619152 0.042327 -2.43119e-19)
(0.0143793 0.0432665 3.16175e-20)
(0.0432203 0.0418148 -6.46008e-19)
(0.0804842 0.0383007 -1.58442e-19)
(0.126336 0.0330631 -4.91768e-19)
(0.180927 0.0264416 6.36267e-19)
(0.244334 0.0187675 5.86399e-19)
(0.316469 0.0103559 -1.03264e-19)
(0.396959 0.00149832 -7.79319e-20)
(-0.00870065 0.00835778 6.15991e-20)
(-0.0188212 0.0203505 8.70863e-20)
(-0.020911 0.0290449 -2.84525e-19)
(-0.0148653 0.0345385 -7.78075e-19)
(-0.000434784 0.0371843 1.24972e-19)
(0.0225725 0.0373235 3.73735e-19)
(0.054328 0.0352928 1.68975e-19)
(0.0950089 0.0314385 7.18074e-19)
(0.144784 0.0261102 -4.46641e-19)
(0.203772 0.0196539 -5.76557e-19)
(0.271962 0.0124034 -1.04723e-19)
(0.349111 0.00467137 2.60641e-19)
(0.434606 -0.00326045 5.67889e-20)
(0.527327 -0.0111516 2.34522e-20)
(-0.00848315 0.007826 -3.02928e-19)
(-0.0177009 0.0186227 2.03839e-20)
(-0.0184569 0.0261208 -5.55597e-20)
(-0.0106427 0.0305038 6.74128e-19)
(0.00600706 0.0321909 2.10822e-19)
(0.0317087 0.0315695 -6.82999e-20)
(0.0666582 0.0290073 2.59251e-19)
(0.111045 0.0248714 2.27419e-19)
(0.165025 0.0195243 5.45296e-19)
(0.228654 0.0133188 6.72303e-20)
(0.301801 0.00658978 -6.4808e-19)
(0.384019 -0.000357802 3.69337e-20)
(0.474408 -0.00726057 -5.21896e-19)
(0.571485 -0.0139121 -4.48682e-20)
(0.673124 -0.020153 -2.514e-19)
(-0.00823937 0.00730697 4.9537e-19)
(-0.0164452 0.0169325 3.55762e-19)
(-0.0157035 0.0232701 2.79811e-19)
(-0.00591476 0.0265829 -3.844e-19)
(0.0131953 0.027357 2.58936e-19)
(0.0418601 0.0260276 -2.45166e-19)
(0.0802897 0.0229958 -3.84757e-19)
(0.128671 0.0186511 -5.35849e-19)
(0.187121 0.0133705 -2.33893e-19)
(0.255606 0.00751296 4.58277e-19)
(0.333829 0.00141068 4.04072e-19)
(0.421096 -0.00464524 5.89523e-19)
(0.51617 -0.0104204 5.24939e-19)
(0.617169 -0.0157555 -1.59097e-19)
(0.721547 -0.0205589 -2.18645e-19)
(-0.00795998 0.00679405 -3.02285e-19)
(-0.0150301 0.0152686 -8.1198e-19)
(-0.0126134 0.0204838 -3.30727e-19)
(-0.000632069 0.0227737 3.52849e-19)
(0.0211899 0.0226903 1.01548e-19)
(0.0530938 0.0207178 1.67295e-19)
(0.0952912 0.0172914 4.40947e-19)
(0.147947 0.0128243 -4.40686e-19)
(0.211112 0.00770758 6.07514e-19)
(0.284626 0.00230456 -6.28817e-20)
(0.367983 -0.00306028 -8.94145e-19)
(0.46019 -0.0081182 -1.68765e-19)
(0.559638 -0.0126752 -5.80862e-19)
(0.664019 -0.016633 -4.00039e-19)
(0.770378 -0.0199805 4.32728e-19)
(0.875212 -0.0228966 3.54623e-19)
(-0.00763472 0.00628083 4.01371e-19)
(-0.0134298 0.0136198 6.32843e-19)
(-0.00914803 0.0177524 -3.42292e-20)
(0.00525474 0.0190726 -2.91698e-19)
(0.0300482 0.0181968 -3.23151e-19)
(0.0654707 0.0156574 6.94218e-20)
(0.11172 0.0119238 -5.21634e-19)
(0.168914 0.00743289 4.96617e-19)
(0.23701 0.00258825 -1.94671e-19)
(0.315675 -0.00224622 -4.2498e-19)
(0.404151 -0.00676042 5.34639e-19)
(0.501103 -0.0107181 -1.32044e-19)
(0.604511 -0.0139783 -2.38875e-19)
(0.711639 -0.0165166 4.45074e-19)
(0.81915 -0.0184134 -6.78032e-19)
(0.9233 -0.0199405 4.20996e-21)
(1.02057 -0.0211012 2.75102e-20)
(-0.00725266 0.00576135 -4.46975e-19)
(-0.0116172 0.0119756 -1.76772e-19)
(-0.00526803 0.0150668 3.17602e-19)
(0.0117942 0.0154762 2.63557e-19)
(0.039824 0.0138816 2.99594e-19)
(0.0790443 0.0108619 -1.73001e-19)
(0.129619 0.00692001 -1.50287e-19)
(0.191596 0.00251474 -6.4774e-20)
(0.264797 -0.00194062 -6.91236e-19)
(0.348679 -0.0060872 1.28966e-18)
(0.442183 -0.00963785 1.39021e-20)
(0.543591 -0.0124004 1.64552e-19)
(0.650452 -0.0143002 1.61427e-19)
(0.75961 -0.0153987 3.29399e-19)
(0.8674 -0.0158748 5.71851e-19)
(0.96993 -0.0160907 3.26903e-19)
(1.06372 -0.0161637 3.49796e-19)
(-0.00680239 0.00523042 1.12444e-19)
(-0.00956449 0.010327 -9.44025e-20)
(-0.000934037 0.0124192 2.37433e-19)
(0.0190332 0.0119818 -3.59804e-19)
(0.0505669 0.00974972 -4.45914e-20)
(0.0938596 0.0063463 1.65433e-19)
(0.14902 0.00230528 1.99668e-19)
(0.215994 -0.00189528 -1.73501e-19)
(0.294431 -0.00583706 5.02861e-19)
(0.383532 -0.00917357 -5.25292e-19)
(0.481891 -0.0116511 2.45648e-19)
(0.587376 -0.0131344 -4.70602e-19)
(0.697095 -0.0136284 4.8109e-19)
(0.807505 -0.0132905 4.07924e-19)
(0.914685 -0.0124017 -7.53056e-19)
(1.0147 -0.0114073 -6.91028e-19)
(1.10424 -0.0105195 -2.51237e-19)
(1.18039 -0.0110192 -2.15745e-19)
(-0.00627229 0.00468375 7.06106e-19)
(-0.00724372 0.00866649 -4.0692e-19)
(0.00389275 0.00980364 -5.7777e-19)
(0.0270164 0.00858823 -2.41497e-19)
(0.0623212 0.0058077 -3.7507e-19)
(0.109953 0.00212593 -4.45176e-20)
(0.169939 -0.00189576 6.64917e-19)
(0.24209 -0.00576446 3.38806e-19)
(0.325842 -0.00906325 5.34375e-19)
(0.420094 -0.0114673 1.48667e-19)
(0.523054 -0.0127686 4.14954e-19)
(0.63215 -0.0129024 -4.80137e-19)
(0.744062 -0.0119659 2.01718e-19)
(0.854906 -0.0102201 -3.31767e-19)
(0.960597 -0.00804707 3.73178e-19)
(1.05728 -0.00596434 8.19052e-19)
(1.14191 -0.00425595 -6.84945e-20)
(1.21216 -0.00408411 5.19926e-19)
(1.26831 -0.00313568 -1.83074e-19)
(-0.00565074 0.00411813 -3.6711e-19)
(-0.00462708 0.00698913 4.08308e-21)
(0.00924996 0.00721685 2.91319e-19)
(0.0357855 0.00529712 5.88861e-20)
(0.0751259 0.00206402 7.17895e-19)
(0.12735 -0.00178242 -9.4051e-20)
(0.192379 -0.00565814 -5.67311e-19)
(0.269848 -0.00906133 -4.23942e-19)
(0.358938 -0.0115848 -6.15921e-19)
(0.458201 -0.0129367 -6.09988e-19)
(0.565425 -0.0129681 -7.30068e-19)
(0.677589 -0.0116991 7.97977e-19)
(0.79097 -0.00933017 3.55168e-19)
(0.901412 -0.00623005 -5.0052e-20)
(1.00477 -0.00287652 -1.01987e-19)
(1.09738 0.000155534 1.20307e-19)
(1.1766 0.00253497 3.4947e-19)
(1.24068 0.00322454 2.05957e-19)
(1.2903 0.00425729 1.69147e-19)
(1.32288 -0.00208478 5.24466e-20)
(-0.00492631 0.00353152 -1.28168e-19)
(-0.00168742 0.00529235 7.50828e-20)
(0.0151736 0.0046587 1.07125e-19)
(0.0453789 0.00211322 2.80603e-19)
(0.0890137 -0.00146974 -2.16428e-19)
(0.146069 -0.00535959 5.47829e-20)
(0.216326 -0.00895564 5.82981e-19)
(0.29921 -0.0117549 6.46854e-20)
(0.3936 -0.0133701 -2.71959e-21)
(0.497661 -0.0135556 8.43558e-20)
(0.608735 -0.0122363 4.30921e-19)
(0.723357 -0.00953072 -6.10041e-19)
(0.837444 -0.00575138 -6.67191e-19)
(0.946655 -0.00137485 -3.65346e-19)
(1.0469 0.00303562 -4.50692e-19)
(1.13481 0.00686556 -5.41217e-19)
(1.20822 0.00976201 -7.578e-20)
(1.26602 0.0108172 -3.47897e-19)
(1.30931 0.0118446 7.67302e-19)
(1.33668 0.00607706 -3.92127e-19)
(-0.00408791 0.00292312 6.57928e-19)
(0.00160141 0.00357643 -1.60825e-19)
(0.0216975 0.00213262 -2.31829e-19)
(0.0558309 -0.000954785 1.17514e-19)
(0.104011 -0.00477831 5.72385e-20)
(0.166116 -0.00858335 -1.67314e-19)
(0.241756 -0.0117602 -4.92484e-20)
(0.330102 -0.0138141 -9.97182e-20)
(0.42969 -0.0143903 2.97716e-19)
(0.538263 -0.0133037 7.33662e-19)
(0.652701 -0.0105685 2.34677e-19)
(0.769117 -0.00641422 7.06202e-19)
(0.883126 -0.00127075 2.92711e-19)
(0.990304 0.00428196 4.08398e-19)
(1.08672 0.00960966 4.70784e-19)
(1.16942 0.0140787 -4.70796e-20)
(1.23678 0.0173387 -1.22921e-19)
(1.28833 0.0186146 4.8486e-22)
(1.32556 0.019552 8.39971e-20)
(1.34801 0.0142133 2.06863e-19)
(-0.00312491 0.0022934 -2.96655e-19)
(0.00526423 0.00184455 4.4518e-20)
(0.028853 -0.000354044 -3.21265e-19)
(0.0671715 -0.00389394 -4.50275e-19)
(0.120136 -0.0078422 -1.92034e-19)
(0.187488 -0.0114279 -2.06151e-20)
(0.268628 -0.0140415 2.57476e-19)
(0.362432 -0.015208 -2.08649e-19)
(0.467052 -0.0146189 4.16356e-20)
(0.579779 -0.0121662 -4.72027e-20)
(0.697033 -0.00796846 -6.12707e-19)
(0.814535 -0.0023763 -9.58907e-19)
(0.927684 0.0040613 -1.45109e-19)
(1.03207 0.0106703 -3.21381e-19)
(1.12405 0.0167638 -3.06872e-19)
(1.20115 0.0217106 -5.53671e-20)
(1.26233 0.025186 -2.00152e-19)
(1.30774 0.0265495 -1.23952e-19)
(1.33926 0.0273205 -3.74781e-19)
(1.35717 0.0222806 -6.9047e-21)
(-0.00202725 0.00164402 -2.88331e-19)
(0.00932432 0.000102842 6.17758e-19)
(0.0366686 -0.00278997 3.82437e-19)
(0.0794262 -0.00668676 1.69292e-19)
(0.137402 -0.0106375 -6.04295e-20)
(0.210171 -0.0138638 -3.93255e-19)
(0.296887 -0.0157671 -2.58908e-19)
(0.396091 -0.0159053 -1.26553e-19)
(0.505513 -0.0140326 -1.87171e-19)
(0.621971 -0.0101342 -6.68696e-19)
(0.741436 -0.00444783 4.9656e-19)
(0.859295 0.00254754 3.25136e-19)
(0.970818 0.010187 5.21461e-19)
(1.07173 0.0177163 1.51015e-19)
(1.15876 0.0244171 8.44473e-20)
(1.22998 0.0296827 3.07307e-20)
(1.28498 0.0332341 -3.21715e-20)
(1.32446 0.0345664 -1.11777e-19)
(1.35066 0.0351049 -1.23597e-19)
(1.36442 0.0302532 -3.73422e-19)
(-0.000785472 0.000977841 5.12389e-20)
(0.0138031 -0.00163967 -9.39783e-20)
(0.0451695 -0.00515982 6.81556e-20)
(0.092615 -0.00931122 -1.62368e-19)
(0.155813 -0.0131359 3.4073e-19)
(0.234139 -0.015858 6.12107e-19)
(0.326466 -0.0169024 1.87496e-19)
(0.430955 -0.0158755 5.20463e-19)
(0.544883 -0.012611 -2.74345e-19)
(0.664588 -0.007205 7.20462e-19)
(0.78562 -2.62216e-05 1.31154e-19)
(0.903098 0.00831415 3.15322e-19)
(1.01227 0.0170433 -5.6944e-19)
(1.10909 0.0253446 -2.0342e-19)
(1.19076 0.0324915 2.0899e-19)
(1.25596 0.0379232 4.03533e-19)
(1.30485 0.0414233 2.76033e-19)
(1.33869 0.0426216 -1.21023e-19)
(1.35998 0.0428729 5.00159e-19)
(1.37 0.038118 1.65856e-19)
(0.000609233 0.000298807 -1.71935e-19)
(0.0187202 -0.00337115 -3.90117e-19)
(0.0543775 -0.00744433 -2.91942e-19)
(0.106752 -0.0117409 9.03662e-20)
(0.175364 -0.0153047 -4.84713e-19)
(0.259358 -0.0173743 -5.99158e-19)
(0.357283 -0.0174118 -8.02549e-20)
(0.466886 -0.0150892 -1.83977e-19)
(0.584963 -0.0103383 6.49544e-19)
(0.70738 -0.00338213 -1.71079e-19)
(0.829303 0.00526939 -5.01278e-19)
(0.945672 0.014874 -8.14927e-19)
(1.05181 0.0245636 4.39725e-19)
(1.14402 0.0334807 4.07886e-19)
(1.22004 0.0409142 -1.08636e-19)
(1.27915 0.0463687 -2.1374e-19)
(1.32212 0.0497041 8.66907e-20)
(1.35065 0.0506817 -1.19633e-19)
(1.36747 0.0506026 -2.3482e-20)
(1.37415 0.0458717 2.98418e-19)
(0.00216498 -0.000388115 -1.32175e-19)
(0.0240928 -0.0050772 -1.00069e-19)
(0.0643102 -0.00962061 4.49546e-19)
(0.121847 -0.0139454 -2.7546e-19)
(0.196042 -0.0171079 7.05883e-19)
(0.285779 -0.0183738 2.95366e-19)
(0.389243 -0.0172589 -1.92477e-19)
(0.503731 -0.013519 -3.26802e-19)
(0.625546 -0.00720295 -5.17249e-19)
(0.750093 0.0013242 2.17762e-19)
(0.872219 0.0114052 4.47879e-20)
(0.986774 0.0221725 2.71587e-19)
(1.08926 0.0326799 5.29987e-19)
(1.17643 0.0420525 -3.02009e-19)
(1.2466 0.0496183 1.08864e-19)
(1.29969 0.0549644 -3.85847e-19)
(1.33697 0.0580366 -1.18293e-19)
(1.36056 0.0587231 -9.58997e-20)
(1.37335 0.0582809 -5.58411e-20)
(1.37707 0.0535175 -4.11218e-19)
(0.00388918 -0.00107703 2.5959e-19)
(0.0299361 -0.00674097 4.11688e-19)
(0.0749815 -0.0116624 1.61746e-20)
(0.1379 -0.0158905 2.5268e-19)
(0.217827 -0.0185059 -6.05016e-19)
(0.313345 -0.0188159 1.44878e-19)
(0.422239 -0.0164077 -9.34315e-20)
(0.541328 -0.0111406 -1.80278e-20)
(0.666416 -0.00319902 -1.75221e-19)
(0.792481 0.0068972 -3.82802e-19)
(0.91412 0.0183415 -9.29074e-20)
(1.02619 0.0301517 2.46037e-19)
(1.1245 0.0413244 -7.27861e-19)
(1.2063 0.0509922 1.8686e-19)
(1.27052 0.0585444 -5.53094e-20)
(1.3177 0.0636644 3.24857e-19)
(1.34959 0.0663904 6.10828e-19)
(1.36864 0.06673 1.87743e-21)
(1.37781 0.0659016 -1.02944e-19)
(1.37895 0.0610634 -1.35241e-19)
(0.00578852 -0.00176121 -4.67391e-20)
(0.0362626 -0.00834349 -6.19722e-19)
(0.0864004 -0.0135407 -4.73411e-19)
(0.154908 -0.0175391 -2.97659e-20)
(0.240687 -0.0194571 1.05745e-19)
(0.341984 -0.0186593 -2.02654e-19)
(0.456151 -0.0148238 -5.73136e-22)
(0.579505 -0.00793355 6.6817e-20)
(0.707358 0.00167367 9.75741e-20)
(0.834305 0.0133137 5.4305e-19)
(0.95478 0.0260334 2.22807e-19)
(1.06376 0.0387513 -5.79077e-20)
(1.15742 0.0504309 6.57624e-20)
(1.23361 0.0602372 -8.54059e-20)
(1.29188 0.0676405 3.85194e-19)
(1.33335 0.0724315 -1.62275e-19)
(1.36019 0.0747427 -2.71512e-19)
(1.37509 0.0746932 -2.18283e-20)
(1.38105 0.0734639 1.67559e-19)
(1.37995 0.06852 1.37674e-20)
(0.00786889 -0.00243317 8.23593e-20)
(0.0430822 -0.00986389 3.28124e-19)
(0.0985714 -0.0152236 2.03937e-19)
(0.172858 -0.0188518 -3.68891e-19)
(0.26458 -0.0199182 7.873e-20)
(0.371616 -0.017863 4.76049e-19)
(0.490849 -0.0124751 2.58303e-19)
(0.618083 -0.00388211 3.45078e-20)
(0.748155 0.00740913 3.09871e-19)
(0.87534 0.0205445 -6.24973e-19)
(0.994 0.034432 -1.73649e-19)
(1.09933 0.0479107 -7.35794e-20)
(1.18798 0.0599362 4.28433e-19)
(1.2584 0.0697307 -1.29617e-19)
(1.3108 0.0768624 -3.72212e-20)
(1.34681 0.0812361 -2.28481e-19)
(1.36895 0.0830781 -1.88574e-19)
(1.3801 0.082609 -6.3239e-20)
(1.38324 0.0809706 -6.88897e-20)
(1.38021 0.0758995 -1.90976e-19)
(0.0101354 -0.00308475 -7.68338e-20)
(0.0504022 -0.0112797 -4.62986e-20)
(0.111494 -0.0166776 -1.18333e-19)
(0.19173 -0.0197872 3.87683e-19)
(0.289458 -0.0198455 2.56604e-19)
(0.402149 -0.016387 -8.1917e-20)
(0.526193 -0.00933307 -1.48496e-20)
(0.656877 0.00102401 3.15874e-19)
(0.788597 0.0139952 -4.75999e-19)
(0.915377 0.028555 2.88331e-19)
(1.03161 0.0434856 2.92133e-19)
(1.1328 0.0575695 7.66455e-20)
(1.21615 0.0697814 -1.52849e-19)
(1.28075 0.0794227 2.18249e-19)
(1.32742 0.0861734 -5.65942e-19)
(1.35825 0.0900559 7.30933e-20)
(1.37607 0.091387 -1.33244e-19)
(1.38385 0.0904776 3.34591e-19)
(1.38452 0.0884273 6.07738e-19)
(1.37984 0.083214 7.81075e-20)
(0.0125923 -0.0037072 -1.18574e-19)
(0.0582266 -0.0125669 5.09512e-20)
(0.125161 -0.0178675 3.33724e-19)
(0.211498 -0.0203032 5.6703e-21)
(0.315259 -0.0191955 -5.55698e-19)
(0.433479 -0.0141936 -3.77946e-19)
(0.562034 -0.00537345 -3.20808e-19)
(0.695701 0.00678929 -1.67158e-19)
(0.828478 0.0214134 6.28791e-19)
(0.954225 0.0373062 -2.80284e-20)
(1.06746 0.0531408 8.2467e-20)
(1.1641 0.0676694 1.33359e-19)
(1.24195 0.079912 -4.43213e-19)
(1.30074 0.0892693 -3.49907e-19)
(1.34188 0.0955435 9.31402e-20)
(1.36785 0.0988747 4.25082e-19)
(1.38172 0.0996645 -3.35643e-20)
(1.38651 0.0983021 3.2872e-19)
(1.38503 0.095841 -4.57787e-19)
(1.37896 0.0904758 -5.59924e-20)
(0.0152428 -0.00429122 1.51137e-19)
(0.0665565 -0.0137006 1.86782e-19)
(0.139563 -0.0187569 -3.4426e-19)
(0.232127 -0.0203573 -1.84491e-20)
(0.341915 -0.0179258 6.50489e-19)
(0.465496 -0.0112482 4.04569e-19)
(0.598219 -0.00057699 -1.60633e-19)
(0.734369 0.0134121 2.34556e-19)
(0.867607 0.02964 -2.48644e-19)
(0.991714 0.0467552 -2.48199e-19)
(1.10144 0.0633436 2.4983e-19)
(1.19319 0.0781546 -5.00956e-19)
(1.26541 0.0902788 6.27949e-20)
(1.31848 0.0992335 2.35945e-19)
(1.35432 0.104949 -1.26816e-19)
(1.37579 0.107682 1.79433e-19)
(1.38607 0.107909 -2.14511e-19)
(1.38821 0.106088 -4.93318e-19)
(1.38487 0.103219 6.38428e-20)
(1.37762 0.0976959 1.66307e-19)
(0.0180892 -0.00482709 1.76464e-19)
(0.0753896 -0.0146549 -5.68711e-19)
(0.154682 -0.0193091 9.0667e-20)
(0.253573 -0.0199073 -9.35129e-20)
(0.369346 -0.0159962 -2.29602e-19)
(0.498079 -0.00752034 -1.81079e-19)
(0.634589 0.00507002 1.6193e-19)
(0.772699 0.0208847 -7.34187e-19)
(0.905802 0.0386455 -1.6945e-19)
(1.0277 0.0568563 1.09178e-19)
(1.13346 0.0740404 -1.36956e-19)
(1.22007 0.0889727 3.86082e-19)
(1.28661 0.100838 2.67907e-19)
(1.33409 0.109284 9.17746e-20)
(1.36491 0.114373 5.03443e-19)
(1.38221 0.11647 -4.91654e-19)
(1.38927 0.116123 2.9963e-19)
(1.38908 0.11384 4.18044e-19)
(1.38414 0.11057 -3.79607e-20)
(1.37591 0.104884 -2.65476e-19)
(0.0211326 -0.00530466 1.38567e-20)
(0.0847202 -0.0154035 -6.1221e-21)
(0.170494 -0.0194871 4.1089e-19)
(0.275786 -0.0189123 -5.82173e-20)
(0.397466 -0.013369 -2.58462e-20)
(0.531101 -0.00298376 4.30515e-19)
(0.670983 0.0115755 4.89757e-19)
(0.810514 0.0291933 1.3418e-19)
(0.942898 0.0483963 2.83807e-19)
(1.06205 0.0675619 -1.83586e-19)
(1.16347 0.0851788 -1.54636e-19)
(1.24473 0.100075 -3.85917e-21)
(1.30561 0.111552 -1.85476e-19)
(1.3477 0.119395 -7.00404e-21)
(1.3738 0.123801 -3.53576e-19)
(1.38728 0.125237 1.38146e-19)
(1.39145 0.124308 3.19231e-19)
(1.38923 0.121567 -1.5936e-19)
(1.38293 0.117901 1.81282e-19)
(1.37388 0.112049 3.22304e-19)
(0.0243732 -0.00571349 5.35169e-20)
(0.0945389 -0.0159196 -1.44995e-19)
(0.186971 -0.0192545 -8.50921e-21)
(0.298708 -0.0173328 4.51862e-21)
(0.42618 -0.0100101 -2.84666e-19)
(0.56443 0.00238255 -4.04605e-20)
(0.707241 0.0189411 -5.04623e-19)
(0.847646 0.0383185 5.19e-19)
(0.978747 0.0588548 2.64675e-19)
(1.09468 0.0788236 2.39842e-20)
(1.19143 0.0967085 -2.35147e-21)
(1.26723 0.111418 -1.3451e-19)
(1.32252 0.122386 7.80439e-20)
(1.35944 0.129547 2.1182e-19)
(1.38114 0.133225 -3.64501e-19)
(1.39113 0.133981 2.75033e-19)
(1.39274 0.13247 -3.28686e-19)
(1.38875 0.129273 -1.46259e-20)
(1.38129 0.125218 1.20976e-21)
(1.37156 0.119197 1.44976e-19)
(0.0278095 -0.00604291 -1.17656e-19)
(0.104833 -0.0161764 -1.30176e-19)
(0.204079 -0.0185755 1.85943e-19)
(0.322274 -0.0151318 -8.1865e-20)
(0.455387 -0.00588925 -2.53234e-20)
(0.597931 0.00859419 -2.48983e-19)
(0.743203 0.0271628 2.76189e-19)
(0.883935 0.0482357 -4.91333e-19)
(1.01322 0.0699803 4.38057e-20)
(1.1255 0.0905927 7.45535e-20)
(1.21732 0.108581 -4.00096e-20)
(1.28761 0.122961 2.82449e-20)
(1.33744 0.133313 -3.26702e-19)
(1.36944 0.139723 -2.47274e-19)
(1.38705 0.142639 2.05769e-19)
(1.3939 0.142705 -6.56153e-20)
(1.39323 0.140613 -3.89746e-19)
(1.38772 0.136967 -7.35723e-20)
(1.37928 0.132527 -3.20213e-19)
(1.36899 0.126335 -3.92653e-19)
(0.0314391 -0.00628205 -2.77043e-20)
(0.115585 -0.0161472 1.93091e-19)
(0.221777 -0.0174155 1.38397e-19)
(0.346411 -0.0122749 4.03972e-19)
(0.484979 -0.000980507 -1.38764e-20)
(0.631464 0.0156611 2.12791e-19)
(0.778716 0.0362306 -4.46347e-19)
(0.919236 0.0589157 1.55876e-19)
(1.0462 0.08173 -1.30009e-19)
(1.15445 0.102821 1.85149e-19)
(1.24116 0.120753 4.57128e-20)
(1.30594 0.134668 1.05782e-19)
(1.35048 0.144308 3.02996e-19)
(1.37783 0.149911 3.73341e-20)
(1.39168 0.152039 -1.84846e-19)
(1.39569 0.15141 3.03551e-19)
(1.39304 0.148742 1.06373e-19)
(1.3862 0.144652 -4.98058e-20)
(1.37694 0.139832 3.00642e-19)
(1.3662 0.133465 1.97646e-19)
(0.371042 -0.00873055 -5.96112e-20)
(0.514844 0.00473722 7.14394e-20)
(0.66489 0.0235876 -4.14208e-20)
(0.81363 0.0461289 2.52639e-19)
(0.953413 0.0703253 -7.91896e-20)
(1.07759 0.0940594 -9.67488e-20)
(1.1815 0.115462 -3.27185e-19)
(1.26297 0.13318 -2.06289e-19)
(1.3223 0.146508 -1.90047e-19)
(1.36174 0.155353 -1.53037e-19)
(1.38474 0.160101 5.81681e-20)
(1.39514 0.161424 -1.12305e-19)
(1.39662 0.160098 1.32726e-20)
(1.39222 0.156862 2.11382e-19)
(1.38426 0.152333 2.22897e-19)
(1.37432 0.147138 1.59664e-20)
(1.3632 0.14059 1.38169e-19)
(0.698073 0.0323721 -4.29325e-20)
(0.847804 0.0568367 -1.37798e-19)
(0.986348 0.0824275 3.28533e-19)
(1.10733 0.106923 -8.19239e-20)
(1.20664 0.128469 -2.55788e-21)
(1.28279 0.145826 2.21628e-19)
(1.33676 0.158452 -1.97308e-19)
(1.37134 0.16643 8.62634e-20)
(1.39028 0.170287 -2.15326e-19)
(1.39755 0.170794 3.61116e-19)
(1.39677 0.168774 -2.71885e-19)
(1.39085 0.164977 -1.63074e-19)
(1.38194 0.160013 -1.76047e-21)
(1.37142 0.154445 -2.36761e-19)
(1.36 0.147712 -2.80751e-21)
(1.13535 0.120275 -5.84828e-20)
(1.22985 0.141799 1.00603e-19)
(1.30067 0.158653 -1.34717e-19)
(1.34943 0.170477 1.7111e-19)
(1.37939 0.177525 1.63388e-19)
(1.39457 0.180464 3.65361e-20)
(1.399 0.180148 -1.02663e-19)
(1.39622 0.17744 -2.40135e-20)
(1.38899 0.173089 -1.39747e-19)
(1.37927 0.167694 -5.92094e-20)
(1.36828 0.161754 9.68853e-20)
(1.35662 0.15483 -1.65668e-19)
(1.38599 0.188628 -4.37393e-21)
(1.39771 0.190628 1.51316e-19)
(1.39958 0.189488 -4.30751e-20)
(1.39504 0.186097 2.46194e-19)
(1.38668 0.181201 1.2974e-19)
(1.37628 0.175378 -2.15817e-20)
(1.36491 0.169066 7.08489e-20)
(1.35306 0.161943 2.70018e-19)
(1.39329 0.194748 -1.59269e-20)
(1.38396 0.189313 -1.94923e-19)
(1.373 0.183063 1.60792e-20)
(1.36131 0.176379 -1.28537e-19)
(1.34931 0.169049 1.27334e-21)
(1.34539 0.176145 -2.68789e-20)
(1.30214 -0.233114 -1.01483e-19)
(1.32924 -0.249823 -4.00971e-20)
(1.32613 -0.245943 3.63732e-21)