/*--------------------------------*- C++ -*----------------------------------*\
  =========                 |
  \\      /  F ield         | OpenFOAM: The Open Source CFD Toolbox
   \\    /   O peration     | Website:  https://openfoam.org
    \\  /    A nd           | Version:  7
     \\/     M anipulation  |
\*---------------------------------------------------------------------------*/
FoamFile
{
    version     2.0;
    format      ascii;
    class       volScalarField;
    location    "260";
    object      p;
}
// * * * * * * * * * * * * * * * * * * * * * * * * * * * * * * * * * * * * * //

dimensions      [0 2 -2 0 0 0 0];

internalField   nonuniform List<scalar> 
4575
(
-0.0803978
-0.076358
-0.0784922
-0.0884624
-0.104707
-0.120132
-0.125594
-0.117258
-0.100185
-0.0827091
-0.0696479
-0.061493
-0.0580763
-0.0605068
-0.0677086
-0.0745594
-0.0753982
-0.069383
-0.0601476
-0.0522186
-0.0466508
-0.0441819
-0.0449392
-0.047293
-0.0802852
-0.0768121
-0.0795367
-0.090171
-0.107065
-0.122957
-0.128544
-0.119948
-0.102323
-0.0841634
-0.0704244
-0.0616594
-0.0576498
-0.0594506
-0.0660434
-0.0724388
-0.0731203
-0.067291
-0.0585101
-0.051132
-0.0461188
-0.0442176
-0.0455496
-0.0484121
-0.0801204
-0.0772174
-0.0805335
-0.0918292
-0.109371
-0.125736
-0.131459
-0.122614
-0.104441
-0.0855973
-0.0711784
-0.0618045
-0.0572074
-0.0583857
-0.0643778
-0.070326
-0.0708554
-0.0652104
-0.056875
-0.0500379
-0.0455754
-0.0442443
-0.0461588
-0.0495396
-0.0799012
-0.0775707
-0.0814786
-0.093432
-0.111621
-0.128464
-0.134336
-0.125254
-0.106538
-0.0870107
-0.0719107
-0.0619298
-0.0567512
-0.057315
-0.0627149
-0.0682243
-0.0686063
-0.063143
-0.0552432
-0.0489363
-0.0450199
-0.0442611
-0.0467654
-0.050674
-0.0796253
-0.0778689
-0.0823679
-0.0949743
-0.113808
-0.131135
-0.13717
-0.127864
-0.108613
-0.0884036
-0.0726224
-0.0620371
-0.0562835
-0.0562412
-0.0610583
-0.0661371
-0.0663754
-0.0610903
-0.0536154
-0.0478273
-0.0444519
-0.0442668
-0.047368
-0.051814
-0.0792906
-0.0781093
-0.0831973
-0.0964512
-0.115928
-0.133745
-0.139958
-0.130444
-0.110665
-0.0897762
-0.0733145
-0.0621277
-0.0558063
-0.0551672
-0.0594108
-0.0640673
-0.0641653
-0.059054
-0.0519923
-0.0467111
-0.0438709
-0.0442605
-0.047965
-0.0529579
-0.0788951
-0.078289
-0.0839631
-0.0978581
-0.117976
-0.13629
-0.142696
-0.132989
-0.112692
-0.0911285
-0.073988
-0.0622034
-0.0553217
-0.0540954
-0.0577756
-0.0620181
-0.0619785
-0.0570356
-0.0503747
-0.0455878
-0.0432766
-0.044241
-0.048555
-0.054104
-0.0784372
-0.0784053
-0.0846615
-0.0991903
-0.119945
-0.138763
-0.145379
-0.135498
-0.114693
-0.0924608
-0.074644
-0.0622657
-0.0548316
-0.0530285
-0.0561554
-0.0599922
-0.0598173
-0.0550368
-0.0487635
-0.0444577
-0.0426684
-0.0442074
-0.0491365
-0.0552508
-0.0779153
-0.078456
-0.085289
-0.100443
-0.121832
-0.141162
-0.148004
-0.137967
-0.116667
-0.0937732
-0.0752838
-0.0623161
-0.054338
-0.0519686
-0.054553
-0.0579924
-0.0576839
-0.053059
-0.0471594
-0.043321
-0.0420461
-0.0441586
-0.0497078
-0.0563964
-0.0773282
-0.0784387
-0.0858423
-0.101613
-0.123632
-0.14348
-0.150568
-0.140395
-0.118614
-0.0950661
-0.0759083
-0.0623563
-0.0538428
-0.0509181
-0.0529709
-0.0560212
-0.0555806
-0.0511038
-0.0455634
-0.042178
-0.0414093
-0.0440934
-0.0502673
-0.0575391
-0.0783514
-0.0863183
-0.102696
-0.12534
-0.145715
-0.153066
-0.142779
-0.120531
-0.0963396
-0.0765188
-0.0623878
-0.0533477
-0.0498791
-0.0514114
-0.0540811
-0.0535093
-0.0491726
-0.0439764
-0.0410291
-0.0407577
-0.0440108
-0.0508134
-0.0586769
-0.0781923
-0.0867141
-0.103687
-0.126953
-0.147861
-0.155496
-0.145116
-0.122419
-0.097594
-0.0771164
-0.0624121
-0.0528545
-0.0488535
-0.0498768
-0.0521743
-0.0514722
-0.0472669
-0.0423993
-0.0398748
-0.0400909
-0.0439099
-0.0513444
-0.0598081
-0.0779597
-0.0870271
-0.104585
-0.128465
-0.149915
-0.157854
-0.147404
-0.124276
-0.0988296
-0.0777022
-0.0624308
-0.0523648
-0.0478431
-0.048369
-0.0503029
-0.049471
-0.0453881
-0.0408331
-0.0387154
-0.0394087
-0.0437894
-0.0518586
-0.0609307
-0.0776524
-0.0872548
-0.105384
-0.129874
-0.151873
-0.160136
-0.149642
-0.126102
-0.100047
-0.0782775
-0.0624452
-0.0518801
-0.0468497
-0.0468899
-0.0484689
-0.0475076
-0.0435375
-0.0392788
-0.0375515
-0.038711
-0.0436485
-0.0523544
-0.0620426
-0.0772691
-0.0873951
-0.106082
-0.131175
-0.153731
-0.162339
-0.151825
-0.127894
-0.101245
-0.0788433
-0.0624568
-0.051402
-0.0458747
-0.0454412
-0.0466738
-0.0455836
-0.0417167
-0.0377372
-0.0363835
-0.0379976
-0.0434862
-0.0528299
-0.063142
-0.0768091
-0.0874462
-0.106677
-0.132366
-0.155485
-0.16446
-0.153954
-0.129653
-0.102426
-0.0794008
-0.0624671
-0.0509319
-0.0449197
-0.0440243
-0.0449194
-0.0437006
-0.0399268
-0.0362096
-0.0352122
-0.0372684
-0.0433014
-0.0532836
-0.0642267
-0.0762717
-0.0874065
-0.107166
-0.133443
-0.157134
-0.166495
-0.156024
-0.131377
-0.103589
-0.0799509
-0.0624773
-0.050471
-0.0439858
-0.0426405
-0.0432069
-0.04186
-0.0381692
-0.0346969
-0.0340381
-0.0365233
-0.0430934
-0.0537137
-0.0652947
-0.0756567
-0.0872747
-0.107547
-0.134404
-0.158673
-0.168442
-0.158034
-0.133066
-0.104734
-0.0804948
-0.0624888
-0.0500207
-0.0430741
-0.041291
-0.0415377
-0.0400632
-0.0364451
-0.0332002
-0.0328619
-0.0357623
-0.0428612
-0.0541186
-0.066344
-0.0749639
-0.0870499
-0.107817
-0.135246
-0.1601
-0.170299
-0.159982
-0.134718
-0.105862
-0.0810334
-0.0625029
-0.049582
-0.0421858
-0.0399767
-0.0399125
-0.0383112
-0.0347558
-0.0317205
-0.0316843
-0.0349854
-0.0426039
-0.0544966
-0.0673725
-0.0741936
-0.0867314
-0.107977
-0.135968
-0.161412
-0.172061
-0.161866
-0.136333
-0.106972
-0.0815677
-0.0625208
-0.0491562
-0.0413216
-0.0386983
-0.0383324
-0.0366053
-0.0331024
-0.030259
-0.0305062
-0.0341928
-0.0423209
-0.0548462
-0.0683781
-0.0733463
-0.0863189
-0.108024
-0.136567
-0.162607
-0.173728
-0.163683
-0.137909
-0.108065
-0.0820986
-0.0625436
-0.0487442
-0.0404824
-0.0374565
-0.0367979
-0.0349463
-0.0314861
-0.0288167
-0.0293282
-0.0333846
-0.0420115
-0.0551658
-0.0693587
-0.0724229
-0.0858122
-0.107958
-0.137042
-0.163685
-0.175296
-0.165432
-0.139446
-0.109141
-0.0826268
-0.0625725
-0.048347
-0.0396688
-0.0362518
-0.0353096
-0.033335
-0.029908
-0.0273947
-0.0281513
-0.0325611
-0.0416749
-0.0554538
-0.0703124
-0.0714244
-0.0852117
-0.107777
-0.137391
-0.164642
-0.176763
-0.167111
-0.140943
-0.110199
-0.0831532
-0.0626086
-0.0479655
-0.0388814
-0.0350844
-0.0338676
-0.0317721
-0.0283691
-0.0259941
-0.0269763
-0.0317225
-0.0413106
-0.0557087
-0.071237
-0.0703521
-0.084518
-0.107482
-0.137615
-0.165477
-0.178128
-0.168717
-0.142398
-0.111241
-0.0836785
-0.0626528
-0.0476005
-0.0381207
-0.0339544
-0.0324722
-0.030258
-0.0268708
-0.024616
-0.0258042
-0.0308692
-0.0409181
-0.0559292
-0.0721306
-0.0692078
-0.0837318
-0.107074
-0.137713
-0.16619
-0.179389
-0.170249
-0.143811
-0.112265
-0.0842032
-0.0627062
-0.0472529
-0.037387
-0.032862
-0.0311233
-0.0287932
-0.0254133
-0.0232615
-0.0246359
-0.0300015
-0.040497
-0.056114
-0.0729913
-0.0679933
-0.0828544
-0.106551
-0.137684
-0.166781
-0.180544
-0.171705
-0.14518
-0.113271
-0.0847279
-0.0627695
-0.0469232
-0.0366807
-0.0318069
-0.0298206
-0.0273778
-0.0239977
-0.0219315
-0.0234724
-0.02912
-0.0400469
-0.0562616
-0.073817
-0.0667107
-0.0818873
-0.105916
-0.137528
-0.167248
-0.181593
-0.173083
-0.146505
-0.11426
-0.0852532
-0.0628438
-0.0466122
-0.036002
-0.030789
-0.028564
-0.026012
-0.0226697
-0.0206272
-0.0223147
-0.0282252
-0.0395675
-0.0563711
-0.0746059
-0.0653626
-0.0808323
-0.105168
-0.137247
-0.167592
-0.182533
-0.174382
-0.147783
-0.115231
-0.0857794
-0.0629297
-0.0463205
-0.0353511
-0.0298078
-0.0273528
-0.0246955
-0.0213294
-0.0193493
-0.0211638
-0.0273176
-0.0390587
-0.0564412
-0.0753563
-0.0639515
-0.0796913
-0.10431
-0.136841
-0.167813
-0.183365
-0.175599
-0.149014
-0.116183
-0.0863069
-0.0630279
-0.0460487
-0.0347282
-0.0288631
-0.0261864
-0.0234278
-0.0200236
-0.0180995
-0.0200208
-0.0263979
-0.0385203
-0.0564709
-0.0760663
-0.0624804
-0.0784667
-0.103343
-0.13631
-0.167911
-0.184087
-0.176733
-0.150196
-0.117117
-0.0868359
-0.0631391
-0.0457972
-0.0341334
-0.0279541
-0.0250641
-0.0222086
-0.0187652
-0.016879
-0.0188868
-0.0254669
-0.0379524
-0.0564593
-0.0767344
-0.0609525
-0.0771611
-0.102268
-0.135656
-0.167889
-0.1847
-0.177782
-0.151328
-0.118032
-0.0873664
-0.0632637
-0.0455664
-0.0335667
-0.0270805
-0.023985
-0.0210377
-0.0175565
-0.0156886
-0.017763
-0.0245253
-0.037355
-0.0564056
-0.0773588
-0.059371
-0.0757774
-0.101088
-0.134881
-0.167746
-0.185202
-0.178744
-0.152408
-0.118927
-0.0878986
-0.0634023
-0.0453569
-0.0330282
-0.0262416
-0.0229481
-0.0199145
-0.016396
-0.0145294
-0.0166505
-0.023574
-0.0367283
-0.056309
-0.0779381
-0.0577396
-0.0743186
-0.0998046
-0.133986
-0.167484
-0.185594
-0.179618
-0.153435
-0.119801
-0.0884335
-0.0635563
-0.0451698
-0.0325186
-0.0254373
-0.0219528
-0.0188388
-0.0152827
-0.0134023
-0.0155507
-0.0226138
-0.0360726
-0.056169
-0.0784709
-0.056062
-0.0727881
-0.0984209
-0.132973
-0.167104
-0.185874
-0.180401
-0.154406
-0.120657
-0.0889721
-0.0637266
-0.0450056
-0.0320376
-0.0246665
-0.0209975
-0.0178095
-0.014216
-0.0123087
-0.014465
-0.0216459
-0.0353883
-0.0559851
-0.0789558
-0.0543423
-0.0711896
-0.0969396
-0.131845
-0.166608
-0.186045
-0.181093
-0.155324
-0.12149
-0.0895093
-0.0639081
-0.0448601
-0.0315819
-0.023926
-0.0200785
-0.0168233
-0.0131939
-0.0112485
-0.0133942
-0.0206712
-0.0346757
-0.0557567
-0.0793915
-0.052584
-0.0695266
-0.095364
-0.130604
-0.166001
-0.186117
-0.181707
-0.156184
-0.122289
-0.0900315
-0.0640899
-0.0447258
-0.0311469
-0.0232129
-0.0191922
-0.0158756
-0.0122119
-0.0102196
-0.0123378
-0.01969
-0.0339354
-0.0554843
-0.0797785
-0.0507899
-0.0678022
-0.0936973
-0.129255
-0.165289
-0.186085
-0.182227
-0.156966
-0.12305
-0.0905504
-0.0642901
-0.044621
-0.0307483
-0.0225405
-0.0183511
-0.0149783
-0.011278
-0.00922857
-0.0113004
-0.0187045
-0.0331685
-0.055168
-0.0801154
-0.0489761
-0.0660252
-0.0919365
-0.127777
-0.16441
-0.185828
-0.182516
-0.157642
-0.123842
-0.0911699
-0.064607
-0.0446235
-0.0304401
-0.0219467
-0.0175918
-0.0141767
-0.0104414
-0.00831803
-0.0103115
-0.0177307
-0.0323779
-0.0547993
-0.0803807
-0.0471848
-0.0642237
-0.0900725
-0.126105
-0.163245
-0.185247
-0.182505
-0.158322
-0.124778
-0.0919569
-0.065064
-0.0447265
-0.030195
-0.0213901
-0.0168688
-0.0134359
-0.00969479
-0.0074944
-0.00938173
-0.0167775
-0.0315617
-0.0543599
-0.0805453
-0.0452889
-0.0623384
-0.0882242
-0.124601
-0.16257
-0.185522
-0.183321
-0.159316
-0.125538
-0.0923304
-0.0650591
-0.0444113
-0.0296133
-0.0205488
-0.0158442
-0.0123463
-0.00859693
-0.00636107
-0.00821532
-0.0156663
-0.03068
-0.0539538
-0.0808588
-0.0563132
-0.0844782
-0.12495
-0.167392
-0.192886
-0.191499
-0.162977
-0.126536
-0.0917237
-0.0635614
-0.0424902
-0.0274978
-0.0180955
-0.012832
-0.00873328
-0.00447464
-0.00197502
-0.00397366
-0.0119579
-0.0282901
-0.0536998
-0.0831193
-0.0522412
-0.0811893
-0.122402
-0.165037
-0.190349
-0.186338
-0.160577
-0.124037
-0.0891403
-0.0610105
-0.0399891
-0.0249527
-0.0153877
-0.0100206
-0.00605096
-0.00200415
0.000194708
-0.00136585
-0.00954406
-0.0266685
-0.0535056
-0.0846821
-0.0488586
-0.0778305
-0.118426
-0.160961
-0.187194
-0.18455
-0.157975
-0.121163
-0.0862689
-0.0582715
-0.0373746
-0.0223928
-0.0127556
-0.00730389
-0.00339624
0.000578673
0.00277919
0.00106106
-0.00749077
-0.0252893
-0.05314
-0.0856933
-0.0446062
-0.073404
-0.113753
-0.156931
-0.183963
-0.181399
-0.154247
-0.117384
-0.0828059
-0.0552177
-0.0346381
-0.0198346
-0.0102089
-0.00471283
-0.000848297
0.00308131
0.00535092
0.00363348
-0.00518286
-0.0236095
-0.0524898
-0.0865474
-0.0396427
-0.0682427
-0.108662
-0.152161
-0.179183
-0.176544
-0.14926
-0.112748
-0.078817
-0.0518798
-0.0317915
-0.0172861
-0.00775607
-0.00226899
0.00150358
0.00534594
0.00771545
0.0061447
-0.00278928
-0.0217403
-0.0516296
-0.0871589
-0.0344478
-0.0626789
-0.102733
-0.145785
-0.172595
-0.170052
-0.143033
-0.107269
-0.0743125
-0.0482702
-0.0288491
-0.0147598
-0.00540672
2.13903e-05
0.0036615
0.0073995
0.0098615
0.00847328
-0.00049061
-0.0198337
-0.0505536
-0.0872812
-0.0291932
-0.0566248
-0.095599
-0.137736
-0.164273
-0.161936
-0.135576
-0.100983
-0.069332
-0.0444166
-0.0258285
-0.0122676
-0.00316778
0.00215883
0.00564029
0.0092519
0.0117878
0.0105942
0.00166263
-0.0179175
-0.049188
-0.086779
-0.0238084
-0.0499343
-0.0872971
-0.12819
-0.154261
-0.152232
-0.126945
-0.0939539
-0.0639283
-0.0403524
-0.0227484
-0.00982049
-0.00104479
0.00414311
0.00744634
0.0109045
0.0134952
0.0125062
0.00367147
-0.0159704
-0.0474915
-0.0856212
-0.0182264
-0.042651
-0.0780008
-0.117248
-0.142635
-0.141044
-0.117243
-0.0862733
-0.0581697
-0.0361189
-0.0196291
-0.00742856
0.000957596
0.00597247
0.00908409
0.0123634
0.0149849
0.0142041
0.00553172
-0.0139934
-0.0454707
-0.0837868
-0.0124737
-0.0348887
-0.0678116
-0.10502
-0.129562
-0.128553
-0.106625
-0.0780586
-0.0521374
-0.0317639
-0.0164926
-0.00510078
0.00283617
0.00764525
0.0105572
0.0136353
0.0162567
0.0156755
0.00722186
-0.0120153
-0.0431406
-0.0812406
-0.00658989
-0.026706
-0.0568234
-0.0917173
-0.115308
-0.115012
-0.0952894
-0.0694502
-0.0459232
-0.0273406
-0.013362
-0.00284485
0.00458975
0.00916085
0.0118679
0.0147254
0.0173076
0.0169036
0.00871086
-0.0100699
-0.0405089
-0.0779584
-0.000565556
-0.0181387
-0.0452123
-0.0776535
-0.100217
-0.100732
-0.0834727
-0.0606063
-0.0396252
-0.0229054
-0.0102619
-0.000667102
0.00621941
0.0105206
0.0130176
0.0156382
0.0181333
0.0178693
0.0099669
-0.0081873
-0.0375884
-0.0739411
0.00563927
-0.00926122
-0.0332446
-0.0632174
-0.0846889
-0.0860682
-0.0714402
-0.0516959
-0.0333437
-0.0185156
-0.00721736
0.00142741
0.00772872
0.011729
0.0140086
0.0163779
0.0187291
0.0185528
0.0109594
-0.00639873
-0.034406
-0.0692126
0.0120657
-0.000199143
-0.0212616
-0.048855
-0.0691602
-0.0714009
-0.059469
-0.04289
-0.0271762
-0.0142267
-0.0042536
0.0034347
0.00912357
0.012794
0.0148464
0.016951
0.0190939
0.0189358
0.011658
-0.00473974
-0.0309993
-0.0638165
0.0187256
0.00885775
-0.00967654
-0.0350421
-0.0540612
-0.0570986
-0.0478301
-0.0343529
-0.0212129
-0.0100892
-0.00139499
0.00535156
0.0104119
0.013728
0.0155409
0.017368
0.0192335
0.0190053
0.0120344
-0.00324568
-0.0274112
-0.0578145
0.0254995
0.0175966
0.00105222
-0.0221951
-0.0397629
-0.0435011
-0.0367732
-0.0262327
-0.0155322
-0.00614655
0.00133599
0.00717529
0.0116034
0.0145466
0.0161086
0.0176465
0.0191655
0.0187606
0.01207
-0.00194424
-0.0236866
-0.0512839
0.0319934
0.0255429
0.0105217
-0.0105817
-0.0265533
-0.0309006
-0.0265117
-0.0186542
-0.0101986
-0.00243344
0.00391985
0.00890343
0.0127086
0.0152683
0.0165718
0.0178129
0.0189234
0.0182222
0.011766
-0.00084764
-0.0198687
-0.0443186
0.0375898
0.0321782
0.0184998
-0.000323624
-0.0146529
-0.0195271
-0.0172093
-0.0117122
-0.0052601
0.00102523
0.006341
0.0105335
0.0137385
0.0159132
0.0169573
0.0179016
0.018558
0.0174417
0.0111589
5.75538e-05
-0.0159941
-0.0370272
0.0417699
0.0371753
0.0249435
0.00851543
-0.00423861
-0.00954471
-0.00897127
-0.00546685
-0.000747725
0.00421391
0.00858844
0.0120631
0.0147035
0.0165019
0.017295
0.0179527
0.0181337
0.0162968
0.0103354
0.000822829
-0.0120886
-0.0295307
0.0443719
0.04052
0.0299126
0.0158609
0.00455709
-0.00103614
-0.00183716
5.73175e-05
0.00332366
0.00712553
0.010656
0.0134894
0.0156125
0.0170534
0.0176146
0.0180111
0.0177501
0.0153639
0.00945544
0.00154725
-0.00816396
-0.0219658
0.0455869
0.0424259
0.0334993
0.0216653
0.0116984
0.00601352
0.00421689
0.00486867
0.00695353
0.00975999
0.0125422
0.0148104
0.0164722
0.0175834
0.0179418
0.0181187
0.0174946
0.0145723
0.00871344
0.00237549
-0.00421819
-0.0144876
0.0457451
0.0431897
0.0358449
0.0259928
0.0172764
0.0117059
0.00926375
0.00900123
0.0101529
0.0121226
0.0142496
0.0160244
0.0172863
0.0181033
0.0182943
0.0183046
0.0174382
0.0140995
0.00834397
0.0034818
-0.000243846
-0.00726805
0.0451668
0.0431162
0.0371603
0.0290295
0.0214842
0.0162028
0.0134065
0.0125058
0.0129415
0.0142227
0.0157841
0.0171318
0.018056
0.0186199
0.0186819
0.0185817
0.0176132
0.0140909
0.00856901
0.00503523
0.00375678
-0.000491129
0.0441149
0.042477
0.0376897
0.0310245
0.0245607
0.0196881
0.0167595
0.0154417
0.0153448
0.0160721
0.0171537
0.018135
0.0187807
0.0191359
0.019107
0.0189517
0.0180148
0.0146079
0.00952601
0.00715062
0.00775373
0.00565964
0.042786
0.0414857
0.0376588
0.0322241
0.0267379
0.0223384
0.0194349
0.017871
0.0173924
0.017685
0.0183676
0.0190382
0.0194588
0.0196504
0.0195643
0.019403
0.0186064
0.0156122
0.0112289
0.00983406
0.0116764
0.0110238
0.0413158
0.0402943
0.0372478
0.0328356
0.0282168
0.0243114
0.0215371
0.0198551
0.019116
0.0190767
0.0194354
0.0198468
0.0200884
0.0201588
0.0200435
0.0199118
0.0193248
0.0169638
0.0135232
0.0129417
0.0154009
0.0154882
0.0397932
0.0390044
0.0365897
0.033021
0.0291602
0.0257402
0.0231589
0.0214518
0.0205481
0.020264
0.0203668
0.0205667
0.0206683
0.020654
0.0205318
0.0204501
0.0200931
0.018464
0.0160903
0.0161758
0.0187475
0.0190138
0.0382744
0.0376821
0.0357789
0.0329031
0.0296959
0.0267348
0.0243812
0.0227147
0.0217206
0.0212641
0.021171
0.0212032
0.0211978
0.0211277
0.0210146
0.0209911
0.0208471
0.0199163
0.0185457
0.0191598
0.0215187
0.0216384
0.0367941
0.0363688
0.0348806
0.032574
0.0299244
0.0273846
0.0252739
0.0236925
0.0226645
0.0220943
0.0218574
0.021761
0.0216761
0.0215719
0.0214773
0.0215102
0.021544
0.0211845
0.0206329
0.0215886
0.0235809
0.0234611
0.035373
0.0350902
0.0339399
0.0321007
0.029924
0.0277642
0.025897
0.0244288
0.0234088
0.0227721
0.0224349
0.0222441
0.0221027
0.0219793
0.0219067
0.0219873
0.0221533
0.0222046
0.0222174
0.0233296
0.0249303
0.0246204
0.0340229
0.033862
0.0329879
0.031532
0.0297555
0.0279339
0.0263013
0.0249621
0.0239801
0.023314
0.0229126
0.0226564
0.0224766
0.0223439
0.0222922
0.0224069
0.022657
0.0229694
0.0233092
0.0244346
0.0256785
0.0252673
0.03275
0.0326932
0.0320456
0.0309048
0.0294655
0.0279416
0.0265296
0.0253263
0.024403
0.0237356
0.023299
0.0230014
0.0227975
0.0226618
0.0226265
0.0227611
0.0230533
0.02348
0.0239969
0.0250442
0.0259848
0.0255422
0.0315566
0.0315884
0.0311268
0.0302455
0.0290906
0.0278266
0.0266177
0.0255508
0.0246993
0.0240519
0.0236027
0.0232828
0.023066
0.0229305
0.022906
0.0230482
0.023352
0.0238131
0.0243842
0.0253061
0.0259974
0.0255617
0.0304428
0.0305494
0.030241
0.0295734
0.0286582
0.0276197
0.0265953
0.0256609
0.0248888
0.0242763
0.0238318
0.0235045
0.0232832
0.0231497
0.0231303
0.0232696
0.0235626
0.0240101
0.0245611
0.0253389
0.0258289
0.0254154
0.0294073
0.0295764
0.029394
0.0289029
0.0281893
0.0273452
0.0264866
0.0256782
0.0249887
0.0244212
0.0239941
0.0236709
0.0234511
0.0233207
0.0233017
0.0234294
0.0236964
0.0241046
0.0245951
0.0252271
0.0255565
0.0251676
0.0284474
0.0286684
0.0285896
0.0282438
0.0276981
0.0270223
0.0263117
0.0256211
0.0250143
0.0244981
0.0240972
0.0237863
0.0235726
0.0234457
0.0234235
0.0235335
0.0237657
0.0241204
0.0245329
0.0250278
0.0252301
0.0248628
0.0237212
0.0275602
0.0278235
0.0278298
0.0276039
0.0271959
0.0266666
0.0260874
0.0255054
0.0249788
0.0245171
0.0241482
0.0238556
0.0236512
0.023528
0.0235
0.0235888
0.0237818
0.0240766
0.0244069
0.0247787
0.0248806
0.0245303
0.0235593
0.0267425
0.0270395
0.0271153
0.0269884
0.0266978
0.0262913
0.0258273
0.0253441
0.0248939
0.0244874
0.0241538
0.0238835
0.0236906
0.0235712
0.0235361
0.0236017
0.0237519
0.0239883
0.0242397
0.0245041
0.024527
0.0241891
0.0233535
0.0259908
0.026314
0.0264459
0.0264007
0.0262086
0.0259063
0.0255425
0.0251482
0.0247695
0.0244172
0.0241206
0.0238746
0.0236948
0.0235795
0.0235368
0.0235791
0.0236873
0.0238678
0.024047
0.0242198
0.0241805
0.0238512
0.0231222
0.0253015
0.0256443
0.0258211
0.0258427
0.0257327
0.0255189
0.025242
0.0249271
0.0246141
0.0243139
0.0240543
0.0238338
0.023668
0.0235571
0.023507
0.0235271
0.0235979
0.0237248
0.0238398
0.0239356
0.0238472
0.0235238
0.0228784
0.0246708
0.0250276
0.0252399
0.0253154
0.0252736
0.025135
0.0249331
0.0246883
0.0244352
0.024184
0.0239605
0.0237655
0.0236143
0.0235081
0.0234513
0.0234509
0.0234883
0.0235668
0.0236259
0.0236576
0.0235304
0.0232109
0.0226308
0.024095
0.0244609
0.0247008
0.0248201
0.0248342
0.0247589
0.0246214
0.0244383
0.0242391
0.0240332
0.0238442
0.0236742
0.0235376
0.0234363
0.0233738
0.0233551
0.0233631
0.023399
0.0234105
0.0233893
0.0232316
0.0229145
0.0223855
0.0235711
0.0239418
0.0242024
0.0243567
0.0244167
0.0243942
0.0243117
0.0241823
0.0240312
0.0238667
0.0237099
0.0235638
0.0234416
0.0233457
0.0232786
0.023244
0.0232264
0.0232257
0.023197
0.0231327
0.0229509
0.0226355
0.0221465
0.0230973
0.0234684
0.0237436
0.0239251
0.0240221
0.0240437
0.0240077
0.0239248
0.023816
0.0236889
0.0235618
0.0234383
0.0233301
0.0232397
0.0231691
0.023121
0.0230817
0.02305
0.022988
0.0228887
0.0226879
0.0223738
0.0219162
0.0226683
0.0230373
0.0233223
0.0235247
0.0236514
0.0237091
0.0237122
0.0236692
0.0235975
0.0235038
0.0234038
0.0233012
0.0232063
0.0231216
0.0230488
0.0229895
0.022932
0.0228744
0.0227852
0.0226577
0.0224422
0.022129
0.0216961
0.0222814
0.0226458
0.0229368
0.0231546
0.0233047
0.023392
0.0234277
0.0234186
0.0233792
0.0233149
0.0232393
0.0231558
0.0230735
0.0229946
0.0229205
0.0228523
0.0227798
0.0227009
0.0225896
0.0224397
0.0222128
0.0219005
0.0214873
0.0219338
0.0222916
0.0225851
0.0228141
0.0229823
0.0230933
0.023156
0.0231756
0.0231638
0.0231252
0.0230713
0.0230052
0.0229346
0.0228614
0.022787
0.0227118
0.0226273
0.0225312
0.0224022
0.0222346
0.0219989
0.0216878
0.0212902
0.0216227
0.0219724
0.0222657
0.0225021
0.022684
0.0228139
0.0228986
0.0229421
0.0229538
0.0229376
0.0229028
0.0228522
0.0227923
0.0227249
0.0226508
0.0225704
0.0224764
0.0223665
0.0222235
0.0220422
0.0217999
0.02149
0.0211051
0.0213455
0.0216858
0.021977
0.0222176
0.0224096
0.0225542
0.0226567
0.02272
0.0227515
0.0227543
0.0227361
0.0226993
0.0226493
0.0225873
0.0225143
0.0224301
0.0223288
0.0222081
0.0220543
0.0218624
0.0216153
0.0213067
0.0209321
0.0210998
0.02143
0.0217172
0.0219598
0.0221587
0.0223146
0.0224312
0.0225105
0.0225586
0.0225776
0.0225738
0.022549
0.0225078
0.022451
0.0223795
0.0222927
0.0221861
0.0220571
0.0218949
0.021695
0.0214445
0.0211375
0.0207712
0.0208833
0.021203
0.0214851
0.0217276
0.021931
0.0220951
0.0222228
0.0223152
0.0223768
0.0224094
0.0224179
0.0224036
0.0223702
0.0223183
0.0222485
0.0221602
0.0220497
0.0219144
0.021746
0.0215402
0.0212874
0.020982
0.0206227
0.0206938
0.021003
0.0212791
0.0215202
0.0217261
0.0218961
0.0220322
0.0221349
0.0222076
0.0222515
0.0222703
0.0222649
0.0222384
0.022191
0.0221232
0.0220341
0.0219209
0.0217811
0.0216082
0.0213981
0.0211439
0.0208402
0.0204867
0.0205296
0.0208284
0.0210982
0.0213368
0.0215436
0.0217176
0.0218599
0.0219707
0.0220523
0.0221054
0.0221328
0.0221351
0.0221145
0.0220712
0.0220054
0.0219161
0.0218012
0.0216581
0.021482
0.021269
0.021014
0.020712
0.0203635
0.0203889
0.0206778
0.0209411
0.0211766
0.0213832
0.0215597
0.0217066
0.0218236
0.0219122
0.0219727
0.0220072
0.0220158
0.0220003
0.0219605
0.0218967
0.0218077
0.0216918
0.0215465
0.0213682
0.0211532
0.020898
0.0205977
0.0202532
0.0202703
0.02055
0.0208071
0.0210391
0.0212448
0.0214227
0.0215728
0.0216943
0.0217884
0.0218547
0.0218949
0.0219088
0.0218976
0.0218609
0.0217989
0.0217104
0.021594
0.0214473
0.0212677
0.0210514
0.0207963
0.0204976
0.0201565
0.0201725
0.0204441
0.0206954
0.0209239
0.0211283
0.0213068
0.0214589
0.0215839
0.021682
0.0217529
0.0217976
0.0218157
0.021808
0.0217739
0.0217136
0.0216257
0.0215092
0.0213616
0.0211811
0.0209642
0.0207093
0.0204121
0.0200738
0.0200946
0.0203593
0.0206055
0.0208309
0.0210338
0.0212124
0.0213659
0.0214931
0.0215943
0.0216686
0.0217168
0.0217381
0.0217331
0.0217012
0.0216423
0.021555
0.0214386
0.0212906
0.0211096
0.0208924
0.0206379
0.0203419
0.0200059
0.020036
0.0202952
0.0205375
0.0207602
0.0209617
0.0211401
0.0212943
0.0214232
0.0215265
0.0216032
0.0216538
0.0216775
0.0216747
0.0216443
0.0215865
0.0214998
0.0213836
0.0212354
0.0210542
0.0208369
0.0205827
0.0202877
0.0199534
0.0199965
0.0202519
0.0204913
0.0207121
0.0209126
0.0210907
0.0212454
0.0213752
0.0214798
0.0215581
0.0216103
0.0216356
0.0216341
0.0216049
0.0215479
0.0214616
0.0213455
0.0211972
0.021016
0.0207986
0.0205448
0.0202505
0.0199173
0.0199764
0.0202298
0.0204677
0.0206875
0.0208873
0.0210653
0.0212201
0.0213504
0.0214556
0.0215348
0.0215878
0.0216138
0.0216131
0.0215844
0.0215278
0.0214417
0.0213257
0.0211775
0.0209962
0.0207789
0.0205251
0.0202313
0.0198986
0.0172584
0.0176622
0.0180563
0.0184382
0.0188055
0.0191557
0.0194863
0.0197948
0.0200785
0.0203351
0.0205619
0.020757
0.0209182
0.0210443
0.0211333
0.0211855
0.0211995
0.0211769
0.0211169
0.0210223
0.0208924
0.0207303
0.0205348
0.0172757
0.0176815
0.0180774
0.0184611
0.01883
0.0191817
0.0195135
0.0198231
0.0201077
0.0203649
0.0205921
0.0207874
0.0209483
0.0210738
0.0211618
0.0212128
0.0212252
0.0212009
0.0211389
0.0210425
0.0209108
0.0207474
0.0205507
0.0173093
0.017719
0.0181185
0.0185055
0.0188774
0.0192319
0.0195662
0.0198779
0.0201643
0.0204228
0.0206508
0.0208463
0.0210067
0.021131
0.0212172
0.0212656
0.0212749
0.0212472
0.0211814
0.0210814
0.0209464
0.0207802
0.0205812
0.0173585
0.0177739
0.0181785
0.0185702
0.0189465
0.019305
0.0196429
0.0199578
0.0202468
0.0205072
0.0207364
0.0209322
0.0210919
0.0212145
0.0212978
0.0213426
0.0213472
0.0213143
0.0212429
0.0211373
0.0209976
0.0208273
0.0206251
0.0174229
0.0178452
0.0182564
0.0186542
0.0190361
0.0193998
0.0197425
0.0200615
0.0203539
0.020617
0.0208477
0.0210439
0.0212027
0.021323
0.0214026
0.0214423
0.0214407
0.021401
0.021322
0.0212086
0.0210629
0.0208873
0.0206807
0.0175018
0.0179325
0.0183515
0.0187566
0.0191454
0.0195154
0.0198638
0.0201879
0.0204846
0.020751
0.0209838
0.0211805
0.0213382
0.0214556
0.0215303
0.0215637
0.0215542
0.0215059
0.0214176
0.0212929
0.0211411
0.0209586
0.0207465
0.0175951
0.0180353
0.0184631
0.0188766
0.0192732
0.0196506
0.0200059
0.0203361
0.020638
0.0209084
0.0211438
0.0213412
0.0214976
0.0216114
0.0216803
0.0217058
0.0216867
0.021628
0.0215294
0.0214011
0.0212319
0.0210399
0.020821
0.0177024
0.0181529
0.0185906
0.0190133
0.0194189
0.0198047
0.0201678
0.0205052
0.0208132
0.0210884
0.021327
0.0215255
0.0216804
0.0217899
0.0218517
0.0218678
0.0218369
0.0217655
0.021653
0.0215096
0.0213306
0.0211289
0.0209027
0.0178233
0.018285
0.0187331
0.0191661
0.0195814
0.0199766
0.0203488
0.0206944
0.0210097
0.0212906
0.0215332
0.021733
0.0218862
0.0219908
0.0220442
0.0220489
0.022004
0.0219173
0.021788
0.0216289
0.0214366
0.021224
0.0209892
0.0179575
0.0184308
0.0188901
0.0193339
0.0197599
0.0201656
0.0205479
0.0209029
0.0212268
0.0215147
0.021762
0.0219635
0.0221149
0.0222138
0.0222574
0.0222487
0.022187
0.0220823
0.021934
0.0217566
0.0215482
0.0213233
0.0210792
0.0181046
0.0185897
0.0190606
0.0195159
0.0199535
0.0203706
0.0207643
0.0211301
0.0214641
0.0217601
0.0220132
0.022217
0.0223667
0.022459
0.0224911
0.0224666
0.0223852
0.0222592
0.0220884
0.0218906
0.0216637
0.0214249
0.0211707
0.0182638
0.0187608
0.0192437
0.019711
0.0201609
0.0205907
0.020997
0.021375
0.0217205
0.0220266
0.0222868
0.0224937
0.0226417
0.0227266
0.0227453
0.0227022
0.0225975
0.0224467
0.0222498
0.0220288
0.0217809
0.0215267
0.0212616
0.0184344
0.0189433
0.0194382
0.0199181
0.0203811
0.0208246
0.021245
0.0216371
0.0219962
0.0223138
0.0225829
0.0227939
0.0229405
0.023017
0.0230201
0.0229551
0.0228231
0.0226433
0.0224163
0.022169
0.0218975
0.0216265
0.0213499
0.0186155
0.0191359
0.0196429
0.0201357
0.0206127
0.021071
0.0215072
0.0219155
0.0222904
0.0226217
0.0229016
0.0231182
0.0232638
0.0233308
0.0233157
0.023225
0.0230608