/*--------------------------------*- C++ -*----------------------------------*\
  =========                 |
  \\      /  F ield         | OpenFOAM: The Open Source CFD Toolbox
   \\    /   O peration     | Website:  https://openfoam.org
    \\  /    A nd           | Version:  7
     \\/     M anipulation  |
\*---------------------------------------------------------------------------*/
FoamFile
{
    version     2.0;
    format      ascii;
    class       surfaceScalarField;
    location    "140";
    object      phi;
}
// * * * * * * * * * * * * * * * * * * * * * * * * * * * * * * * * * * * * * //

dimensions      [0 3 -1 0 0 0 0];

internalField   nonuniform List<scalar> 
13974
(
-0.00326507
-0.000170915
-0.000151786
-0.0031045
-0.000172072
-0.00317365
-0.0032443
-0.000192844
-0.000151272
-0.00301757
-0.000171903
-0.00308387
-0.000193004
-0.00315254
-0.00322272
-0.000214589
-0.000149464
-0.00293382
-0.000170391
-0.00299665
-0.000191835
-0.00306242
-0.000213752
-0.00313063
-0.00320032
-0.000236147
-0.000146455
-0.00285362
-0.000167594
-0.00291268
-0.000189321
-0.00297492
-0.000211577
-0.00304017
-0.00023431
-0.00310789
-0.00317712
-0.000257513
-0.000121727
-0.00272448
-0.000142346
-0.00277701
-0.000163618
-0.00283234
-0.000185533
-0.00289076
-0.000208058
-0.0029524
-0.000231126
-0.0030171
-0.000254674
-0.00308435
-0.00315311
-0.000278684
-0.000116508
-0.00265431
-0.000137211
-0.00270377
-0.000158568
-0.00275566
-0.000180591
-0.00281032
-0.000203278
-0.00286807
-0.000226597
-0.00292908
-0.000250476
-0.00299322
-0.000274839
-0.00305998
-0.00312829
-0.000299654
-0.000110318
-0.0025867
-0.000131091
-0.00263354
-0.000152516
-0.00268235
-0.000174604
-0.00273357
-0.000197371
-0.00278755
-0.000220824
-0.00284462
-0.000244933
-0.00290497
-0.000269623
-0.00296853
-0.000294801
-0.00303481
-0.00310267
-0.000320421
-0.000103189
-0.00252111
-0.000124011
-0.00256588
-0.0001455
-0.00261205
-0.000167641
-0.00266021
-0.000190452
-0.00271076
-0.000213956
-0.00276405
-0.000238167
-0.00282041
-0.000263061
-0.00288007
-0.00028856
-0.00294303
-0.000314555
-0.00300881
-0.00307625
-0.000340979
-9.51715e-05
-0.00245678
-0.000116
-0.00250028
-0.000137536
-0.00254434
-0.000159733
-0.00258985
-0.000182584
-0.00263736
-0.00020611
-0.00268723
-0.000230342
-0.00273982
-0.000255304
-0.00279545
-0.000280977
-0.0028544
-0.000307282
-0.00291673
-0.000334096
-0.002982
-0.00304902
-0.000361324
-8.63501e-05
-0.00239255
-0.000107102
-0.00243602
-0.000128647
-0.00247874
-0.000150891
-0.0025221
-0.00017379
-0.00256695
-0.000197343
-0.0026138
-0.000221576
-0.002663
-0.000246528
-0.00271487
-0.00027223
-0.00276975
-0.000298674
-0.00282796
-0.000325783
-0.00288962
-0.000353416
-0.00295436
-0.00302099
-0.00038145
-7.68515e-05
-0.00232671
-9.73954e-05
-0.00237201
-0.000118875
-0.00241454
-0.000141131
-0.00245648
-0.000164074
-0.00249916
-0.000187668
-0.00254336
-0.000211917
-0.00258955
-0.000236849
-0.00263807
-0.00026251
-0.0026892
-0.000288942
-0.00274331
-0.000316149
-0.00280075
-0.000344056
-0.00286171
-0.000372511
-0.00292591
-0.00299215
-0.000401352
-8.70012e-05
-0.00230657
-0.000108292
-0.00235072
-0.000130492
-0.00239235
-0.000153449
-0.00243352
-0.000177085
-0.00247552
-0.000201368
-0.00251908
-0.000226305
-0.00256462
-0.000251927
-0.00261244
-0.000278287
-0.00266284
-0.000305437
-0.00271616
-0.000333395
-0.00277279
-0.000362095
-0.00283301
-0.000391372
-0.00289663
-0.00296249
-0.000421025
-7.60914e-05
-0.00223723
-9.70126e-05
-0.00228565
-0.00011904
-0.00232869
-0.000141949
-0.00236944
-0.000165601
-0.00240987
-0.000189923
-0.0024512
-0.000214889
-0.00249411
-0.000240506
-0.002539
-0.000266811
-0.00258614
-0.000293858
-0.0026358
-0.000321713
-0.00268831
-0.000350408
-0.0027441
-0.000379893
-0.00280353
-0.000409993
-0.00286653
-0.00293203
-0.00044046
-6.48971e-05
-0.00216053
-8.52013e-05
-0.00221692
-0.000106884
-0.00226396
-0.000129636
-0.00230594
-0.000153246
-0.00234583
-0.000177585
-0.00238553
-0.000202586
-0.0024262
-0.000228228
-0.00246847
-0.00025452
-0.00251271
-0.000281498
-0.00255916
-0.000309223
-0.00260807
-0.000337768
-0.00265977
-0.000367185
-0.00271468
-0.000397442
-0.00277327
-0.000428365
-0.00283561
-0.00290074
-0.000459652
-5.3708e-05
-0.00207191
-7.30825e-05
-0.00214115
-9.41827e-05
-0.00219582
-0.000116614
-0.00224153
-0.00014008
-0.00228247
-0.000164382
-0.00232152
-0.000189401
-0.00236051
-0.000215075
-0.00240052
-0.000241386
-0.00244216
-0.000268346
-0.00248575
-0.00029599
-0.00253152
-0.000324381
-0.00257968
-0.000353601
-0.00263055
-0.000383722
-0.00268456
-0.000414737
-0.00274225
-0.00044648
-0.00280386
-0.00286863
-0.000478593
-4.2862e-05
-0.00196571
-6.09408e-05
-0.00205383
-8.11532e-05
-0.00212094
-0.000103034
-0.00217394
-0.000126201
-0.00221837
-0.000150371
-0.0022583
-0.000175356
-0.00229654
-0.000201046
-0.00233482
-0.000227387
-0.00237418
-0.000254362
-0.00241518
-0.000281983
-0.00245813
-0.000310287
-0.00250321
-0.000339334
-0.00255063
-0.000369214
-0.00260067
-0.000400018
-0.00265375
-0.000431772
-0.0027105
-0.00046433
-0.00277131
-0.00283568
-0.000497274
-3.27212e-05
-0.00183544
-4.91122e-05
-0.00194932
-6.80744e-05
-0.00203487
-8.91073e-05
-0.00209991
-0.000111754
-0.00215129
-0.000135644
-0.00219448
-0.000160507
-0.00223344
-0.000186167
-0.00227088
-0.000212521
-0.00230847
-0.000239522
-0.00234718
-0.000267155
-0.00238755
-0.000295432
-0.00242985
-0.000324389
-0.00247426
-0.000354083
-0.00252094
-0.000384608
-0.00257014
-0.000416073
-0.00262229
-0.000448542
-0.00267803
-0.000481905
-0.00273794
-0.0028019
-0.00051569
-3.79634e-05
-0.00182111
-5.528e-05
-0.001932
-7.51066e-05
-0.00201504
-9.69431e-05
-0.00207807
-0.000120341
-0.0021279
-0.000144941
-0.00216987
-0.000170488
-0.00220789
-0.000196813
-0.00224455
-0.000223825
-0.00228146
-0.000251478
-0.00231953
-0.000279764
-0.00235926
-0.000308693
-0.00240092
-0.000338296
-0.00244465
-0.00036863
-0.0024906
-0.000399788
-0.00253898
-0.000431892
-0.00259018
-0.000465046
-0.00264488
-0.000499202
-0.00270379
-0.00276726
-0.000533835
-2.78578e-05
-0.00166226
-4.31406e-05
-0.00180583
-6.13632e-05
-0.00191378
-8.20355e-05
-0.00199437
-0.000104659
-0.00205545
-0.000128793
-0.00210376
-0.000154093
-0.00214458
-0.000180312
-0.00218167
-0.000207295
-0.00221757
-0.000234956
-0.0022538
-0.000263256
-0.00229123
-0.000292188
-0.00233033
-0.000321763
-0.00237134
-0.00035201
-0.00241441
-0.000382979
-0.00245964
-0.000414759
-0.0025072
-0.000447479
-0.00255746
-0.000481287
-0.00261107
-0.000516215
-0.00266886
-0.00273178
-0.000551703
-1.91142e-05
-0.00146607
-3.20316e-05
-0.00164934
-4.82504e-05
-0.00178961
-6.73595e-05
-0.00189467
-8.88593e-05
-0.00197287
-0.000112253
-0.00203206
-0.00013711
-0.00207891
-0.000163096
-0.00211859
-0.000189978
-0.00215479
-0.00021761
-0.00218994
-0.000245912
-0.00222549
-0.000274853
-0.00226229
-0.000304425
-0.00230076
-0.000334643
-0.00234113
-0.00036553
-0.00238352
-0.000397132
-0.00242803
-0.000429527
-0.00247481
-0.000462846
-0.00252414
-0.000497273
-0.00257664
-0.000532947
-0.00263319
-0.00269542
-0.0005693
-2.22948e-05
-0.00145574
-3.61552e-05
-0.00163548
-5.32906e-05
-0.00177247
-7.3267e-05
-0.00187469
-9.55763e-05
-0.00195056
-0.000119725
-0.00200791
-0.000145291
-0.00205334
-0.000171952
-0.00209193
-0.000199486
-0.00212726
-0.000227757
-0.00216167
-0.000256694
-0.00219656
-0.000286267
-0.00223272
-0.000316475
-0.00227055
-0.00034733
-0.00231027
-0.000378856
-0.00235199
-0.000411091
-0.0023958
-0.000444101
-0.0024418
-0.000478006
-0.00249024
-0.000513021
-0.00254163
-0.000549414
-0.00259679
-0.00265818
-0.000586655
-1.41963e-05
-0.00121916
-2.54408e-05
-0.00144449
-4.02262e-05
-0.0016207
-5.82593e-05
-0.00175444
-7.90838e-05
-0.00185387
-0.000102185
-0.00192746
-0.000127072
-0.00198302
-0.000153333
-0.00202708
-0.000180657
-0.0020646
-0.000208834
-0.00209908
-0.000237736
-0.00213276
-0.000267299
-0.00216699
-0.000297499
-0.00220252
-0.000328335
-0.00223971
-0.000359823
-0.00227878
-0.000391986
-0.00231983
-0.000424855
-0.00236293
-0.000458485
-0.00240817
-0.000492975
-0.00245575
-0.000528555
-0.00250605
-0.000565642
-0.00255971
-0.00262002
-0.000603807
-7.89719e-06
-0.000935487
-1.64076e-05
-0.00121065
-2.85502e-05
-0.00143235
-4.42428e-05
-0.001605
-6.31543e-05
-0.00173553
-8.48084e-05
-0.00183221
-0.000108684
-0.00190358
-0.000134294
-0.00195741
-0.000161237
-0.00200014
-0.000189213
-0.00203663
-0.000218022
-0.00207027
-0.000247546
-0.00210324
-0.000277727
-0.00213681
-0.000308544
-0.0021717
-0.000340003
-0.00220826
-0.000372119
-0.00224667
-0.000404915
-0.00228703
-0.000438423
-0.00232942
-0.000472683
-0.00237391
-0.000507771
-0.00242066
-0.000543914
-0.0024699
-0.000581646
-0.00252197
-0.00258091
-0.000620757
-9.26362e-06
-0.000929672
-1.85961e-05
-0.00120132
-3.16213e-05
-0.00141932
-4.8203e-05
-0.00158842
-6.79741e-05
-0.00171576
-9.04391e-05
-0.00180975
-0.000115072
-0.00187895
-0.00014139
-0.00193109
-0.000169001
-0.00197252
-0.000197617
-0.00200801
-0.000227048
-0.00204084
-0.000257185
-0.0020731
-0.000287975
-0.00210602
-0.000319403
-0.00214027
-0.000351476
-0.00217618
-0.000384213
-0.00221393
-0.00041764
-0.00225361
-0.000451788
-0.00229527
-0.000486692
-0.00233901
-0.000522413
-0.00238494
-0.000559159
-0.00243316
-0.000597429
-0.0024837
-0.00254063
-0.000637705
-4.11798e-06
-0.000599504
-1.06179e-05
-0.000923172
-2.07601e-05
-0.00119118
-3.46521e-05
-0.00140543
-5.2105e-05
-0.00157097
-7.27169e-05
-0.00169514
-9.59746e-05
-0.00178649
-0.000121348
-0.00185358
-0.000148359
-0.00190408
-0.000176625
-0.00194426
-0.000205869
-0.00197877
-0.000235912
-0.0020108
-0.000266652
-0.00204236
-0.000298042
-0.00207463
-0.000330072
-0.00210824
-0.000362751
-0.0021435
-0.000396102
-0.00218058
-0.000430153
-0.00221956
-0.000464939
-0.00226049
-0.000500499
-0.00230345
-0.000536898
-0.00234854
-0.000574344
-0.00239571
-0.000613404
-0.00244464
-0.00249986
-0.000654176
-4.78042e-06
-0.000595733
-1.19553e-05
-0.000915997
-2.28941e-05
-0.00118024
-3.76366e-05
-0.00139069
-5.59423e-05
-0.00155266
-7.73762e-05
-0.00167371
-0.000101408
-0.00176246
-0.000127505
-0.00182748
-0.000155194
-0.00187639
-0.000184103
-0.00191535
-0.000213964
-0.00194891
-0.000244608
-0.00198015
-0.000275942
-0.00201103
-0.000307923
-0.00204265
-0.000340545
-0.00207562
-0.000373822
-0.00211023
-0.000407776
-0.00214663
-0.000442442
-0.00218489
-0.000477857
-0.00222507
-0.00051407
-0.00226723
-0.000551174
-0.00231144
-0.000589266
-0.00235762
-0.000627944
-0.00240596
-0.00245765
-0.000670155
-1.19887e-06
-0.000219311
-5.43979e-06
-0.000591492
-1.32818e-05
-0.000908155
-2.50052e-05
-0.00116852
-4.05825e-05
-0.00137511
-5.97233e-05
-0.00153352
-8.19607e-05
-0.00165147
-0.000106749
-0.00173767
-0.000133553
-0.00180068
-0.000161906
-0.00184804
-0.000191443
-0.00188581
-0.00022191
-0.00191844
-0.000253145
-0.00194892
-0.000285062
-0.00197911
-0.000317625
-0.00201009
-0.00035083
-0.00204241
-0.000384694
-0.00207636
-0.000419241
-0.00211208
-0.000454508
-0.00214962
-0.000490536
-0.00218905
-0.000527381
-0.00223039
-0.000565131
-0.00227369
-0.000603851
-0.0023189
-0.000643562
-0.00236625
-0.00241578
-0.000685428
-1.38653e-06
-0.000217925
-6.09292e-06
-0.000586786
-1.4593e-05
-0.000899655
-2.70878e-05
-0.00115602
-4.34837e-05
-0.00135872
-6.34415e-05
-0.00151357
-8.6464e-05
-0.00162845
-0.000111992
-0.00171214
-0.000139486
-0.00177318
-0.000168487
-0.00181904
-0.000198641
-0.00185566
-0.000229702
-0.00188738
-0.000261518
-0.0019171
-0.000294008
-0.00194662
-0.000327143
-0.00197696
-0.000360921
-0.00200863
-0.000395361
-0.00204192
-0.00043049
-0.00207695
-0.000466345
-0.00211377
-0.000502968
-0.00215242
-0.000540416
-0.00219294
-0.000578764
-0.00223534
-0.000618075
-0.00227959
-0.000658465
-0.00232586
-0.00237384
-0.00070041
-1.57266e-06
-0.000216352
-6.73933e-06
-0.000581619
-1.58881e-05
-0.000890506
-2.91408e-05
-0.00114277
-4.63387e-05
-0.00134152
-6.70956e-05
-0.00149281
-9.08849e-05
-0.00160466
-0.000117134
-0.00168589
-0.000145303
-0.00174501
-0.000174939
-0.0017894
-0.000205696
-0.0018249
-0.000237339
-0.00185574
-0.000269725
-0.00188472
-0.000302779
-0.00191357
-0.000336475
-0.00194326
-0.000370816
-0.00197429
-0.000405821
-0.00200692
-0.00044152
-0.00204125
-0.000477949
-0.00207734
-0.000515151
-0.00211522
-0.000553178
-0.00215491
-0.000592096
-0.00219642
-0.000631962
-0.00223972
-0.000672892
-0.00228493
-0.00233164
-0.000715085
-1.75713e-06
-0.000214595
-7.37855e-06
-0.000575997
-1.7166e-05
-0.000880719
-3.11629e-05
-0.00112877
-4.91465e-05
-0.00132354
-7.06844e-05
-0.00147127
-9.52224e-05
-0.00158012
-0.000122176
-0.00165894
-0.000151004
-0.00171618
-0.00018126
-0.00175915
-0.000212607
-0.00179355
-0.000244821
-0.00182352
-0.000277765
-0.00185177
-0.000311372
-0.00187996
-0.00034562
-0.00190901
-0.000380513
-0.0019394
-0.000416074
-0.00197136
-0.000452331
-0.00200499
-0.000489321
-0.00204035
-0.000527086
-0.00207746
-0.000565674
-0.00211633
-0.000605141
-0.00215695
-0.00064554
-0.00219933
-0.000686959
-0.00224351
-0.00228912
-0.000729484
-1.93981e-06
-0.000212655
-8.01011e-06
-0.000569927
-1.84262e-05
-0.000870303
-3.31532e-05
-0.00111405
-5.19058e-05
-0.00130478
-7.42067e-05
-0.00144897
-9.94753e-05
-0.00155485
-0.000127116
-0.0016313
-0.000156587
-0.00168671
-0.000187449
-0.00172828
-0.000219374
-0.00176163
-0.000252147
-0.00179075
-0.00028564
-0.00181828
-0.000319789
-0.00184581
-0.000354578
-0.00187422
-0.000390013
-0.00190397
-0.000426117
-0.00193525
-0.000462921
-0.00196819
-0.000500459
-0.00200281
-0.000538773
-0.00203914
-0.000577907
-0.00207719
-0.000617908
-0.00211695
-0.000658824
-0.00215841
-0.000700717
-0.00220162
-0.00224621
-0.000743625
-2.12056e-06
-0.000210535
-8.63354e-06
-0.000563414
-1.96676e-05
-0.000859268
-3.51106e-05
-0.0010986
-5.46154e-05
-0.00128528
-7.76615e-05
-0.00142592
-0.000103643
-0.00152887
-0.000131953
-0.00160299
-0.000162052
-0.00165661
-0.000193506
-0.00169683
-0.000225997
-0.00172914
-0.000259317
-0.00175743
-0.000293347
-0.00178425
-0.000328029
-0.00181113
-0.000363348
-0.0018389
-0.000399315
-0.001868
-0.000435952
-0.00189862
-0.00047329
-0.00193085
-0.000511364
-0.00196474
-0.000550214
-0.00200029
-0.00058988
-0.00203753
-0.000630404
-0.00207643
-0.000671826
-0.00211699
-0.000714192
-0.00215926
-0.00220289
-0.000757518
-2.29922e-06
-0.000208235
-9.24838e-06
-0.000556465
-2.08896e-05
-0.000847627
-3.70342e-05
-0.00108246
-5.72743e-05
-0.00126504
-8.10477e-05
-0.00140215
-0.000107724
-0.0015022
-0.000136688
-0.00157403
-0.000167399
-0.0016259
-0.000199431
-0.0016648
-0.000232474
-0.00169609
-0.000266331
-0.00172357
-0.000300886
-0.0017497
-0.00033609
-0.00177593
-0.00037193
-0.00180306
-0.000408417
-0.00183151
-0.000445576
-0.00186146
-0.000483437
-0.00189299
-0.000522036
-0.00192614
-0.00056141
-0.00196092
-0.000601596
-0.00199734
-0.000642632
-0.00203539
-0.000684553
-0.00207507
-0.000727394
-0.00211641
-0.00215912
-0.000771164
-2.47566e-06
-0.00020576
-9.8542e-06
-0.000549087
-2.20914e-05
-0.00083539
-3.8923e-05
-0.00106563
-5.98816e-05
-0.00124408
-8.43645e-05
-0.00137767
-0.000111718
-0.00147484
-0.000141318
-0.00154443
-0.000172627
-0.00159459
-0.000205223
-0.0016322
-0.000238806
-0.00166251
-0.000273187
-0.00168919
-0.000308258
-0.00171463
-0.000343973
-0.00174021
-0.000380322
-0.00176671
-0.000417319
-0.00179451
-0.000454989
-0.00182379
-0.000493363
-0.00185461
-0.000532476
-0.00188702
-0.000572361
-0.00192103
-0.000613057
-0.00195665
-0.000654596
-0.00199385
-0.00069701
-0.00203265
-0.000740328
-0.0020731
-0.00211489
-0.000784559
-2.64973e-06
-0.00020311
-1.04506e-05
-0.000541286
-2.32724e-05
-0.000822568
-4.07761e-05
-0.00104812
-6.24364e-05
-0.00122242
-8.76111e-05
-0.00135249
-0.000115625
-0.00144683
-0.000145845
-0.00151421
-0.000177735
-0.0015627
-0.000210882
-0.00159906
-0.000244993
-0.0016284
-0.000279887
-0.0016543
-0.000315462
-0.00167905
-0.000351677
-0.001704
-0.000388525
-0.00172987
-0.000426022
-0.00175702
-0.000464192
-0.00178562
-0.000503068
-0.00181574
-0.000542682
-0.00184741
-0.000583069
-0.00188065
-0.000624264
-0.00191545
-0.000666299
-0.00195182
-0.000709201
-0.00198975
-0.000752998
-0.0020293
-0.00207018
-0.000797699
-2.82128e-06
-0.000200289
-1.10371e-05
-0.00053307
-2.44319e-05
-0.000809173
-4.25928e-05
-0.00102996
-6.49378e-05
-0.00120007
-9.07865e-05
-0.00132664
-0.000119443
-0.00141817
-0.000150267
-0.00148338
-0.000182724
-0.00153024
-0.000216407
-0.00156537
-0.000251034
-0.00159377
-0.000286429
-0.0016189
-0.000322497
-0.00164298
-0.000359202
-0.00166729
-0.000396539
-0.00169253
-0.000434524
-0.00171903
-0.000473184
-0.00174696
-0.000512551
-0.00177637
-0.000552656
-0.00180731
-0.000593535
-0.00183977
-0.00063522
-0.00187377
-0.000677742
-0.00190929
-0.000721128
-0.00194636
-0.000765403
-0.00198502
-0.00202501
-0.00081058
-2.99017e-06
-0.000197298
-1.16134e-05
-0.000524447
-2.55693e-05
-0.000795217
-4.43723e-05
-0.00101116
-6.7385e-05
-0.00117706
-9.38902e-05
-0.00130014
-0.000123172
-0.00138889
-0.000154584
-0.00145197
-0.000187593
-0.00149724
-0.0002218
-0.00153117
-0.000256929
-0.00155864
-0.000292813
-0.00158302
-0.000329364
-0.00160643
-0.000366547
-0.00163011
-0.000404362
-0.00165471
-0.000442825
-0.00168057
-0.000481965
-0.00170782
-0.000521811
-0.00173653
-0.000562398
-0.00176672
-0.000603758
-0.00179841
-0.000645924
-0.0018316
-0.000688926
-0.00186629
-0.00073279
-0.0019025
-0.000777541
-0.00194027
-0.00197935
-3.15628e-06
-0.000194142
-1.21791e-05
-0.000515424
-2.6684e-05
-0.000780712
-4.61139e-05
-0.000991729
-6.97773e-05
-0.0011534
-9.69214e-05
-0.00127299
-0.000126811
-0.001359
-0.000158795
-0.00141999
-0.000192342
-0.00146369
-0.000227058
-0.00149645
-0.000262678
-0.00152302
-0.00029904
-0.00154666
-0.000336062
-0.00156941
-0.000373713
-0.00159246
-0.000411995
-0.00161643
-0.000450926
-0.00164164
-0.000490534
-0.00166821
-0.00053085
-0.00169621
-0.000571908
-0.00172566
-0.00061374
-0.00175658
-0.000656378
-0.00178896
-0.000699851
-0.00182282
-0.000744187
-0.00185816
-0.000789412
-0.00189505
-0.00193322
-3.31949e-06
-0.000190823
-1.27338e-05
-0.00050601
-2.77754e-05
-0.000765671
-4.78169e-05
-0.000971687
-7.21139e-05
-0.0011291
-9.98796e-05
-0.00124523
-0.000130361
-0.00132852
-0.0001629
-0.00138745
-0.00019697
-0.00142962
-0.000232183
-0.00146124
-0.00026828
-0.00148692
-0.000305109
-0.00150983
-0.000342591
-0.00153193
-0.000380699
-0.00155435
-0.000419437
-0.0015777
-0.000458825
-0.00160225
-0.000498891
-0.00162814
-0.000539667
-0.00165543
-0.000581185
-0.00168414
-0.000623479
-0.00171428
-0.00066658
-0.00174586
-0.000710517
-0.00177888
-0.000755319
-0.00181336
-0.000801013
-0.00184935
-0.00188662
-3.47966e-06
-0.000187343
-1.32772e-05
-0.000496212
-2.88431e-05
-0.000750105
-4.94807e-05
-0.00095105
-7.43944e-05
-0.00110419
-0.000102764
-0.00121686
-0.00013382
-0.00129746
-0.000166899
-0.00135437
-0.000201477
-0.00139504
-0.000237173
-0.00142554
-0.000273736
-0.00145036
-0.00031102
-0.00147255
-0.00034895
-0.001494
-0.000387505
-0.0015158
-0.000426689
-0.00153851
-0.000466523
-0.00156242
-0.000507036
-0.00158763
-0.000548261
-0.00161421
-0.00059023
-0.00164217
-0.000632975
-0.00167154
-0.00067653
-0.00170231
-0.000720924
-0.00173449
-0.000766184
-0.0017681
-0.000812341
-0.0018032
-3.63668e-06
-0.000183706
-1.3809e-05
-0.00048604
-2.98864e-05
-0.000734028
-5.11046e-05
-0.000929832
-7.6618e-05
-0.00107867
-0.000105574
-0.0011879
-0.000137188
-0.00126585
-0.000170791
-0.00132076
-0.000205863
-0.00135997
-0.000242029
-0.00138938
-0.000279046
-0.00141334
-0.000316772
-0.00143482
-0.00035514
-0.00145563
-0.00039413
-0.00147681
-0.000433749
-0.00149889
-0.000474018
-0.00152215
-0.000514969
-0.00154668
-0.000556632
-0.00157255
-0.000599041
-0.00159976
-0.000642229
-0.00162835
-0.000686228
-0.00165831
-0.000731069
-0.00168965
-0.00077678
-0.00172239
-0.00175659
-3.79045e-06
-0.000179916
-1.4329e-05
-0.000475501
-3.09051e-05
-0.000717451
-5.26882e-05
-0.000908048
-7.87842e-05
-0.00105258
-0.00010831
-0.00115838
-0.000140465
-0.0012337
-0.000174577
-0.00128665
-0.000210128
-0.00132442
-0.000246751
-0.00135275
-0.000284209
-0.00137589
-0.000322366
-0.00139666
-0.000361161
-0.00141683
-0.000400575
-0.00143739
-0.000440617
-0.00145885
-0.000481312
-0.00148145
-0.000522688
-0.0015053
-0.000564779
-0.00153046
-0.000607618
-0.00155693
-0.000651239
-0.00158473
-0.000695673
-0.00161387
-0.000740952
-0.00164437
-0.000787106
-0.00167624
-0.00170952
-3.94085e-06
-0.000175975
-1.48367e-05
-0.000464605
-3.18985e-05
-0.00070039
-5.42309e-05
-0.000885716
-8.08924e-05
-0.00102592
-0.000110971
-0.0011283
-0.00014365
-0.00120102
-0.000178255
-0.00125205
-0.000214272
-0.0012884
-0.000251338
-0.00131569
-0.000289225
-0.001338
-0.000327802
-0.00135808
-0.000367012
-0.00137762
-0.000406839
-0.00139756
-0.000447294
-0.00141839
-0.000488403
-0.00144034
-0.000530195
-0.00146351
-0.000572703
-0.00148795
-0.000615961
-0.00151367
-0.000660004
-0.00154069
-0.000704863
-0.00156901
-0.000750572
-0.00159866
-0.00079716
-0.00162965
-4.08779e-06
-0.000171887
-1.53319e-05
-0.000453361
-3.28662e-05
-0.000682855
-5.57321e-05
-0.00086285
-8.29423e-05
-0.000998707
-0.000113556
-0.00109768
-0.000146743
-0.00116783
-0.000181827
-0.00121696
-0.000218294
-0.00125193
-0.000255791
-0.00127819
-0.000294094
-0.0012997
-0.000333079
-0.0013191
-0.000372692
-0.00133801
-0.000412921
-0.00135734
-0.000453779
-0.00137754
-0.000495291
-0.00139883
-0.000537487
-0.00142132
-0.000580402
-0.00144503
-0.00062407
-0.00147
-0.000668524
-0.00149623
-0.000713798
-0.00152374
-0.000759926
-0.00155253
-0.00158264
-4.23116e-06
-0.000167656
-1.58144e-05
-0.000441778
-3.3808e-05
-0.000664862
-5.71915e-05
-0.000839467
-8.49333e-05
-0.000970965
-0.000116065
-0.00106655
-0.000149744
-0.00113415
-0.00018529
-0.00118142
-0.000222195
-0.00121503
-0.000260109
-0.00124028
-0.000298816
-0.00126099
-0.000338197
-0.00127972
-0.000378203
-0.00129801
-0.000418823
-0.00131672
-0.000460071
-0.00133629
-0.000501975
-0.00135693
-0.000544565
-0.00137873
-0.000587876
-0.00140172
-0.000631942
-0.00142593
-0.000676798
-0.00145138
-0.000722477
-0.00147806
-0.000769014
-0.00150599
-0.00153521
-4.37088e-06
-0.000163285
-1.6284e-05
-0.000429865
-3.47234e-05
-0.000646422
-5.86086e-05
-0.000815581
-8.6865e-05
-0.000942708
-0.000118498
-0.00103492
-0.000152653
-0.0011
-0.000188646
-0.00114542
-0.000225974
-0.0011777
-0.000264292
-0.00120196
-0.000303391
-0.00122189
-0.000343157
-0.00123995
-0.000383543
-0.00125762
-0.000424542
-0.00127572
-0.000466171
-0.00129466
-0.000508455
-0.00131464
-0.000551428
-0.00133575
-0.000595124
-0.00135803
-0.000639577
-0.00138148
-0.000684824
-0.00140613
-0.000730898
-0.00143199
-0.000777834
-0.00145906
-0.00148738
-4.50684e-06
-0.000158778
-1.67402e-05
-0.000417631
-3.56119e-05
-0.000627551
-5.99829e-05
-0.00079121
-8.87369e-05
-0.000913954
-0.000120854
-0.0010028
-0.000155469
-0.00106538
-0.000191895
-0.001109
-0.000229631
-0.00113997
-0.00026834
-0.00116325
-0.000307818
-0.00118241
-0.000347957
-0.00119981
-0.000388712
-0.00121686
-0.00043008
-0.00123435
-0.000472077
-0.00125266
-0.000514731
-0.00127199
-0.000558076
-0.00129241
-0.000602145
-0.00131396
-0.000646976
-0.00133665
-0.000692602
-0.0013605
-0.00073906
-0.00138553
-0.000786384
-0.00141173
-4.63897e-06
-0.000154139
-1.71831e-05
-0.000405087
-3.64734e-05
-0.00060826
-6.13141e-05
-0.00076637
-9.05488e-05
-0.00088472
-0.000123134
-0.000970217
-0.000158192
-0.00103032
-0.000195035
-0.00107216
-0.000233166
-0.00110184
-0.000272253
-0.00112416
-0.000312098
-0.00114257
-0.000352597
-0.00115931
-0.00039371
-0.00117575
-0.000435435
-0.00119262
-0.000477789
-0.00121031
-0.000520802
-0.00122898
-0.000564507
-0.0012487
-0.000608939
-0.00126952
-0.000654135
-0.00129145
-0.00070013
-0.00131451
-0.000746961
-0.0013387
-0.00136403
-4.76719e-06
-0.000149372
-1.76123e-05
-0.000392242
-3.73075e-05
-0.000588565
-6.26018e-05
-0.000741075
-9.23002e-05
-0.000855021
-0.000125336
-0.000937181
-0.000160821
-0.000994839
-0.000198067
-0.00103491
-0.000236579
-0.00106332
-0.000276032
-0.00108471
-0.000316231
-0.00110237
-0.000357079
-0.00111847
-0.000398538
-0.00113429
-0.000440607
-0.00115055
-0.000483307
-0.00116761
-0.000526667
-0.00118562
-0.000570722
-0.00120465
-0.000615505
-0.00122474
-0.000661055
-0.0012459
-0.000707408
-0.00126816
-0.0007546
-0.0012915
-0.00131596
-4.89141e-06
-0.000144481
-1.80275e-05
-0.000379106
-3.81137e-05
-0.000568479
-6.38456e-05
-0.000715343
-9.39909e-05
-0.000824876
-0.000127461
-0.000903711
-0.000163357
-0.000958942
-0.000200991
-0.000997277
-0.00023987
-0.00102444
-0.000279674
-0.0010449
-0.000320216
-0.00106183
-0.000361401
-0.00107728
-0.000403194
-0.0010925
-0.000445597
-0.00110815
-0.000488631
-0.00112457
-0.000532327
-0.00114192
-0.000576719
-0.00116026
-0.000621842
-0.00117962
-0.000667735
-0.00120001
-0.000714434
-0.00122146
-0.000761976
-0.00124396
-0.00126754
-5.01156e-06
-0.000139469
-1.84288e-05
-0.000365689
-3.8892e-05
-0.000548016
-6.50453e-05
-0.00068919
-9.56205e-05
-0.000794301
-0.000129508
-0.000869824
-0.0001658
-0.00092265
-0.000203806
-0.000959271
-0.000243038
-0.000985212
-0.000283182
-0.00100476
-0.000324054
-0.00102095
-0.000365563
-0.00103577
-0.000407678
-0.00105038
-0.000450403
-0.00106543
-0.00049376
-0.00108122
-0.00053778
-0.0010979
-0.000582498
-0.00111554
-0.00062795
-0.00113416
-0.000674174
-0.00115379
-0.000721207
-0.00117442
-0.000769088
-0.00119608
-5.12756e-06
-0.000134342
-1.88157e-05
-0.000352001
-3.96419e-05
-0.000527189
-6.62005e-05
-0.000662632
-9.71887e-05
-0.000763313
-0.000131477
-0.000835536
-0.000168149
-0.000885978
-0.000206513
-0.000920907
-0.000246085
-0.00094564
-0.000286554
-0.00096429
-0.000327743
-0.000979766
-0.000369565
-0.00099395
-0.000411991
-0.00100796
-0.000455026
-0.00102239
-0.000498694
-0.00103755
-0.000543026
-0.00105357
-0.000588058
-0.00107051
-0.000633827
-0.0010884
-0.00068037
-0.00110724
-0.000727726
-0.00112707
-0.00114787
-5.23936e-06
-0.000129102
-1.91883e-05
-0.000338052
-4.03633e-05
-0.000506014
-6.73108e-05
-0.000635684
-9.86952e-05
-0.000731928
-0.000133368
-0.000800864
-0.000170404
-0.000848942
-0.000209111
-0.0008822
-0.000249008
-0.000905742
-0.000289791
-0.000923507
-0.000331285
-0.000938272
-0.000373407
-0.000951828
-0.000416131
-0.000965233
-0.000459465
-0.000979057
-0.000503432
-0.000993582
-0.000548065
-0.00100894
-0.000593399
-0.00102517
-0.000639473
-0.00104232
-0.000686324
-0.00106039
-0.000733991
-0.0010794
-0.00109935
-5.34688e-06
-0.000123755
-1.95462e-05
-0.000323852
-4.10559e-05
-0.000484505
-6.83761e-05
-0.000608364
-0.00010014
-0.000700165
-0.00013518
-0.000765824
-0.000172564
-0.000811558
-0.0002116
-0.000843164
-0.000251809
-0.000865533
-0.000292892
-0.000882425
-0.000334678
-0.000896486
-0.000377088
-0.000909418
-0.000420099
-0.000922222
-0.000463719
-0.000935437
-0.000507974
-0.000949328
-0.000552895
-0.000964015
-0.00059852
-0.000979549
-0.000644886
-0.000995955
-0.000692033
-0.00101325
-0.000739999
-0.00103143
-0.00105053
-5.45006e-06
-0.000118305
-1.98894e-05
-0.000309413
-4.17194e-05
-0.000462675
-6.93961e-05
-0.000580687
-0.000101522
-0.000668038
-0.000136914
-0.000730432
-0.000174631
-0.00077384
-0.00021398
-0.000803814
-0.000254488
-0.000825025
-0.000295857
-0.000841056
-0.000337923
-0.00085442
-0.000380609
-0.000866732
-0.000423895
-0.000878937
-0.000467789
-0.000891543
-0.000512319
-0.000904799
-0.000557517
-0.000918817
-0.00060342
-0.000933646
-0.000650067
-0.000949308
-0.000697497
-0.000965817
-0.00074575
-0.000983182
-0.00100141
-5.54884e-06
-0.000112757
-2.02176e-05
-0.000294744
-4.23536e-05
-0.000440539
-7.03705e-05
-0.00055267
-0.000102842
-0.000635566
-0.000138568
-0.000694706
-0.000176603
-0.000735806
-0.000216252
-0.000764165
-0.000257044
-0.000784233
-0.000298687
-0.000799412
-0.00034102
-0.000812087
-0.00038397
-0.000823782
-0.000427518
-0.000835389
-0.000471674
-0.000847386
-0.000516467
-0.000860006
-0.00056193
-0.000873354
-0.000608099
-0.000887476
-0.000655015
-0.000902392
-0.000702716
-0.000918116
-0.000751242
-0.000934656
-5.64317e-06
-0.000107113
-2.05308e-05
-0.000279857
-4.29583e-05
-0.000418111
-7.12991e-05
-0.000524329
-0.0001041
-0.000602766
-0.000140144
-0.000658662
-0.00017848
-0.00069747
-0.000218414
-0.000724232
-0.000259477
-0.00074317
-0.000301381
-0.000757509
-0.000343968
-0.000769499
-0.000387169
-0.00078058
-0.000430967
-0.000791591
-0.000475374
-0.000802979
-0.000520418
-0.000814962
-0.000566133
-0.000827639
-0.000612557
-0.000841052
-0.000659728
-0.00085522
-0.000707688
-0.000870156
-0.000885868
-5.73299e-06
-0.00010138
-2.08288e-05
-0.000264761
-4.35333e-05
-0.000395407
-7.21817e-05
-0.000495681
-0.000105295
-0.000569653
-0.000141641
-0.000622315
-0.000180263
-0.000658848
-0.000220467
-0.000684028
-0.000261787
-0.00070185
-0.000303938
-0.000715357
-0.000346768
-0.00072667
-0.000390208
-0.00073714
-0.000434244
-0.000747555
-0.000478889
-0.000758334
-0.000524171
-0.00076968
-0.000570126
-0.000781684
-0.000616791
-0.000794386
-0.000664207
-0.000807805
-0.000712413
-0.00082195
-0.000836831
-5.81826e-06
-9.55621e-05
-2.11115e-05
-0.000249468
-4.40785e-05
-0.00037244
-7.3018e-05
-0.000466741
-0.000106426
-0.000536245
-0.000143059
-0.000585683
-0.000181952
-0.000619955
-0.000222411
-0.000643569
-0.000263974
-0.000660287
-0.00030636
-0.000672971
-0.000349419
-0.000683611
-0.000393085
-0.000693473
-0.000437347
-0.000703294
-0.000482217
-0.000713464
-0.000527726
-0.000724171
-0.000573908
-0.000735502
-0.000620803
-0.000747492
-0.00066845
-0.000760158
-0.000716889
-0.000773511
-0.000787559
-5.89893e-06
-8.96632e-05
-2.13787e-05
-0.000233988
-4.45937e-05
-0.000349225
-7.38079e-05
-0.000437527
-0.000107495
-0.000502558
-0.000144397
-0.000548781
-0.000183545
-0.000580806
-0.000224245
-0.000602868
-0.000266038
-0.000618495
-0.000308645
-0.000630364
-0.000351921
-0.000640336
-0.000395801
-0.000649593
-0.000440276
-0.00065882
-0.000485359
-0.00066838
-0.000531082
-0.000678448
-0.00057748
-0.000689104
-0.000624592
-0.00070038
-0.000672457
-0.000712293
-0.000721117
-0.000724851
-0.000738063
-5.97494e-06
-8.36883e-05
-2.16304e-05
-0.000218332
-4.50786e-05
-0.000325777
-7.45512e-05
-0.000408054
-0.0001085
-0.000468609
-0.000145655
-0.000511626
-0.000185043
-0.000541418
-0.00022597