/*--------------------------------*- C++ -*----------------------------------*\
  =========                 |
  \\      /  F ield         | OpenFOAM: The Open Source CFD Toolbox
   \\    /   O peration     | Website:  https://openfoam.org
    \\  /    A nd           | Version:  7
     \\/     M anipulation  |
\*---------------------------------------------------------------------------*/
FoamFile
{
    version     2.0;
    format      ascii;
    class       volVectorField;
    location    "140";
    object      U;
}
// * * * * * * * * * * * * * * * * * * * * * * * * * * * * * * * * * * * * * //

dimensions      [0 1 -1 0 0 0 0];

internalField   nonuniform List<vector> 
7156
(
(1.13538 0.348682 9.08942e-21)
(1.13559 0.375462 -4.80845e-20)
(1.13222 0.362554 -3.84633e-20)
(1.12839 0.350841 -4.94899e-20)
(1.13114 0.391528 1.26216e-20)
(1.12792 0.377806 5.85256e-20)
(1.12486 0.36472 -1.07818e-21)
(1.1213 0.35286 -1.86304e-20)
(1.12639 0.408383 2.63938e-20)
(1.12301 0.393922 4.39276e-20)
(1.12012 0.37999 6.6903e-20)
(1.11738 0.366732 1.97212e-20)
(1.11411 0.354734 1.1869e-21)
(1.12146 0.426187 -2.2194e-20)
(1.11779 0.410833 1.27288e-20)
(1.11474 0.396144 -5.4902e-20)
(1.1122 0.382007 -5.74908e-20)
(1.10979 0.368585 1.06902e-20)
(1.10682 0.356456 2.87379e-20)
(1.12104 0.461926 1.36514e-20)
(1.11641 0.444984 2.82995e-22)
(1.1124 0.428699 1.49287e-20)
(1.10906 0.413099 1.95104e-20)
(1.10634 0.398187 -4.98113e-21)
(1.10414 0.383853 -1.02793e-20)
(1.10209 0.370274 -2.92005e-20)
(1.09943 0.358023 4.68816e-21)
(1.11595 0.482661 2.17755e-20)
(1.11114 0.46479 -3.15576e-20)
(1.10686 0.447562 7.10622e-21)
(1.10319 0.431014 3.0046e-20)
(1.10019 0.415174 -3.37706e-20)
(1.09781 0.400046 2.36075e-20)
(1.09597 0.38552 1.26586e-20)
(1.09428 0.371793 1.01075e-20)
(1.09195 0.35943 -5.74255e-21)
(1.11035 0.504377 -9.00621e-20)
(1.10551 0.485605 8.00972e-22)
(1.10108 0.46743 -4.74399e-20)
(1.09716 0.449925 -8.93603e-21)
(1.09385 0.433124 -3.6655e-20)
(1.09118 0.417052 8.08904e-21)
(1.08915 0.401715 1.02759e-20)
(1.08768 0.387005 2.54015e-20)
(1.08636 0.373137 -2.51806e-21)
(1.08438 0.360672 -3.55259e-21)
(1.10397 0.526992 -7.93106e-20)
(1.09934 0.507405 3.21629e-20)
(1.0949 0.488305 -1.7444e-20)
(1.09086 0.469838 8.13683e-20)
(1.08733 0.452069 -3.5742e-20)
(1.08437 0.435024 2.3755e-20)
(1.08205 0.418729 -8.71447e-21)
(1.08037 0.40319 2.64058e-21)
(1.07927 0.388302 -2.40009e-20)
(1.07834 0.374301 -2.17031e-21)
(1.07672 0.361743 -6.4611e-22)
(1.09645 0.55032 -9.08294e-20)
(1.09236 0.530112 1.99006e-20)
(1.08815 0.510164 4.76774e-20)
(1.08413 0.490753 4.68878e-20)
(1.0805 0.472008 -4.41803e-20)
(1.07735 0.453985 3.48732e-20)
(1.07477 0.436708 -4.39163e-20)
(1.0728 0.420198 3.18198e-20)
(1.07147 0.404464 -1.8102e-20)
(1.07076 0.389406 9.70185e-21)
(1.07022 0.375279 -2.23108e-21)
(1.06897 0.362639 -1.20239e-20)
(1.08727 0.573998 4.43081e-20)
(1.08425 0.55355 2.684e-20)
(1.08056 0.532937 3.66505e-20)
(1.07678 0.512648 -3.50786e-21)
(1.07321 0.49294 -2.90802e-20)
(1.07 0.473931 -2.50846e-20)
(1.06725 0.455669 -1.34057e-20)
(1.06504 0.43817 4.84827e-21)
(1.06343 0.421456 -2.98948e-21)
(1.06246 0.405534 9.35735e-22)
(1.06213 0.390312 -5.80295e-21)
(1.06199 0.376068 -4.47905e-21)
(1.06114 0.363356 2.91793e-20)
(1.0756 0.597383 3.92905e-20)
(1.07448 0.577371 -1.27392e-19)
(1.07183 0.556457 7.59069e-20)
(1.06858 0.53546 -5.29448e-20)
(1.06526 0.514848 -4.3758e-20)
(1.06214 0.49486 1.6503e-20)
(1.05937 0.475602 2.80896e-20)
(1.05704 0.457113 3.10254e-20)
(1.05521 0.439405 -1.50766e-20)
(1.05396 0.422496 -6.2897e-21)
(1.05334 0.406396 2.00131e-21)
(1.05339 0.391016 1.38156e-20)
(1.05367 0.376661 -1.78173e-21)
(1.05323 0.363889 -5.31934e-21)
(1.06228 0.600947 4.20709e-20)
(1.06146 0.580386 9.56672e-20)
(1.05922 0.559031 4.1093e-20)
(1.05643 0.537674 1.73713e-20)
(1.05358 0.516758 1.9993e-20)
(1.05094 0.496506 -4.87654e-21)
(1.04862 0.477014 -9.99104e-22)
(1.04671 0.458313 -2.54245e-20)
(1.04527 0.440408 7.25923e-21)
(1.04438 0.423316 -6.71212e-21)
(1.04412 0.407045 -6.17591e-21)
(1.04455 0.391514 -1.91227e-20)
(1.04525 0.377055 6.56844e-21)
(1.04524 0.364233 -3.2133e-20)
(1.04649 0.623252 2.78317e-20)
(1.0487 0.604116 5.02014e-20)
(1.04822 0.583037 -4.88926e-20)
(1.04642 0.561267 -3.8549e-20)
(1.04411 0.53957 3.05096e-20)
(1.04176 0.518369 -2.92488e-20)
(1.0396 0.497871 8.2478e-21)
(1.03775 0.478161 -6.38113e-21)
(1.03628 0.459262 -8.05442e-22)
(1.03524 0.441174 -4.24245e-21)
(1.03472 0.42391 -5.48613e-21)
(1.03481 0.407478 2.08916e-20)
(1.03562 0.391804 1.40902e-20)
(1.03673 0.377245 -3.13403e-20)
(1.03717 0.364383 -2.01795e-21)
(1.0255 0.642713 5.94541e-21)
(1.03245 0.626636 -3.3447e-20)
(1.03488 0.606883 -3.12406e-20)
(1.03478 0.585315 -3.16668e-20)
(1.03344 0.563155 1.26227e-20)
(1.03164 0.541141 -9.62624e-21)
(1.02981 0.519675 3.24414e-20)
(1.02815 0.498949 -6.3491e-21)
(1.02678 0.479037 -1.90095e-21)
(1.02575 0.459954 1.05187e-22)
(1.02512 0.441698 8.36664e-21)
(1.02498 0.424275 -1.7513e-20)
(1.02542 0.407691 2.09416e-20)
(1.02659 0.391881 -1.71629e-20)
(1.02812 0.377228 2.86104e-20)
(1.02902 0.364335 9.31531e-21)
(0.997077 0.657077 -1.28439e-19)
(1.01112 0.646389 -4.47561e-20)
(1.01813 0.629578 -2.43627e-21)
(1.02084 0.60924 1.26864e-21)
(1.02115 0.587212 -4.21273e-20)
(1.02031 0.564689 6.56742e-22)
(1.01903 0.542381 6.81158e-21)
(1.01773 0.520669 -5.43119e-21)
(1.01659 0.499732 5.23009e-21)
(1.01572 0.479635 -2.23555e-21)
(1.01515 0.460385 -7.34073e-21)
(1.01493 0.441975 -4.53418e-21)
(1.01516 0.424406 6.03078e-20)
(1.01595 0.407682 -7.33808e-20)
(1.01748 0.391743 1.17181e-20)
(1.01942 0.377001 4.39632e-20)
(1.02079 0.364082 3.75987e-22)
(0.958441 0.66332 -1.63873e-19)
(0.98258 0.661126 -6.13431e-20)
(0.996448 0.649579 5.57852e-21)
(1.00357 0.632069 8.49201e-20)
(1.00659 0.61118 -5.20674e-21)
(1.00735 0.588723 2.11229e-20)
(1.00702 0.565862 -8.20961e-21)
(1.00629 0.543282 -1.19361e-20)
(1.00554 0.521346 -2.2951e-21)
(1.00493 0.500216 5.02218e-21)
(1.00456 0.479949 -1.91936e-20)
(1.00446 0.460549 2.71905e-20)
(1.00468 0.442 -6.55149e-21)
(1.00529 0.424299 4.82237e-21)
(1.00643 0.407448 4.07802e-20)
(1.0083 0.391389 1.74445e-21)
(1.01062 0.376559 -2.32179e-21)
(1.01249 0.363619 1.18841e-20)
(0.906261 0.657626 -2.26283e-20)
(0.944084 0.667806 1.93526e-20)
(0.96774 0.664645 1.8094e-19)
(0.98149 0.652276 -1.11493e-20)
(0.988774 0.634103 -4.53684e-20)
(0.992154 0.612696 1.15995e-20)
(0.99339 0.589839 -1.55416e-21)
(0.9936 0.566667 2.22335e-20)
(0.993435 0.543839 -1.0053e-20)
(0.99324 0.521697 3.23573e-21)
(0.993181 0.500393 9.10171e-21)
(0.993327 0.479975 1.95689e-20)
(0.993711 0.460439 -3.1809e-20)
(0.994371 0.441768 1.37583e-20)
(0.99537 0.423951 -8.34892e-20)
(0.996848 0.406985 4.62173e-20)
(0.999051 0.390817 -2.27267e-20)
(1.00175 0.375901 -4.36035e-20)
(1.00411 0.362939 -7.72706e-20)
(0.892367 0.662573 1.90624e-20)
(0.929342 0.671724 1.56482e-19)
(0.952582 0.667628 -1.07622e-19)
(0.966273 0.654471 1.75053e-20)
(0.973767 0.635671 3.70632e-21)
(0.97754 0.613781 2.62189e-20)
(0.979282 0.590555 -4.89645e-21)
(0.980054 0.567098 6.65029e-21)
(0.98047 0.544045 1.63184e-21)
(0.980851 0.521719 4.86323e-21)
(0.981348 0.500259 -7.14377e-21)
(0.982023 0.479706 4.76156e-21)
(0.982903 0.460052 1.01077e-19)
(0.984015 0.441273 -4.14035e-20)
(0.985414 0.423357 5.59355e-20)
(0.987237 0.40629 -1.03116e-19)
(0.989752 0.390024 7.18065e-21)
(0.992792 0.375022 -9.09315e-21)
(0.995666 0.362033 8.49145e-20)
(0.823803 0.640852 -1.20571e-19)
(0.878049 0.666923 -7.30658e-20)
(0.914243 0.675066 -9.40159e-20)
(0.93713 0.670065 -2.79391e-20)
(0.950817 0.656158 2.43809e-20)
(0.958566 0.636768 2.89814e-20)
(0.962769 0.614429 -1.96913e-20)
(0.965043 0.590865 -1.31304e-21)
(0.966397 0.567151 9.84924e-22)
(0.967409 0.543896 -1.13979e-20)
(0.968378 0.521406 2.12317e-20)
(0.969443 0.499808 1.09751e-20)
(0.970659 0.479137 -2.88675e-20)
(0.972046 0.459381 -1.40396e-20)
(0.973624 0.440512 -4.43334e-20)
(0.975434 0.422511 6.85156e-21)
(0.977606 0.405359 1.40141e-19)
(0.980418 0.38901 2.56064e-20)
(0.983769 0.373921 -3.07347e-20)
(0.987154 0.360888 -1.1472e-20)
(0.734697 0.597583 -4.54473e-21)
(0.810294 0.645596 -6.61661e-20)
(0.863337 0.670667 5.34881e-20)
(0.898812 0.677823 6.17291e-20)
(0.921407 0.671951 2.49152e-20)
(0.935143 0.657332 1.75126e-20)
(0.94319 0.637389 -2.36589e-20)
(0.947856 0.614634 -5.76221e-21)
(0.950687 0.590763 3.19965e-21)
(0.952642 0.566818 -6.16022e-21)
(0.954264 0.543385 5.70569e-21)
(0.955832 0.520752 -7.17902e-21)
(0.957475 0.499036 5.73046e-21)
(0.959242 0.478264 5.20075e-20)
(0.961148 0.458421 -2.34094e-20)
(0.963205 0.439477 -2.53746e-20)
(0.965441 0.421408 8.57496e-20)
(0.967973 0.404187 -1.14651e-20)
(0.97107 0.387772 -4.89199e-20)
(0.974692 0.372593 9.22394e-20)
(0.978585 0.359487 3.85639e-20)
(0.722428 0.602572 -6.97862e-20)
(0.79636 0.649719 9.49959e-20)
(0.848257 0.673794 -7.32585e-20)
(0.883077 0.679988 -5.73553e-20)
(0.905438 0.673279 1.57897e-20)
(0.919273 0.657985 -1.50817e-20)
(0.927659 0.637527 7.28458e-21)
(0.932818 0.614393 -2.59993e-21)
(0.936229 0.590244 1.96776e-21)
(0.938801 0.566095 9.12783e-21)
(0.941046 0.542508 -1.70891e-20)
(0.943224 0.519753 3.47183e-20)
(0.945455 0.497938 -5.45188e-20)
(0.947781 0.477082 1.70148e-20)
(0.950216 0.457168 -6.11651e-20)
(0.952765 0.438165 7.17022e-20)
(0.955445 0.420042 -2.27197e-20)
(0.958354 0.402768 6.76843e-20)
(0.96173 0.386305 9.75149e-20)
(0.965577 0.371029 -5.12565e-20)
(0.969967 0.357799 -9.81769e-20)
(0.611092 0.532513 2.61797e-20)
(0.709723 0.606952 1.95462e-20)
(0.782032 0.653211 -1.08794e-19)
(0.832839 0.676298 1.21509e-19)
(0.867063 0.681554 3.12901e-20)
(0.889247 0.674043 1.2581e-20)
(0.903229 0.658113 -1.02891e-20)
(0.911991 0.637178 1.33823e-22)
(0.917671 0.613699 6.01912e-21)
(0.921683 0.589304 -5.57911e-21)
(0.924888 0.564979 -3.3492e-20)
(0.927767 0.541261 -1.12363e-20)
(0.930565 0.518405 -6.11901e-20)
(0.933391 0.496509 3.29535e-20)
(0.936285 0.475588 -1.72355e-19)
(0.939257 0.455619 6.48702e-20)
(0.94231 0.436569 -9.72555e-20)
(0.945453 0.418406 -1.35594e-19)
(0.948762 0.401094 -1.10029e-19)
(0.952419 0.384604 -1.01609e-19)
(0.956445 0.369218 3.87616e-20)
(0.961326 0.355783 3.19897e-20)
(0.473585 0.430327 1.70369e-20)
(0.600113 0.53689 1.09666e-20)
(0.696609 0.610709 1.98237e-21)
(0.767337 0.656063 -2.68677e-21)
(0.81711 0.67817 -1.34922e-20)
(0.850797 0.682516 -5.57318e-21)
(0.872857 0.674239 -1.43948e-20)
(0.88703 0.657712 3.2549e-22)
(0.896204 0.636338 5.17284e-21)
(0.902432 0.612549 4.44765e-21)
(0.907064 0.587939 1.82173e-20)
(0.910916 0.563465 8.73346e-20)
(0.91444 0.53964 2.67195e-20)
(0.917866 0.516705 3.5618e-20)
(0.921293 0.494747 -6.39863e-21)
(0.924761 0.473777 9.55423e-20)
(0.928279 0.453768 -4.64632e-20)
(0.931845 0.434686 1.15237e-19)
(0.935468 0.416494 -4.879e-20)
(0.939206 0.399157 1.30488e-20)
(0.943154 0.382661 8.77166e-20)
(0.947332 0.36715 -5.65954e-20)
(0.952761 0.353395 1.5302e-20)
(0.464876 0.434288 3.67963e-20)
(0.588739 0.540689 1.72345e-20)
(0.683116 0.613836 3.21912e-20)
(0.752304 0.658266 -1.24683e-20)
(0.801099 0.679404 7.94612e-22)
(0.834305 0.682867 1.95868e-21)
(0.856292 0.673861 6.24982e-21)
(0.8707 0.656777 6.6622e-22)
(0.880318 0.635002 -4.27568e-21)
(0.887118 0.610938 1.91361e-20)
(0.892387 0.586145 9.91299e-21)
(0.896898 0.561549 -7.51565e-20)
(0.901077 0.537641 -4.29397e-20)
(0.905137 0.514649 3.2635e-20)
(0.909172 0.49265 -8.54029e-20)
(0.913219 0.471647 9.51487e-21)
(0.917286 0.451614 1.06512e-19)
(0.921375 0.432512 5.58538e-20)
(0.925493 0.414299 -2.39441e-20)
(0.929684 0.396946 -1.7109e-19)
(0.933941 0.380454 9.74907e-20)
(0.938315 0.364793 9.75752e-20)
(0.944422 0.350629 -1.03772e-19)
(0.302343 0.294532 -1.34823e-20)
(0.455821 0.437759 -1.49026e-20)
(0.576994 0.5439 -1.75357e-21)
(0.669271 0.616321 -3.68127e-20)
(0.736963 0.659814 4.63776e-20)
(0.784832 0.679995 -1.89021e-20)
(0.817612 0.682603 -5.86355e-21)
(0.839576 0.672906 -1.47051e-20)
(0.854258 0.655306 -3.69154e-20)
(0.864351 0.633169 4.3298e-20)
(0.871745 0.608865 -3.98886e-20)
(0.877667 0.58392 -1.22509e-20)
(0.882849 0.559229 2.49673e-20)
(0.88769 0.535263 1.03014e-19)
(0.89239 0.512235 -5.03508e-20)
(0.897038 0.490214 5.69291e-20)
(0.901667 0.469197 -3.87449e-20)
(0.906287 0.449155 -4.90727e-20)
(0.910901 0.430046 -8.80625e-20)
(0.915523 0.411821 1.50017e-19)
(0.920178 0.394454 2.1415e-19)
(0.924775 0.377954 -1.76878e-19)
(0.929492 0.362059 -1.59089e-19)
(0.936316 0.347372 7.62504e-20)
(0.296257 0.297163 8.86562e-21)
(0.44644 0.44073 -9.79503e-21)
(0.564906 0.546512 2.97275e-21)
(0.655103 0.618157 -1.6625e-21)
(0.721342 0.660699 3.33304e-23)
(0.76834 0.679937 3.32888e-23)
(0.800746 0.681721 3.64895e-21)
(0.822732 0.671372 -2.25604e-21)
(0.837726 0.653295 -2.26418e-21)
(0.848321 0.630835 -2.78436e-20)
(0.85633 0.606327 2.70151e-20)
(0.86292 0.58126 3.68002e-20)
(0.868781 0.556502 -6.30163e-20)
(0.874291 0.532503 -7.46168e-20)
(0.879637 0.509461 6.4598e-20)
(0.8849 0.487438 1.41226e-20)
(0.890114 0.466426 4.28255e-20)
(0.895288 0.446392 3.95432e-20)
(0.900428 0.427289 -3.38175e-20)
(0.905553 0.409064 -1.95587e-19)
(0.910667 0.391687 -1.68834e-19)
(0.915647 0.375171 -6.78367e-20)
(0.920956 0.358926 1.98075e-19)
(0.927849 0.342513 1.04433e-19)
(0.110026 0.114689 -1.45852e-20)
(0.289932 0.299438 1.8526e-20)
(0.436755 0.443192 -1.66631e-20)
(0.552501 0.548517 4.07789e-21)
(0.640641 0.619337 -3.11519e-21)
(0.705471 0.660917 -9.59913e-21)
(0.751648 0.679226 5.59845e-21)
(0.783732 0.680219 -1.38071e-20)
(0.805784 0.669256 4.76218e-20)
(0.821124 0.650743 4.46529e-20)
(0.832249 0.627999 -5.44056e-20)
(0.840891 0.60332 -3.94893e-20)
(0.848159 0.578163 -1.60573e-20)
(0.854709 0.553366 7.2087e-20)
(0.860894 0.529359 8.80415e-20)
(0.866889 0.506326 -4.3142e-20)
(0.872771 0.484321 -1.19021e-21)
(0.878571 0.463334 6.4672e-20)
(0.8843 0.443325 4.2062e-20)
(0.889963 0.424246 1.06563e-19)
(0.895582 0.406037 2.95458e-20)
(0.901147 0.388667 1.5476e-19)
(0.906558 0.372148 1.50532e-19)
(0.912466 0.355887 -1.31383e-19)
(0.919465 0.339516 -8.32063e-20)
(0.107629 0.115669 1.01443e-21)
(0.283383 0.30135 3.21235e-21)
(0.426788 0.445135 -7.39324e-22)
(0.539805 0.549907 2.60039e-22)
(0.625913 0.619854 -2.59194e-22)
(0.689379 0.660462 1.62947e-20)
(0.734786 0.67786 4.54621e-21)
(0.766596 0.678093 1.87631e-20)
(0.788756 0.666556 -1.97852e-20)
(0.804475 0.647648 2.29208e-20)
(0.816152 0.624658 1.51451e-20)
(0.825442 0.599844 7.52405e-20)
(0.833401 0.574628 -2.30636e-20)
(0.840647 0.54982 -2.01225e-19)
(0.847511 0.525829 7.87569e-20)
(0.854158 0.502828 -2.10866e-20)
(0.86066 0.480863 6.66319e-20)
(0.867048 0.459919 -1.62603e-19)
(0.873331 0.439954 -1.50665e-19)
(0.879516 0.420918 -1.12347e-19)
(0.885623 0.402747 -1.26064e-21)
(0.89163 0.385408 -5.24623e-20)
(0.897454 0.368903 1.0571e-19)
(0.90377 0.352644 -1.11159e-19)
(0.910783 0.336313 -5.94173e-20)
(0.105137 0.116502 4.11309e-21)
(0.276627 0.302891 -3.87157e-21)
(0.416562 0.446551 2.92763e-21)
(0.526846 0.550675 -3.54956e-21)
(0.610949 0.619703 1.5508e-20)
(0.673094 0.659331 -4.92125e-20)
(0.717781 0.675836 3.42434e-20)
(0.749362 0.675342 4.54499e-20)
(0.77167 0.663272 -1.94587e-20)
(0.787798 0.644009 -7.27652e-20)
(0.800048 0.620812 9.17562e-20)
(0.810003 0.595899 -1.40404e-19)
(0.818662 0.570655 3.83961e-20)
(0.826608 0.545863 4.33004e-20)
(0.834155 0.521913 -2.17613e-19)
(0.841456 0.498967 4.84613e-20)
(0.84858 0.477063 -1.39325e-19)
(0.855556 0.456182 2.87199e-19)
(0.862393 0.436282 -8.55055e-20)
(0.869099 0.417307 3.8238e-19)
(0.87569 0.399195 1.7743e-20)
(0.882138 0.381911 -5.62253e-20)
(0.888373 0.365452 -1.79205e-19)
(0.895045 0.349245 1.1541e-19)
(0.902163 0.333052 3.17341e-20)
(0.102557 0.117185 1.535e-21)
(0.269679 0.304055 1.79123e-20)
(0.406099 0.447435 4.70374e-22)
(0.513651 0.550815 5.83311e-21)
(0.595778 0.618879 -1.9913e-20)
(0.656646 0.657522 5.68546e-20)
(0.70066 0.673153 -5.48473e-20)
(0.732058 0.671967 -1.88105e-21)
(0.754549 0.659402 3.17221e-20)
(0.771114 0.639826 -4.38951e-20)
(0.783958 0.61646 -3.71043e-21)
(0.794589 0.591482 1.71357e-19)
(0.803955 0.566241 -6.8419e-20)
(0.812607 0.541493 1.91704e-20)
(0.82084 0.51761 1.80838e-19)
(0.828797 0.494742 3.90531e-21)
(0.836543 0.472921 -2.58619e-20)
(0.844106 0.452124 -2.69722e-21)
(0.851496 0.432307 1.31243e-19)
(0.858721 0.413415 -2.81481e-19)
(0.865795 0.395382 1.26105e-20)
(0.872686 0.378177 4.79707e-20)
(0.879334 0.36179 8.0958e-20)
(0.886357 0.345673 1.61123e-19)
(0.893656 0.329672 -9.90533e-20)
(0.0998964 0.117715 -1.57762e-20)
(0.262555 0.304837 -2.19193e-21)
(0.395424 0.44778 -2.67996e-20)
(0.500246 0.550322 6.74073e-21)
(0.580428 0.617381 -1.33418e-20)
(0.640063 0.655033 -4.87087e-20)
(0.683451 0.66981 -4.56615e-20)
(0.714708 0.667966 -1.15255e-19)
(0.737417 0.654948 1.45467e-20)
(0.754443 0.6351 -1.38419e-20)
(0.767898 0.611603 -1.57317e-20)
(0.779217 0.586595 -9.89459e-20)
(0.789297 0.561388 2.41454e-20)
(0.798658 0.536712 1.0888e-19)
(0.807578 0.512921 -2.03759e-19)
(0.816191 0.490153 3.81785e-20)
(0.82456 0.468436 6.55401e-20)
(0.83271 0.447745 1.27446e-19)
(0.840653 0.428031 8.15416e-20)
(0.848396 0.409241 5.18871e-20)
(0.855952 0.391309 -3.17496e-20)
(0.863288 0.374203 1.77519e-19)
(0.87035 0.357911 7.87527e-20)
(0.87773 0.341914 -2.14464e-19)
(0.88526 0.326126 -7.60231e-20)
(0.0971607 0.11809 -4.48333e-21)
(0.255273 0.305231 -3.69859e-20)
(0.384559 0.447581 2.94667e-20)
(0.48666 0.549193 -5.9645e-20)
(0.564929 0.615205 2.41813e-20)
(0.623375 0.651863 1.24232e-19)
(0.666182 0.665808 1.09657e-19)
(0.697337 0.663341 -4.97676e-20)
(0.720296 0.64991 -9.19854e-20)
(0.737807 0.629831 1.82708e-21)
(0.751889 0.606241 -2.40514e-20)
(0.763903 0.581238 1.96528e-20)
(0.774702 0.556096 -1.27808e-19)
(0.784775 0.531519 -5.56666e-20)
(0.794383 0.507845 1.22572e-19)
(0.803652 0.485201 -1.34192e-20)
(0.812642 0.463611 -1.24002e-19)
(0.821378 0.443044 -9.83931e-20)
(0.829873 0.423455 1.44228e-19)
(0.838133 0.404786 7.57803e-20)
(0.846172 0.386974 -2.33012e-20)
(0.853955 0.369988 -6.19569e-20)
(0.861434 0.353812 1.22114e-19)
(0.869181 0.337958 6.3094e-20)
(0.876974 0.322393 2.61511e-19)
(0.0943572 0.118306 2.51138e-20)
(0.247848 0.305233 -2.2741e-21)
(0.373529 0.446834 -5.73734e-21)
(0.47292 0.547425 6.14151e-20)
(0.54931 0.61235 -2.96429e-21)
(0.606609 0.648013 -1.18379e-19)
(0.648878 0.661148 -7.34626e-20)
(0.67997 0.658093 3.86428e-20)
(0.703208 0.64429 6.49456e-20)
(0.721226 0.62402 1.82574e-19)
(0.735947 0.600377 6.0009e-20)
(0.748665 0.575411 -5.00343e-20)
(0.760187 0.550366 2.26584e-19)
(0.770973 0.525916 -2.28125e-20)
(0.781268 0.502383 -4.81887e-20)
(0.791192 0.479887 -6.01984e-20)
(0.800802 0.458444 -4.46797e-20)
(0.810123 0.438024 -3.86059e-19)
(0.819168 0.418578 -3.52828e-19)
(0.827945 0.40005 8.51342e-20)
(0.836466 0.382378 7.12727e-20)
(0.844697 0.365531 8.34946e-20)
(0.852597 0.349491 -2.79131e-19)
(0.860719 0.333797 -1.5291e-19)
(0.868799 0.318464 -2.16755e-19)
(0.0914924 0.118362 -1.16317e-20)
(0.240299 0.30484 2.39779e-20)
(0.362355 0.445536 4.17708e-20)
(0.459052 0.545017 -6.59135e-20)
(0.533598 0.608817 6.13319e-20)
(0.589794 0.643483 5.92449e-20)
(0.631568 0.655831 4.82482e-20)
(0.662632 0.652226 5.03616e-20)
(0.686176 0.638091 -2.81876e-20)
(0.704719 0.617671 -1.44142e-19)
(0.720091 0.594011 -7.84296e-20)
(0.73352 0.569118 -1.83844e-20)
(0.745766 0.544198 4.1592e-20)
(0.757265 0.519903 1.50157e-19)
(0.768246 0.496537 -1.818e-19)
(0.778824 0.474212 1.46483e-19)
(0.789052 0.452939 9.08249e-21)
(0.798956 0.432685 3.38578e-19)
(0.808549 0.413402 2.31325e-19)
(0.81784 0.395034 -2.33707e-20)
(0.826843 0.37752 -1.84724e-19)
(0.835524 0.36083 -2.05949e-19)
(0.843848 0.344944 1.17782e-19)
(0.852352 0.329428 3.94335e-19)
(0.860735 0.314331 -8.89654e-20)
(0.0885735 0.118256 -7.36033e-21)
(0.232641 0.304049 -4.33505e-20)
(0.351063 0.443685 -6.23006e-20)
(0.445085 0.541967 3.81648e-20)
(0.517823 0.604606 -3.67637e-20)
(0.572958 0.638277 -7.34296e-20)
(0.614277 0.649862 -1.07138e-19)
(0.645346 0.645741 9.34941e-20)
(0.669222 0.631316 2.68489e-20)
(0.688306 0.610785 1.50251e-19)
(0.704339 0.587146 1.8624e-19)
(0.718483 0.562359 -1.88514e-20)
(0.731456 0.537596 1.09167e-19)
(0.743666 0.513482 -3.28584e-19)
(0.755331 0.490308 9.49547e-20)
(0.76656 0.468176 5.55312e-20)
(0.777403 0.447095 3.0327e-20)
(0.787887 0.427028 -2.51201e-19)
(0.798026 0.407928 6.57833e-20)
(0.807831 0.389739 2.29218e-20)
(0.817314 0.372401 3.43355e-19)
(0.826445 0.355885 -1.81728e-19)
(0.835195 0.340169 1.42587e-19)
(0.844087 0.324845 -1.36284e-19)
(0.852784 0.309989 2.16013e-19)
(0.0856072 0.117988 -4.06366e-20)
(0.224892 0.302859 6.43019e-20)
(0.339676 0.441281 1.10101e-19)
(0.431046 0.538276 -3.20242e-20)
(0.502014 0.599719 -5.62695e-20)
(0.556129 0.632395 1.68917e-20)
(0.597031 0.643242 1.55044e-19)
(0.628138 0.638642 -1.22421e-19)
(0.652368 0.623968 4.42165e-20)
(0.672008 0.603367 -6.79342e-20)
(0.68871 0.579785 8.39856e-21)
(0.703571 0.555138 -2.28168e-20)
(0.717269 0.530561 -2.04581e-19)
(0.73019 0.506656 8.6375e-20)
(0.742536 0.483699 3.11431e-20)
(0.754412 0.461783 -2.21776e-21)
(0.765867 0.440914 -8.89553e-20)
(0.776929 0.421055 8.34388e-20)
(0.787611 0.402157 -1.15593e-19)
(0.797926 0.384165 1.68358e-19)
(0.807889 0.367021 -3.67474e-19)
(0.81747 0.350696 1.46274e-19)
(0.826647 0.335165 -3.35852e-19)
(0.835928 0.320046 5.43223e-20)
(0.84495 0.305436 -2.24797e-19)
(0.0826007 0.117555 7.40613e-21)
(0.217069 0.301267 -1.09053e-20)
(0.328217 0.438322 -7.46404e-20)
(0.416961 0.533945 -6.48258e-20)
(0.486197 0.594159 2.95999e-20)
(0.539334 0.625844 5.35765e-20)
(0.579857 0.635977 -2.19547e-19)
(0.61103 0.630935 1.39678e-19)
(0.635636 0.616051 -4.82254e-20)
(0.655844 0.59542 2.16548e-20)
(0.67322 0.571932 -5.96424e-20)
(0.688801 0.547458 -1.3809e-19)
(0.703223 0.523096 2.64168e-20)
(0.71685 0.499427 1.94445e-19)
(0.729874 0.47671 -1.56849e-19)
(0.742393 0.455035 1.08647e-19)
(0.754456 0.434399 1.6794e-19)
(0.766091 0.414768 3.85913e-20)
(0.777313 0.396091 -3.2886e-19)
(0.788136 0.378314 -1.60596e-19)
(0.798577 0.361381 1.62441e-19)
(0.808607 0.345263 7.54316e-20)
(0.818211 0.329932 2.33053e-19)
(0.827882 0.315031 -2.92499e-19)
(0.837233 0.30067 1.83322e-19)
(0.0795611 0.116957 -3.26219e-20)
(0.209189 0.299274 9.00638e-20)
(0.316709 0.43481 9.28875e-21)
(0.402858 0.528977 1.35643e-19)
(0.470401 0.58793 -4.78928e-20)
(0.5226 0.618626 -5.82413e-20)
(0.562779 0.628072 1.46174e-20)
(0.594047 0.622625 9.48302e-20)
(0.619046 0.607571 -4.9222e-20)
(0.639833 0.586948 -9.73113e-20)
(0.657888 0.563591 3.49823e-20)
(0.674188 0.539322 5.84001e-20)
(0.689332 0.515205 6.43351e-21)
(0.703661 0.491798 -5.48346e-20)
(0.717358 0.469347 -3.28965e-20)
(0.730515 0.447933 1.14774e-19)
(0.743182 0.427553 -2.90529e-19)
(0.755385 0.408169 -1.45744e-20)
(0.767143 0.389732 5.95328e-19)
(0.778471 0.372188 1.90201e-19)
(0.789386 0.355482 1.83582e-19)
(0.799863 0.339585 1.17515e-19)
(0.809894 0.324469 1.23308e-19)
(0.819955 0.309797 2.03634e-19)
(0.829639 0.295693 5.49614e-20)
(0.0764954 0.116193 1.05503e-20)
(0.20127 0.29688 4.84891e-20)
(0.305178 0.430746 7.9739e-20)
(0.388763 0.523375 -1.26422e-19)
(0.454654 0.581035 1.07787e-19)
(0.505955 0.610749 1.86559e-20)
(0.545824 0.619533 -1.0108e-20)
(0.577211 0.613717 -1.16125e-19)
(0.602619 0.598533 -5.21034e-20)
(0.623995 0.577958 7.19925e-20)
(0.642731 0.554767 -2.1849e-20)
(0.659748 0.530735 5.0973e-20)
(0.67561 0.506892 3.00883e-19)
(0.690637 0.483773 -1.23634e-19)
(0.705001 0.461611 -1.28787e-20)
(0.718791 0.440481 -7.95784e-20)
(0.732055 0.420377 -1.11769e-19)
(0.744822 0.40126 6.3158e-20)
(0.757111 0.383081 -2.44906e-19)
(0.76894 0.365788 -1.55251e-19)
(0.780326 0.349325 -8.1006e-20)
(0.791248 0.333665 -2.50332e-19)
(0.801703 0.318777 -3.38362e-19)
(0.812152 0.304347 2.51443e-19)
(0.822172 0.290504 -6.96258e-20)
(0.0734108 0.115265 3.99603e-20)
(0.193329 0.294085 -2.47496e-20)
(0.293644 0.426133 -1.46931e-19)
(0.374702 0.517143 1.90753e-19)
(0.438983 0.573482 -1.25297e-19)
(0.489425 0.602218 1.68149e-20)
(0.529015 0.610367 -6.08249e-21)
(0.560545 0.604218 -6.22406e-20)
(0.586377 0.588943 -1.41944e-19)
(0.608347 0.568454 -1.22048e-19)
(0.627766 0.545465 2.80279e-20)
(0.645498 0.521702 -6.59811e-20)
(0.662073 0.498161 -2.57884e-19)
(0.677791 0.475356 1.58785e-19)
(0.692815 0.453507 2.31192e-19)
(0.707231 0.432683 -1.59742e-19)
(0.721087 0.412875 3.82643e-19)
(0.734412 0.394045 2.00136e-20)
(0.747227 0.376143 -7.058e-20)
(0.759551 0.359116 -1.66922e-19)
(0.771404 0.342913 -3.21523e-19)
(0.782768 0.327504 -1.3812e-19)
(0.793645 0.312858 -2.62804e-19)
(0.804479 0.298681 -3.07907e-19)
(0.814835 0.285105 6.95753e-20)
(0.0703144 0.114171 5.1262e-20)
(0.185382 0.290891 -7.27932e-20)
(0.282133 0.420974 7.77554e-20)
(0.360702 0.510287 -1.17549e-19)
(0.423414 0.565275 1.14495e-19)
(0.473035 0.59304 -1.41253e-19)
(0.512378 0.600581 5.00778e-20)
(0.544071 0.594135 7.74325e-20)
(0.57034 0.57881 2.55917e-20)
(0.592909 0.558443 7.11859e-20)
(0.61301 0.53569 8.85671e-20)
(0.631453 0.512227 -1.93659e-19)
(0.648734 0.489017 1.36496e-19)
(0.665136 0.466551 1.5893e-20)
(0.680814 0.445039 -6.62974e-20)
(0.695849 0.424543 2.16836e-19)
(0.710289 0.405052 -1.77448e-19)
(0.724166 0.386527 -9.19638e-20)
(0.7375 0.368918 -3.17594e-20)
(0.750315 0.352176 3.04511e-19)
(0.762631 0.336247 4.5022e-19)
(0.774431 0.321104 -1.15195e-19)
(0.785726 0.306714 2.73878e-19)
(0.796941 0.292801 6.14999e-20)
(0.0672133 0.112912 -6.79454e-20)
(0.177446 0.2873 -7.67742e-20)
(0.270666 0.415274 -6.43468e-20)
(0.346788 0.502812 9.31557e-20)
(0.407974 0.556424 -5.90209e-20)
(0.456812 0.583224 1.92795e-20)
(0.495935 0.590183 3.76391e-21)
(0.527812 0.583477 2.5734e-19)
(0.554527 0.568139 -2.16954e-19)
(0.577699 0.547933 -1.25905e-20)
(0.598479 0.525449 -2.64451e-19)
(0.617628 0.502317 1.64507e-19)
(0.635608 0.479465 -1.59365e-19)
(0.652687 0.457363 -1.48795e-19)
(0.669009 0.436211 -1.22988e-20)
(0.684655 0.416064 -1.34195e-19)
(0.699672 0.39691 1.07615e-19)
(0.714093 0.378709 -3.75219e-21)
(0.727941 0.361412 3.15465e-19)
(0.741241 0.34497 -1.7065e-19)
(0.754013 0.329332 -9.3722e-20)
(0.766246 0.314468 1.32524e-19)
(0.777953 0.300345 -2.83198e-20)
(0.789545 0.286708 2.0134e-19)
(0.0641146 0.111489 -2.79772e-20)
(0.169539 0.283316 8.579e-20)
(0.259266 0.409037 1.18069e-19)
(0.332986 0.494726 -2.46923e-19)
(0.392689 0.546936 -8.98009e-21)
(0.44078 0.572779 9.77831e-22)
(0.479712 0.579182 -2.92056e-20)
(0.511788 0.572252 -1.75307e-19)
(0.538959 0.556939 1.95825e-19)
(0.562734 0.53693 -1.88341e-20)
(0.584191 0.51475 2.32029e-19)
(0.604038 0.491979 3.11463e-20)
(0.62271 0.469512 2.5893e-19)
(0.640455 0.447799 3.24919e-20)
(0.657413 0.427029 -5.29386e-20)
(0.673661 0.407252 -2.8674e-19)
(0.689247 0.388454 -1.25521e-19)
(0.704205 0.370595 -1.97852e-20)
(0.718559 0.353628 -1.51907e-19)
(0.732336 0.337502 -3.09306e-20)
(0.745558 0.322168 2.44626e-19)
(0.758218 0.307598 9.33265e-20)
(0.770333 0.293756 2.56212e-19)
(0.782296 0.280405 -2.68651e-19)
(0.0610253 0.109904 2.03282e-20)
(0.161677 0.278942 3.29393e-20)
(0.247956 0.40227 1.5519e-20)
(0.319321 0.486036 5.55894e-20)
(0.377585 0.536819 -6.09519e-20)
(0.424964 0.561714 3.71736e-20)
(0.46373 0.567589 -3.98548e-20)
(0.496022 0.560469 2.63847e-20)
(0.523654 0.545218 2.15981e-19)
(0.548033 0.525442 1.43768e-20)
(0.570161 0.503599 -1.26395e-19)
(0.590699 0.481218 3.23479e-19)
(0.610052 0.459162 -1.613e-19)
(0.628454 0.437863 -8.826e-20)
(0.646038 0.417497 1.10933e-19)
(0.662879 0.398111 -6.68876e-20)
(0.679025 0.379689 1.21997e-19)
(0.69451 0.362191 7.64201e-21)
(0.709363 0.345569 1.43108e-19)
(0.723609 0.329775 -1.54446e-19)
(0.737276 0.314762 6.1483e-20)
(0.750356 0.300498 1.44471e-19)
(0.762872 0.28695 -3.47624e-19)
(0.0579524 0.108157 -1.82221e-20)
(0.153876 0.274183 -1.08802e-19)
(0.236757 0.39498 -2.81852e-19)
(0.305818 0.476751 2.61111e-19)
(0.362686 0.526085 1.15142e-19)
(0.409389 0.55004 8.94213e-20)
(0.448012 0.555413 -3.28359e-20)
(0.480533 0.548139 2.50337e-19)
(0.508632 0.532987 6.30761e-21)
(0.533612 0.513479 -3.74538e-19)
(0.556405 0.492004 -3.11895e-19)
(0.577624 0.470042 -6.8033e-20)
(0.597648 0.448424 3.45238e-19)
(0.616697 0.427562 5.37741e-21)
(0.634896 0.407623 -3.22855e-20)
(0.652319 0.388648 8.64928e-20)
(0.669015 0.37062 -8.81094e-20)
(0.685019 0.3535 -1.06384e-19)
(0.700361 0.337241 -1.53617e-19)
(0.71507 0.321795 1.85523e-19)
(0.729173 0.307115 -3.14713e-19)
(0.742666 0.293171 -3.19839e-19)
(0.755577 0.279929 4.22844e-19)
(0.0549028 0.10625 9.42641e-20)
(0.146152 0.269042 1.58548e-20)
(0.225692 0.387174 2.57855e-19)
(0.2925 0.46688 -1.28713e-19)
(0.348017 0.514744 1.59694e-19)
(0.394077 0.537768 -6.96707e-20)
(0.432581 0.542665 -6.38093e-21)
(0.465342 0.535272 -2.25595e-19)
(0.49391 0.520255 8.3903e-20)
(0.519489 0.501049 2.44456e-19)
(0.542938 0.479973 2.39278e-19)
(0.564829 0.458459 1.97844e-19)
(0.585512 0.437305 -2.19104e-19)
(0.605196 0.416903 5.61956e-20)
(0.623998 0.397411 -3.60162e-19)
(0.641993 0.378867 2.33795e-19)
(0.659228 0.361253 2.02715e-19)
(0.675741 0.344529 -7.32911e-20)
(0.691564 0.328648 -1.97693e-19)
(0.706726 0.313564 -1.55176e-19)
(0.721257 0.299233 -1.31846e-19)
(0.735156 0.285622 5.99194e-20)
(0.748454 0.272697 -7.06868e-20)
(0.0518833 0.104186 9.63407e-20)
(0.138522 0.263527 1.42999e-19)
(0.214781 0.37886 -1.63682e-19)
(0.279391 0.456436 -9.46036e-20)
(0.333602 0.502807 -2.44494e-19)
(0.379053 0.52491 -2.23927e-20)
(0.417457 0.529358 5.99299e-20)
(0.450469 0.521879 -8.89785e-20)
(0.479508 0.507032 -1.12555e-19)
(0.505679 0.488162 3.13109e-19)
(0.529776 0.467517 3.45891e-20)
(0.552327 0.446478 -3.1137e-19)
(0.573657 0.425812 1.04847e-19)
(0.593962 0.405893 -8.58742e-20)
(0.613357 0.38687 1.52985e-19)
(0.631911 0.368776 8.95679e-20)
(0.649675 0.351593 -2.01266e-19)
(0.666686 0.335282 3.31393e-19)
(0.682979 0.319796 1.07685e-19)
(0.698586 0.305089 9.60249e-20)
(0.713536 0.291119 -3.20381e-20)
(0.727833 0.277854 4.31403e-19)
(0.741509 0.26526 -1.84146e-20)
(0.0489007 0.101967 -1.12437e-19)
(0.131002 0.257643 1.37289e-19)
(0.204046 0.370048 8.83899e-20)
(0.266515 0.445427 9.35457e-21)
(0.319465 0.490287 1.16922e-19)
(0.364338 0.511478 -1.23509e-19)
(0.402662 0.515504 3.35682e-20)
(0.435934 0.507972 -1.94327e-20)
(0.465442 0.49333 -3.69247e-20)