/*--------------------------------*- C++ -*----------------------------------*\
  =========                 |
  \\      /  F ield         | OpenFOAM: The Open Source CFD Toolbox
   \\    /   O peration     | Website:  https://openfoam.org
    \\  /    A nd           | Version:  7
     \\/     M anipulation  |
\*---------------------------------------------------------------------------*/
FoamFile
{
    version     2.0;
    format      ascii;
    class       volVectorField;
    location    "200";
    object      U;
}
// * * * * * * * * * * * * * * * * * * * * * * * * * * * * * * * * * * * * * //

dimensions      [0 1 -1 0 0 0 0];

internalField   nonuniform List<vector> 
4575
(
(0.380006 -0.673848 2.31423e-22)
(0.414475 -0.69935 -1.08372e-22)
(0.424733 -0.699768 -8.51352e-23)
(0.406801 -0.695808 8.23385e-23)
(0.366913 -0.685377 -8.57445e-23)
(0.34 -0.624393 -1.07173e-22)
(0.368151 -0.466171 2.172e-23)
(0.446823 -0.223525 1.61461e-22)
(0.54674 0.042383 9.95854e-23)
(0.644739 0.273191 -3.18048e-22)
(0.726035 0.436748 1.71478e-22)
(0.783761 0.530381 -6.74522e-23)
(0.815911 0.571981 -2.94353e-23)
(0.827207 0.580761 4.21254e-23)
(0.826532 0.570613 3.56365e-23)
(0.813552 0.562207 -4.90256e-24)
(0.77984 0.572166 -4.35728e-23)
(0.729054 0.577852 6.5693e-24)
(0.685665 0.520665 -1.17772e-22)
(0.672982 0.363884 1.27938e-22)
(0.694611 0.134507 -3.8912e-23)
(0.740136 -0.100909 3.17782e-23)
(0.792636 -0.287239 -1.34009e-22)
(0.402324 -0.680498 1.20226e-21)
(0.432925 -0.702543 -1.08806e-22)
(0.440161 -0.69914 -5.194e-22)
(0.420156 -0.691593 3.56856e-22)
(0.376973 -0.680464 -6.60854e-22)
(0.342725 -0.624139 6.84463e-22)
(0.36189 -0.473213 4.17971e-23)
(0.434563 -0.235478 -1.2301e-22)
(0.531827 0.029164 -6.1853e-22)
(0.629722 0.261279 7.70036e-22)
(0.712762 0.427579 -5.15282e-22)
(0.773086 0.524488 4.08222e-22)
(0.807929 0.569098 -6.76899e-23)
(0.821878 0.579955 -4.5617e-22)
(0.823512 0.5713 3.56882e-22)
(0.811984 0.564798 -2.07063e-22)
(0.779008 0.576817 2.04869e-22)
(0.729263 0.582987 -1.15518e-23)
(0.687739 0.523801 -7.98475e-23)
(0.677041 0.363706 3.12675e-22)
(0.700121 0.131398 -5.38639e-22)
(0.746355 -0.105581 5.03428e-22)
(0.798804 -0.291837 -4.77405e-22)
(0.425051 -0.686469 2.26888e-21)
(0.451663 -0.705228 -1.46889e-21)
(0.455775 -0.698192 -1.3791e-22)
(0.43379 -0.687068 9.98935e-23)
(0.387747 -0.674943 1.3703e-21)
(0.346672 -0.623032 1.26367e-23)
(0.35679 -0.479682 -5.05695e-22)
(0.423134 -0.247406 3.3347e-22)
(0.517472 0.015598 -3.48827e-22)
(0.615057 0.24885 1.94475e-23)
(0.699684 0.417873 3.02694e-23)
(0.762497 0.518133 -8.57263e-23)
(0.8 0.565838 -1.04542e-23)
(0.81662 0.578852 -3.94754e-23)
(0.820585 0.571783 3.87399e-22)
(0.810529 0.567257 -3.50029e-22)
(0.778345 0.581348 -2.67739e-23)
(0.729716 0.588011 -3.12008e-22)
(0.69008 0.526925 2.80799e-22)
(0.681343 0.363682 -1.2182e-23)
(0.705837 0.128563 2.44595e-22)
(0.752733 -0.109955 -5.41695e-23)
(0.805086 -0.296164 1.40528e-22)
(0.448144 -0.691756 1.80196e-21)
(0.470669 -0.707407 -1.5685e-21)
(0.471558 -0.696941 9.65706e-22)
(0.447662 -0.682283 -1.53431e-21)
(0.399171 -0.668875 7.02605e-22)
(0.351822 -0.621078 -3.36813e-22)
(0.352895 -0.48552 5.71051e-22)
(0.412585 -0.25925 -1.08551e-21)
(0.503715 0.00175448 6.54984e-22)
(0.600773 0.235926 4.20787e-22)
(0.686817 0.407641 3.32866e-22)
(0.752001 0.511312 2.3033e-22)
(0.792126 0.562195 -5.61297e-22)
(0.811432 0.577445 -2.93465e-22)
(0.817747 0.572051 2.91592e-23)
(0.809184 0.569569 3.55951e-22)
(0.777847 0.585746 5.53132e-22)
(0.730406 0.592919 -4.6982e-23)
(0.692676 0.530044 1.03021e-22)
(0.685878 0.363824 -4.07012e-22)
(0.711754 0.126012 1.44504e-22)
(0.759267 -0.114022 1.30644e-23)
(0.811481 -0.300218 -9.86493e-22)
(0.471562 -0.696359 1.22029e-21)
(0.489921 -0.709081 -9.75391e-22)
(0.487496 -0.695402 9.36176e-22)
(0.461734 -0.677285 -3.94931e-22)
(0.41118 -0.662326 2.76369e-22)
(0.358143 -0.618296 -1.24919e-21)
(0.350246 -0.490674 1.67346e-21)
(0.402965 -0.270946 1.24455e-22)
(0.490595 -0.0123832 -6.03383e-22)
(0.586894 0.222529 -1.28968e-21)
(0.674179 0.396891 3.05191e-22)
(0.741607 0.504025 -3.25686e-22)
(0.78431 0.55816 4.0078e-22)
(0.806311 0.575725 -7.68507e-23)
(0.814993 0.572096 -1.22028e-22)
(0.807945 0.571722 5.26957e-23)
(0.777511 0.589996 2.8419e-22)
(0.731327 0.597705 1.44145e-22)
(0.695516 0.533164 2.58534e-23)
(0.690635 0.364145 6.43409e-22)
(0.717862 0.123757 -2.69791e-22)
(0.76595 -0.117773 -9.49524e-22)
(0.817986 -0.303997 3.98068e-22)
(0.495257 -0.700277 -3.10164e-21)
(0.509392 -0.710252 9.71892e-22)
(0.503575 -0.693587 -1.75345e-22)
(0.47597 -0.672119 -1.82963e-21)
(0.423708 -0.655364 1.50698e-21)
(0.365593 -0.61471 -2.65515e-22)
(0.348874 -0.495094 -1.3135e-22)
(0.394312 -0.282427 2.14884e-21)
(0.47815 -0.0267806 -1.63967e-21)
(0.573456 0.208682 1.33312e-21)
(0.661783 0.385635 -5.2836e-22)
(0.731321 0.496272 -6.66576e-22)
(0.776554 0.553726 7.94353e-22)
(0.801255 0.573682 -4.69006e-22)
(0.812319 0.571908 -2.82938e-22)
(0.806808 0.573703 -3.88913e-23)
(0.777334 0.594086 -6.95212e-22)
(0.732468 0.602367 3.55614e-22)
(0.698588 0.536293 -9.99872e-22)
(0.695603 0.364653 -5.18686e-22)
(0.724153 0.121808 1.11629e-21)
(0.772779 -0.121202 6.50004e-22)
(0.824597 -0.307497 6.00808e-22)
(0.519185 -0.703513 -4.32927e-21)
(0.529054 -0.710923 1.91077e-21)
(0.519783 -0.691508 -2.35201e-21)
(0.490338 -0.666825 -2.90706e-22)
(0.436687 -0.648058 7.02313e-22)
(0.374117 -0.610354 -6.87637e-22)
(0.348808 -0.498736 -6.58398e-22)
(0.38667 -0.293626 -6.63599e-22)
(0.466415 -0.0413319 1.06713e-21)
(0.560483 0.194416 1.28346e-21)
(0.649646 0.373885 1.28551e-21)
(0.721151 0.488054 -1.362e-21)
(0.76886 0.548887 1.28688e-21)
(0.796262 0.57131 -6.29511e-22)
(0.809719 0.571477 -5.9194e-22)
(0.805769 0.575499 8.44632e-22)
(0.777312 0.598004 6.39225e-22)
(0.733822 0.606899 -1.86376e-21)
(0.701879 0.539434 5.28443e-22)
(0.700768 0.365359 6.04987e-22)
(0.730615 0.120175 -4.76719e-22)
(0.779747 -0.1243 7.75447e-22)
(0.831312 -0.310716 -7.75539e-22)
(0.543295 -0.706071 -2.54839e-22)
(0.548878 -0.7111 7.56179e-22)
(0.536104 -0.689173 1.7405e-21)
(0.504806 -0.66144 -1.23536e-21)
(0.450052 -0.640479 1.29866e-22)
(0.383653 -0.605274 1.02697e-23)
(0.350064 -0.501563 -9.97285e-22)
(0.38008 -0.30447 -9.15407e-22)
(0.455424 -0.0560168 2.37025e-21)
(0.547998 0.179758 -2.25743e-22)
(0.637782 0.361657 -9.7884e-22)
(0.711104 0.479372 -8.444e-22)
(0.761229 0.543635 1.3032e-21)
(0.791328 0.568598 -8.87981e-22)
(0.807189 0.570794 1.4514e-22)
(0.804822 0.577096 -4.68808e-22)
(0.777438 0.601736 1.17426e-21)
(0.735376 0.611298 -1.22745e-21)
(0.705375 0.542594 4.70827e-22)
(0.706117 0.366272 1.27948e-21)
(0.737237 0.118867 -2.21614e-21)
(0.786847 -0.127061 -5.63243e-22)
(0.838127 -0.313651 1.19609e-21)
(0.567541 -0.707956 2.54467e-21)
(0.56883 -0.71079 9.36493e-22)
(0.552527 -0.68659 -5.97071e-22)
(0.519347 -0.655996 8.45805e-22)
(0.463736 -0.632696 1.59039e-21)
(0.394126 -0.599519 -2.68813e-21)
(0.352651 -0.503547 5.96453e-22)
(0.374577 -0.314888 1.51123e-21)
(0.445208 -0.0707833 -8.32981e-22)
(0.536026 0.164742 2.49755e-21)
(0.626203 0.348966 -2.83317e-21)
(0.701188 0.470229 1.00029e-21)
(0.753664 0.537967 -1.22742e-21)
(0.786452 0.56554 1.18703e-22)
(0.804721 0.56985 -1.99927e-22)
(0.80396 0.578483 8.87475e-22)
(0.777706 0.605271 -4.63371e-22)
(0.737119 0.61556 -8.7463e-22)
(0.709061 0.545776 -6.28757e-22)
(0.711634 0.3674 2.33408e-21)
(0.744006 0.117892 1.40705e-21)
(0.794071 -0.129478 3.64548e-22)
(0.845038 -0.316302 -9.08344e-22)
(0.591872 -0.709177 3.19608e-21)
(0.588876 -0.709998 2.46923e-21)
(0.569035 -0.683766 -2.63552e-21)
(0.533937 -0.650522 -4.14939e-21)
(0.477677 -0.624777 -2.76166e-22)
(0.405457 -0.59315 3.90202e-22)
(0.356566 -0.504667 4.48166e-21)
(0.3702 -0.324809 -3.35826e-21)
(0.435794 -0.0855657 1.57476e-21)
(0.524588 0.149403 -2.44012e-21)
(0.614925 0.33583 1.4543e-21)
(0.691409 0.460627 -6.51289e-22)
(0.746166 0.531876 4.63479e-22)
(0.781629 0.562129 -7.27586e-22)
(0.802311 0.568633 4.79006e-23)
(0.80318 0.579646 -6.57405e-22)
(0.778109 0.608598 1.28032e-21)
(0.73904 0.619679 -1.07996e-21)
(0.712923 0.548984 8.21834e-22)
(0.717305 0.368749 -2.27414e-21)
(0.750909 0.117257 5.31431e-22)
(0.801413 -0.131546 -2.9399e-21)
(0.852042 -0.318664 1.57958e-21)
(0.616242 -0.70974 -8.00318e-22)
(0.60898 -0.708735 3.61419e-21)
(0.585615 -0.680707 -3.95323e-21)
(0.548554 -0.64504 7.24393e-22)
(0.491813 -0.616787 -1.93583e-21)
(0.417559 -0.586234 2.97685e-21)
(0.361795 -0.504913 2.14174e-21)
(0.366982 -0.334162 3.76331e-22)
(0.427208 -0.100307 -3.25657e-21)
(0.513703 0.133776 6.78524e-22)
(0.603957 0.322268 2.84442e-21)
(0.681774 0.450573 -6.29166e-22)
(0.738737 0.525359 -1.5127e-21)
(0.776857 0.558356 -2.79472e-22)
(0.799951 0.567136 2.62312e-21)
(0.802473 0.580572 -5.82713e-23)
(0.778638 0.611703 -6.16946e-22)
(0.741126 0.623652 2.99162e-22)
(0.716945 0.55222 -6.10792e-22)
(0.723112 0.370324 2.93149e-21)
(0.757931 0.11697 -1.3434e-21)
(0.808861 -0.13326 3.99266e-21)
(0.859132 -0.320736 -1.73493e-21)
(0.893989 -0.429545 1.90008e-21)
(0.640601 -0.709656 9.14102e-22)
(0.629107 -0.707011 -3.78419e-21)
(0.602249 -0.677419 -8.59079e-23)
(0.563181 -0.63957 5.05303e-21)
(0.506088 -0.608788 -2.32147e-21)
(0.430343 -0.578843 -3.95139e-21)
(0.368307 -0.504286 3.78602e-21)
(0.364956 -0.342879 4.52299e-22)
(0.419475 -0.114943 -3.31382e-21)
(0.503387 0.117902 -1.26877e-21)
(0.593314 0.308301 1.09658e-21)
(0.67229 0.440071 1.60156e-21)
(0.731379 0.518413 -2.56948e-21)
(0.772131 0.554217 5.84996e-22)
(0.797636 0.565349 4.92539e-22)
(0.801833 0.581249 -2.72297e-21)
(0.779285 0.614577 -1.30149e-21)
(0.743364 0.627474 8.93173e-23)
(0.721112 0.555488 5.87124e-21)
(0.729037 0.372133 -2.4752e-21)
(0.765056 0.117034 2.08464e-21)
(0.816409 -0.134613 -6.80666e-21)
(0.866305 -0.322516 1.15368e-21)
(0.900217 -0.430758 2.74817e-22)
(0.664903 -0.708935 -6.04941e-21)
(0.64922 -0.704837 1.2741e-21)
(0.618921 -0.673906 1.05634e-21)
(0.577803 -0.634127 -3.2936e-21)
(0.520447 -0.600835 5.12405e-21)
(0.443716 -0.571054 -3.61388e-21)
(0.37606 -0.502796 3.03875e-21)
(0.364151 -0.350892 -4.97054e-21)
(0.412618 -0.129407 4.75649e-21)
(0.493657 0.101821 1.2092e-21)
(0.583004 0.293951 1.05638e-21)
(0.662963 0.429127 -3.34476e-21)
(0.724093 0.511035 1.14125e-21)
(0.767448 0.549704 -6.05789e-22)
(0.795357 0.563263 9.78346e-23)
(0.801253 0.581665 2.31053e-21)
(0.78004 0.617207 -4.82859e-22)
(0.745739 0.63114 9.17225e-22)
(0.725405 0.558787 1.58874e-21)
(0.735063 0.374178 -1.68278e-21)
(0.772269 0.117456 1.79955e-21)
(0.824044 -0.135601 -3.16042e-21)
(0.873557 -0.324002 2.0053e-21)
(0.906519 -0.431754 -2.28577e-22)
(0.6891 -0.707589 -5.05531e-22)
(0.669284 -0.702225 -6.57828e-21)
(0.635612 -0.670175 4.87897e-21)
(0.592406 -0.628721 -3.31436e-21)
(0.534843 -0.59298 -2.2452e-21)
(0.457584 -0.562947 2.76627e-22)
(0.384997 -0.500468 9.05458e-22)
(0.364594 -0.358142 -1.87653e-21)
(0.406658 -0.143631 2.35052e-21)
(0.484525 0.0855791 2.14956e-21)
(0.573039 0.279241 -4.28471e-21)
(0.653802 0.41775 1.21254e-21)
(0.71688 0.503224 1.78378e-21)
(0.762804 0.544813 -2.58329e-21)
(0.793108 0.56087 3.31561e-21)
(0.800724 0.581808 1.14784e-21)
(0.780894 0.619584 -9.88682e-22)
(0.748239 0.634646 -1.1846e-21)
(0.729809 0.562118 1.69637e-21)
(0.741171 0.376462 -3.29771e-21)
(0.779552 0.118239 3.25561e-21)
(0.831757 -0.136222 2.32704e-21)
(0.880881 -0.325192 -3.72411e-23)
(0.912891 -0.432534 6.77152e-22)
(0.713148 -0.705631 -4.37925e-21)
(0.689263 -0.699189 -1.30781e-21)
(0.652302 -0.66623 -1.6624e-22)
(0.606982 -0.623359 1.17048e-21)
(0.54923 -0.585269 -1.77598e-21)
(0.471857 -0.554605 -4.78363e-22)
(0.395047 -0.497336 6.60571e-23)
(0.366306 -0.364575 3.02157e-21)
(0.401619 -0.157541 -8.69022e-22)
(0.476005 0.0692226 -7.06948e-22)
(0.563429 0.264197 -4.2507e-21)
(0.644812 0.405949 -4.08342e-22)
(0.709744 0.494978 1.83191e-21)
(0.758196 0.539537 1.85893e-22)
(0.790882 0.558159 4.57054e-23)
(0.80024 0.581666 7.90788e-22)
(0.781836 0.621696 -6.43577e-22)
(0.750848 0.637985 -1.42281e-21)
(0.734306 0.565481 -1.42198e-21)
(0.747341 0.378989 2.5962e-21)
(0.786887 0.119387 -4.14119e-21)
(0.839536 -0.136471 -1.36456e-22)
(0.888272 -0.326084 6.22006e-22)
(0.91933 -0.433101 -3.46192e-21)
(0.737002 -0.703074 3.41147e-21)
(0.709124 -0.695743 -3.42695e-21)
(0.66897 -0.662079 1.50637e-21)
(0.621522 -0.618045 2.1959e-21)
(0.563572 -0.577741 5.43287e-22)
(0.486442 -0.546109 -7.95196e-23)
(0.406127 -0.493445 7.365e-22)
(0.3693 -0.370144 -2.98102e-21)
(0.397528 -0.171061 2.09542e-21)
(0.46811 0.0528023 -1.22486e-22)
(0.554184 0.248846 2.38998e-21)
(0.636001 0.393733 -1.05764e-21)
(0.702685 0.486299 -8.03001e-22)
(0.753618 0.533874 2.19897e-22)
(0.788671 0.555125 -1.54704e-21)
(0.799792 0.581228 1.71738e-21)
(0.782855 0.623534 -9.98005e-22)
(0.753552 0.641153 1.42011e-21)
(0.738879 0.568876 -2.82111e-23)
(0.753555 0.381759 -3.13252e-21)
(0.794258 0.120901 1.10461e-21)
(0.847371 -0.136347 -1.06215e-21)
(0.895724 -0.326677 4.47057e-21)
(0.925832 -0.433456 -2.90696e-21)
(0.760619 -0.699933 7.57282e-21)
(0.728835 -0.691901 4.47471e-21)
(0.685594 -0.657728 -1.79744e-22)
(0.636019 -0.61278 2.09436e-21)
(0.577834 -0.570429 1.95364e-22)
(0.501255 -0.537541 -1.87871e-21)
(0.418144 -0.488851 -2.59547e-22)
(0.373581 -0.374813 1.13188e-21)
(0.39441 -0.184116 2.40262e-21)
(0.460852 0.0363689 -4.10592e-21)
(0.545314 0.233215 1.51151e-21)
(0.627376 0.381115 -8.88693e-22)
(0.695707 0.477187 2.44536e-21)
(0.749068 0.527818 -5.24728e-23)
(0.786468 0.551758 1.21503e-21)
(0.79937 0.580484 -1.2217e-21)
(0.783939 0.625088 -1.20421e-21)
(0.756338 0.644142 7.32043e-22)
(0.743511 0.5723 -2.46834e-21)
(0.759793 0.384774 5.81179e-21)
(0.801646 0.122782 -3.5636e-21)
(0.855248 -0.135846 3.92117e-21)
(0.903232 -0.326968 1.31739e-21)
(0.932391 -0.4336 -1.91422e-21)
(0.783956 -0.696223 5.16046e-21)
(0.748364 -0.687678 4.25606e-22)
(0.702153 -0.653185 -2.2424e-21)
(0.65047 -0.607563 9.83931e-22)
(0.591989 -0.563359 8.99656e-22)
(0.516214 -0.528978 8.0481e-22)
(0.430998 -0.483622 -1.0769e-21)
(0.379141 -0.378556 2.03026e-21)
(0.392296 -0.196629 -4.29241e-21)
(0.454247 0.0199902 -1.54144e-23)
(0.53683 0.217337 3.64316e-21)
(0.618946 0.368106 -2.97715e-21)
(0.688812 0.467645 -7.51296e-22)
(0.744542 0.521368 -4.19275e-22)
(0.784266 0.548052 4.35789e-22)
(0.798966 0.579422 -2.15173e-22)
(0.785078 0.626347 -1.59048e-21)
(0.75919 0.646948 1.88871e-22)
(0.748185 0.575751 3.62217e-21)
(0.766035 0.388032 4.3767e-23)
(0.809032 0.125032 -3.37312e-21)
(0.863157 -0.134969 -3.23628e-21)
(0.91079 -0.326958 1.23435e-21)
(0.939004 -0.433535 3.21415e-21)
(0.806974 -0.691962 -4.17004e-21)
(0.767685 -0.68309 -3.17363e-21)
(0.718623 -0.648457 -2.10225e-21)
(0.664869 -0.602389 3.84275e-21)
(0.606017 -0.556549 -2.20301e-21)
(0.531242 -0.520495 2.02845e-21)
(0.44458 -0.477832 -5.5712e-22)
(0.385961 -0.381359 -1.39601e-21)
(0.39122 -0.208523 9.05485e-23)
(0.448311 0.00385519 -2.63486e-21)
(0.528742 0.201244 8.26749e-23)
(0.610719 0.354722 2.4455e-21)
(0.682003 0.457677 1.45937e-21)
(0.740036 0.514522 -1.8935e-21)
(0.782056 0.544 -2.09158e-22)
(0.798571 0.578034 3.30553e-22)
(0.78626 0.627302 6.60392e-22)
(0.762094 0.649562 -3.11896e-21)
(0.752884 0.579226 2.85351e-21)
(0.772262 0.391534 -6.81796e-22)
(0.8164 0.12765 -2.13529e-21)
(0.871084 -0.133713 2.46543e-22)
(0.91839 -0.326644 -2.59143e-21)
(0.945665 -0.433261 4.63105e-22)
(0.829634 -0.687165 -1.8784e-20)
(0.78677 -0.678153 1.48588e-20)
(0.734982 -0.643554 -8.8995e-21)
(0.679211 -0.597255 3.66988e-22)
(0.6199 -0.550013 2.13839e-21)
(0.546269 -0.51216 -1.48569e-21)
(0.458781 -0.471562 -1.47215e-21)
(0.394004 -0.383221 2.12462e-21)
(0.391231 -0.219724 9.63189e-22)
(0.443065 -0.0121764 -2.43509e-21)
(0.521049 0.184966 1.52836e-21)
(0.602706 0.340978 -3.17002e-23)
(0.675284 0.447288 -3.71878e-22)
(0.735546 0.507277 1.81789e-21)
(0.779832 0.539597 1.52257e-21)
(0.798176 0.576309 9.9853e-22)
(0.787472 0.627943 -3.44304e-21)
(0.765036 0.651979 1.25027e-21)
(0.757591 0.582719 1.31048e-21)
(0.778455 0.395276 -1.23337e-21)
(0.82373 0.130635 2.51644e-21)
(0.879017 -0.132078 -1.06979e-22)
(0.926027 -0.326025 -2.69102e-21)
(0.95237 -0.432781 1.12352e-21)
(0.8519 -0.681853 -1.42268e-20)
(0.805596 -0.672882 9.66458e-21)
(0.75121 -0.638485 4.26101e-21)
(0.693492 -0.592155 -3.69504e-21)
(0.633628 -0.543755 -4.8218e-21)
(0.561232 -0.504036 2.84113e-21)
(0.47349 -0.4649 -4.73177e-22)
(0.403217 -0.384157 -1.88399e-21)
(0.392335 -0.230171 1.61523e-23)
(0.438534 -0.028173 8.25417e-22)
(0.513787 0.168545 -1.3113e-22)
(0.594916 0.326892 8.35217e-22)
(0.668659 0.436484 8.25902e-22)
(0.731071 0.499635 -1.94065e-21)
(0.777587 0.534835 -5.69141e-23)
(0.79777 0.57424 1.01882e-22)
(0.788704 0.628262 -6.13226e-22)
(0.768002 0.65419 1.7346e-21)
(0.76229 0.586227 3.37958e-21)
(0.784596 0.399257 -5.21096e-21)
(0.831005 0.133985 2.4423e-22)
(0.886944 -0.130066 8.84335e-22)
(0.933693 -0.3251 4.41633e-21)
(0.959115 -0.432095 -1.67845e-21)
(0.873736 -0.676045 -1.20629e-20)
(0.82414 -0.667294 2.1753e-22)
(0.767284 -0.633261 -6.44872e-21)
(0.707705 -0.587082 8.03652e-21)
(0.647196 -0.537778 -5.15202e-21)
(0.576075 -0.496176 1.64736e-21)
(0.488598 -0.457935 -3.34089e-21)
(0.413535 -0.384192 6.02135e-21)
(0.394561 -0.239798 -4.35303e-21)
(0.434748 -0.0438425 2.76521e-21)
(0.506975 0.152024 8.12165e-22)
(0.587362 0.312484 -2.24694e-21)
(0.662134 0.425273 -2.20605e-22)
(0.726607 0.491595 -1.18022e-21)
(0.775313 0.529712 7.95523e-22)
(0.797344 0.571818 1.97043e-22)
(0.789942 0.62825 -2.54646e-21)
(0.770978 0.656187 1.73646e-21)
(0.766965 0.589743 1.08954e-21)
(0.790666 0.403472 -2.3923e-21)
(0.838207 0.137697 4.51671e-22)
(0.894853 -0.127677 -2.44622e-21)
(0.941382 -0.323868 1.00052e-21)
(0.965893 -0.431204 -7.85476e-22)
(0.895112 -0.669762 8.73253e-21)
(0.842384 -0.661404 -2.39357e-21)
(0.783187 -0.62789 -3.07796e-21)
(0.721845 -0.582031 4.81235e-22)
(0.660601 -0.532075 -5.84778e-22)
(0.590751 -0.488629 8.37032e-22)
(0.503999 -0.450759 -7.7761e-22)
(0.424874 -0.383367 2.66065e-21)
(0.397936 -0.24855 4.09523e-22)
(0.431741 -0.0590878 1.2254e-21)
(0.500629 0.135445 -3.21353e-21)
(0.580058 0.297774 2.13773e-21)
(0.655714 0.413664 3.1619e-22)
(0.722153 0.483159 -3.68462e-22)
(0.773002 0.524223 -8.60154e-22)
(0.796888 0.569036 1.58272e-21)
(0.791175 0.627898 -1.32683e-21)
(0.773952 0.657962 -1.09686e-21)
(0.771602 0.593261 4.89878e-21)
(0.796647 0.407916 -1.14284e-21)
(0.84532 0.141768 -8.98569e-22)
(0.902731 -0.124913 7.13392e-21)
(0.949087 -0.322329 -1.51387e-21)
(0.972701 -0.430108 -9.81599e-22)
(0.915997 -0.663024 -9.01491e-21)
(0.860309 -0.655228 2.40682e-21)
(0.798901 -0.622384 -2.45602e-22)
(0.735902 -0.576997 8.25518e-21)
(0.673847 -0.526638 -1.86464e-21)
(0.605218 -0.481433 3.39564e-22)
(0.519591 -0.443463 2.81358e-23)
(0.437142 -0.381733 -4.74683e-21)
(0.402475 -0.256382 6.90603e-22)
(0.429552 -0.0738615 3.1101e-21)
(0.494773 0.118854 8.13373e-22)
(0.57302 0.282788 -1.34942e-21)
(0.649405 0.401669 -7.11618e-24)
(0.717706 0.47433 1.45394e-22)
(0.770649 0.518365 9.40254e-22)
(0.796393 0.565887 -8.87702e-22)
(0.792391 0.627197 -3.65654e-21)
(0.77691 0.659506 1.90286e-21)
(0.776186 0.596773 -8.96582e-22)
(0.802524 0.412586 -5.14629e-21)
(0.852329 0.146194 3.05955e-21)
(0.910568 -0.121775 4.77735e-22)
(0.9568 -0.320482 3.49617e-22)
(0.979533 -0.428807 -1.20346e-21)
(0.936365 -0.655855 1.3475e-20)
(0.8779 -0.648783 7.00721e-21)
(0.81441 -0.616753 -7.83103e-21)
(0.749868 -0.571974 5.116e-21)
(0.686937 -0.521453 -1.73223e-21)
(0.619445 -0.474618 -3.59894e-22)
(0.535281 -0.436135 3.3675e-21)
(0.450237 -0.379355 -5.08673e-22)
(0.40818 -0.263264 -1.65959e-22)
(0.428222 -0.0881058 -5.10348e-22)
(0.489433 0.102301 -1.22016e-21)
(0.566265 0.267553 2.37814e-21)
(0.643217 0.389301 -9.22408e-22)
(0.713266 0.465113 1.56078e-21)
(0.768247 0.512136 -2.47928e-21)
(0.795848 0.562365 -1.92698e-21)
(0.793579 0.626139 4.75711e-21)
(0.779839 0.66081 -1.08221e-21)
(0.780703 0.600271 -3.31062e-22)
(0.80828 0.417474 5.54304e-21)
(0.859216 0.15097 -4.18919e-21)
(0.918352 -0.118267 -3.73439e-23)
(0.964516 -0.318326 -9.4337e-22)
(0.986383 -0.427303 2.87202e-21)
(0.895144 -0.642084 -1.01823e-20)
(0.829701 -0.611007 4.13732e-22)
(0.763733 -0.56696 3.54898e-21)
(0.69988 -0.516504 4.03913e-21)
(0.633405 -0.468207 1.49256e-21)
(0.550982 -0.42886 8.63147e-22)
(0.464047 -0.376306 -2.73777e-21)
(0.415034 -0.269179 2.02291e-22)
(0.427796 -0.101753 5.66299e-22)
(0.484642 0.0858432 1.60691e-22)
(0.559812 0.252098 -6.77028e-22)
(0.637157 0.376574 -3.86363e-22)
(0.708833 0.455513 -1.46379e-21)
(0.765788 0.505535 -3.62717e-22)
(0.795244 0.558465 -1.12586e-22)
(0.794726 0.624716 1.14657e-21)
(0.782728 0.661864 -1.94983e-21)
(0.785142 0.603746 -5.83058e-21)
(0.8139 0.422573 2.08952e-23)
(0.86597 0.15609 -4.46169e-22)
(0.926075 -0.114391 5.25491e-23)
(0.972226 -0.315862 5.58027e-21)
(0.993246 -0.425594 1.80141e-21)
(0.91203 -0.635146 -8.55942e-22)
(0.844763 -0.605155 1.71442e-21)
(0.777486 -0.56195 -4.55616e-21)
(0.712684 -0.511772 1.05863e-21)
(0.647081 -0.462213 3.25332e-21)
(0.566614 -0.421718 -3.75494e-21)
(0.478462 -0.372667 3.91922e-22)
(0.423008 -0.274122 5.0592e-22)
(0.428314 -0.114737 1.33923e-21)
(0.480437 0.0695378 -2.39828e-21)
(0.553683 0.236457 2.57653e-22)
(0.631237 0.363506 2.92437e-21)
(0.704407 0.445537 -9.69392e-22)
(0.763268 0.498561 7.10016e-22)
(0.79457 0.554181 9.71938e-22)
(0.795822 0.62292 -3.24996e-21)
(0.785565 0.662656 5.19e-21)
(0.78949 0.607187 -4.91704e-21)
(0.819368 0.427875 6.99033e-21)
(0.872577 0.161548 -5.32388e-21)
(0.933727 -0.110151 -8.01268e-21)
(0.979924 -0.313087 2.24419e-21)
(1.00012 -0.423681 1.88316e-21)
(0.928548 -0.627987 6.24536e-21)
(0.859586 -0.599206 -3.34838e-21)
(0.791114 -0.556943 2.59865e-21)
(0.725359 -0.507236 5.10981e-22)
(0.660464 -0.456641 4.74668e-22)
(0.582106 -0.414781 -1.84938e-21)
(0.493368 -0.368527 1.6932e-22)
(0.432051 -0.278105 1.7389e-21)
(0.429817 -0.126997 3.10165e-22)
(0.476859 0.0534477 4.53162e-22)
(0.547904 0.220664 -1.77528e-21)
(0.625467 0.350115 1.26183e-21)
(0.699989 0.435194 -1.79423e-22)
(0.76068 0.491216 6.27559e-22)
(0.793818 0.549511 -3.07804e-21)
(0.796853 0.620745 6.07351e-21)
(0.78834 0.663178 2.1062e-21)
(0.793735 0.610584 -5.76833e-21)
(0.824673 0.433373 9.6119e-21)
(0.879026 0.167337 3.24686e-21)
(0.941301 -0.10555 4.91277e-22)
(0.987603 -0.310002 -8.23203e-21)
(1.00699 -0.421562 6.69386e-22)
(0.944691 -0.62062 1.43784e-20)
(0.874163 -0.593171 -5.24881e-21)
(0.804606 -0.551939 -3.17076e-21)
(0.737913 -0.502876 1.05979e-21)
(0.673548 -0.451489 2.83199e-21)
(0.597397 -0.408115 -1.29454e-21)
(0.508655 -0.363976 1.70951e-21)
(0.442098 -0.28115 -5.29643e-22)
(0.432332 -0.138479 4.43794e-22)
(0.473951 0.0376349 -1.10804e-21)
(0.542502 0.204761 -8.94107e-23)
(0.619861 0.336423 -1.82471e-21)
(0.695581 0.424492 7.18132e-22)
(0.75802 0.483502 -3.82516e-22)
(0.792976 0.544452 -1.51259e-21)
(0.79781 0.618182 3.70779e-21)
(0.791041 0.663417 -3.24363e-21)
(0.797869 0.613924 7.93059e-21)
(0.829801 0.439055 -1.52145e-21)
(0.885309 0.173449 1.05395e-21)
(0.948793 -0.100593 -3.51042e-21)
(0.995257 -0.306607 -2.74143e-21)
(1.01386 -0.419238 -1.62857e-21)
(0.960452 -0.613062 4.15704e-21)
(0.888489 -0.587056 -5.69154e-21)
(0.81795 -0.546938 6.60224e-21)
(0.750354 -0.49867 -4.57874e-21)
(0.686335 -0.446749 6.78231e-21)
(0.612431 -0.401778 -4.64847e-21)
(0.524219 -0.359109 7.72749e-22)
(0.453071 -0.283293 -6.71423e-22)
(0.43588 -0.149137 1.3232e-21)
(0.471763 0.0221684 -5.15564e-22)
(0.537509 0.188789 2.33074e-21)
(0.614434 0.322454 -1.80477e-21)
(0.691186 0.413445 2.40824e-21)
(0.755281 0.475422 -1.67626e-21)
(0.792037 0.539002 6.50911e-22)
(0.798681 0.615226 1.90149e-21)
(0.79366 0.663362 -5.758e-21)
(0.801882 0.617196 -3.54555e-21)
(0.834741 0.444911 1.11929e-20)
(0.891421 0.179874 -1.24124e-21)
(0.9562 -0.0952839 3.43928e-21)
(1.00288 -0.3029 -2.29092e-21)
(1.02072 -0.416706 -1.71553e-21)
(0.975828 -0.605327 -7.90733e-23)
(0.90256 -0.580866 -1.98623e-20)
(0.831136 -0.54194 3.3458e-21)
(0.762688 -0.494598 2.99622e-22)
(0.698835 -0.442402 3.92504e-21)
(0.627164 -0.395816 -2.06429e-21)
(0.53996 -0.354019 2.72086e-21)
(0.46488 -0.284582 -1.39338e-21)
(0.440461 -0.158937 -5.58001e-22)
(0.470344 0.00719598 1.69625e-21)
(0.532962 0.172798 -1.0375e-21)
(0.609203 0.308235 6.61424e-22)
(0.68681 0.402065 9.15374e-22)
(0.752462 0.466981 1.52202e-21)
(0.79099 0.53316 -2.43076e-21)
(0.799455 0.61187 -2.86478e-21)
(0.796186 0.663002 2.85521e-21)
(0.805765 0.620385 3.37489e-21)
(0.839481 0.450929 -5.63356e-21)
(0.897358 0.186604 1.51419e-22)
(0.963523 -0.0896278 -5.05249e-21)
(1.01046 -0.298881 4.4919e-21)
(1.02756 -0.413965 3.55838e-21)
(0.990816 -0.597426 -5.03665e-21)
(0.916373 -0.574607 2.24464e-21)
(0.844152 -0.536943 3.13315e-21)
(0.77492 -0.490636 -3.20718e-21)
(0.711059 -0.438429 -1.78144e-21)
(0.641556 -0.39027 2.81515e-23)
(0.555787 -0.348796 1.43199e-21)
(0.47743 -0.285074 2.50186e-23)
(0.446069 -0.167853 -1.55099e-21)
(0.46974 -0.00729457 1.11622e-21)
(0.528895 0.156835 -1.77686e-22)
(0.604192 0.293796 -9.18178e-22)
(0.682459 0.390368 -6.83995e-22)
(0.749557 0.458185 3.80555e-22)
(0.789826 0.526927 1.21467e-23)
(0.800121 0.608108 -3.2419e-21)
(0.798612 0.662323 4.76663e-21)
(0.80951 0.623477 -8.59264e-21)
(0.844013 0.457096 1.29139e-20)
(0.903124 0.193627 -2.56437e-21)
(0.970765 -0.0836294 -5.02589e-21)
(1.01801 -0.294549 -9.17222e-22)
(1.03438 -0.411013 -3.67653e-21)
(1.00541 -0.589381 1.22738e-20)
(0.929928 -0.56829 -7.68229e-21)
(0.856991 -0.531956 3.408e-21)
(0.787052 -0.486773 3.04589e-21)
(0.723023 -0.434807 3.59637e-24)
(0.655579 -0.385173 -5.49597e-22)
(0.571616 -0.343531 8.83075e-24)
(0.490622 -0.284836 -2.17543e-22)
(0.452656 -0.175876 4.47071e-22)
(0.469996 -0.0214427 6.5374e-22)
(0.525366 0.140953 -9.59627e-22)
(0.599429 0.279169 -1.64161e-22)
(0.678142 0.378371 -9.26961e-22)
(0.746566 0.449043 3.28105e-21)
(0.788538 0.520303 -2.12314e-21)
(0.800668 0.603935 1.78422e-21)
(0.800928 0.661313 3.60009e-21)
(0.81311 0.626457 -3.89167e-21)
(0.848329 0.463398 -5.51847e-21)
(0.908731 0.20093 3.21094e-21)
(0.977937 -0.0772931 4.19916e-21)
(1.0255 -0.289901 -6.2314e-21)
(1.04117 -0.407849 -4.11904e-21)
(1.01962 -0.581226 8.41226e-21)
(0.943225 -0.56194 -4.11934e-21)
(0.869645 -0.526999 5.40927e-21)
(0.799084 -0.483006 3.88343e-21)
(0.734747 -0.431516 -5.11831e-21)
(0.669209 -0.380553 4.85442e-22)
(0.587371 -0.338317 5.64071e-22)
(0.504361 -0.283944 1.0552e-21)
(0.460157 -0.183012 -6.35123e-22)
(0.47114 -0.0350927 -3.83617e-22)
(0.522447 0.125206 -4.37907e-22)
(0.594954 0.264391 8.9851e-22)
(0.673877 0.366095 -8.1317e-22)
(0.743489 0.439563 1.88471e-21)
(0.787116 0.513292 -1.00311e-21)
(0.801086 0.599348 -1.24473e-21)
(0.803127 0.659959 4.28065e-22)
(0.816558 0.629308 5.75259e-21)
(0.852422 0.469818 -9.9055e-21)
(0.914202 0.208504 6.90624e-21)
(0.985055 -0.0706198 1.15363e-20)
(1.03294 -0.284933 -1.46402e-20)
(1.04792 -0.404471 5.3741e-21)
(1.03345 -0.572964 -1.27284e-20)
(0.956265 -0.555548 7.8952e-21)
(0.882108 -0.52206 2.24303e-21)
(0.811013 -0.479308 1.317e-21)
(0.746254 -0.428517 -4.12269e-23)
(0.682431 -0.376415 -2.47654e-21)
(0.602984 -0.333224 1.19698e-21)
(0.518554 -0.282465 5.04351e-22)
(0.468506 -0.189256 3.72317e-22)
(0.473187 -0.0480576 6.96195e-23)
(0.520208 0.109646 -8.84674e-22)
(0.590827 0.249498 6.58848e-22)
(0.669693 0.353562 8.99627e-23)
(0.740333 0.429758 -2.51814e-22)
(0.785557 0.505898 -1.20824e-21)
(0.801364 0.594341 2.08935e-21)
(0.805203 0.65825 -1.82713e-21)
(0.819847 0.632015 3.97141e-21)
(0.856292 0.476338 -2.71437e-21)
(0.919576 0.216334 4.78555e-21)
(0.992145 -0.0636105 -4.79781e-21)
(1.04033 -0.279646 3.44854e-21)
(1.05462 -0.400879 -3.61638e-21)
(1.04688 -0.564473 1.46509e-21)
(0.969048 -0.548988 1.19162e-20)
(0.894376 -0.517029 -4.94597e-22)
(0.822837 -0.475576 1.49564e-21)
(0.757564 -0.425701 -3.37768e-21)
(0.695237 -0.372705 -3.39008e-22)
(0.618393 -0.328283 -1.48372e-22)
(0.533116 -0.280443 1.30764e-21)
(0.47763 -0.194594 -7.64878e-22)
(0.476125 -0.0603123 -1.89016e-22)
(0.518729 0.094332 4.49019e-22)
(0.587137 0.234541 -1.08486e-21)
(0.665645 0.3408 1.35335e-22)
(0.73712 0.41964 1.78215e-21)
(0.783858 0.498127 -2.38752e-21)
(0.801494 0.588913 1.53291e-21)
(0.807149 0.656171 4.6379e-23)
(0.822968 0.634559 2.92001e-21)
(0.859952 0.482934 -3.28255e-22)
(0.924928 0.224384 -9.53053e-22)
(0.999244 -0.0562924 3.97147e-21)
(1.04765 -0.274044 -9.26663e-21)
(1.06127 -0.397053 5.87222e-21)
(1.05993 -0.555701 -1.37151e-20)
(0.981574 -0.542211 1.88687e-21)
(0.906441 -0.511867 1.41407e-21)
(0.834545 -0.471771 8.99825e-22)
(0.768696 -0.423013 1.48747e-21)
(0.70762 -0.369406 5.12745e-22)
(0.633539 -0.323562 3.26845e-22)
(0.547964 -0.277971 -2.4461e-22)
(0.487446 -0.199065 1.87795e-23)
(0.479911 -0.0718483 -1.05608e-22)
(0.518093 0.0793425 -1.96929e-22)
(0.58402 0.21959 5.71899e-22)
(0.661834 0.327856 -8.32942e-22)
(0.733899 0.409236 2.04068e-21)
(0.782032 0.489993 -2.89648e-21)
(0.801473 0.583063 2.04612e-21)
(0.808965 0.653707 -1.82344e-21)
(0.825917 0.636907 1.23565e-23)
(0.863441 0.489544 3.12603e-22)
(0.930378 0.232585 3.34363e-21)
(1.00641 -0.0487151 -3.13836e-21)
(1.05491 -0.268111 -4.62475e-21)
(1.06786 -0.392966 6.30827e-21)
(0.993842 -0.535889 6.6377e-21)
(0.9183 -0.507165 -4.03705e-21)
(0.846128 -0.46838 6.86456e-22)
(0.779669 -0.420822 4.21374e-21)
(0.719585 -0.366833 -1.2521e-21)
(0.648371 -0.319397 9.77458e-23)
(0.563025 -0.275368 1.12892e-21)
(0.497882 -0.202919 -4.83486e-22)
(0.484478 -0.0828275 1.87441e-22)
(0.518375 0.0646108 -3.68236e-23)
(0.581671 0.20464 -1.27104e-22)
(0.65845 0.314767 1.04095e-21)
(0.73079 0.398586 -1.13413e-21)
(0.780126 0.481518 1.29294e-21)
(0.801317 0.576804 -3.39358e-21)
(0.810662 0.650855 4.91819e-21)
(0.828704 0.639039 -4.58688e-21)
(0.866884 0.496165 -3.78153e-21)
(0.936141 0.241067 8.32328e-21)
(1.01371 -0.0407015 -6.81167e-21)
(1.06211 -0.26175 -3.06153e-21)
(1.07438 -0.388682 3.66863e-21)
(1.00588 -0.530926 -3.04756e-22)
(0.929977 -0.5037 1.90345e-21)
(0.857606 -0.466036 1.20318e-21)
(0.790522 -0.419614 -3.15669e-21)
(0.731157 -0.365374 -1.29914e-21)
(0.662855 -0.316117 3.99992e-22)
(0.578243 -0.272871 -3.51383e-22)
(0.508881 -0.206332 -7.19113e-23)
(0.489742 -0.0935285 2.56432e-22)