/*--------------------------------*- C++ -*----------------------------------*\
  =========                 |
  \\      /  F ield         | OpenFOAM: The Open Source CFD Toolbox
   \\    /   O peration     | Website:  https://openfoam.org
    \\  /    A nd           | Version:  7
     \\/     M anipulation  |
\*---------------------------------------------------------------------------*/
FoamFile
{
    version     2.0;
    format      ascii;
    class       volScalarField;
    location    "120";
    object      p;
}
// * * * * * * * * * * * * * * * * * * * * * * * * * * * * * * * * * * * * * //

dimensions      [0 2 -2 0 0 0 0];

internalField   nonuniform List<scalar> 
4575
(
-0.0974
-0.101035
-0.0879801
-0.118652
-0.104361
-0.0910542
-0.0783816
-0.123033
-0.107635
-0.093793
-0.0808866
-0.0686122
-0.127855
-0.111319
-0.0964011
-0.0830296
-0.0705406
-0.0586801
-0.133187
-0.115396
-0.0993763
-0.0849616
-0.0720806
-0.0600258
-0.0485943
-0.13912
-0.119924
-0.102693
-0.0872157
-0.0733274
-0.0609569
-0.0493528
-0.0383651
-0.145741
-0.124992
-0.106403
-0.0897603
-0.07485
-0.0615107
-0.0496702
-0.0385334
-0.0280041
-0.153128
-0.130682
-0.11059
-0.0926385
-0.0766109
-0.0622923
-0.0495245
-0.0382333
-0.0275804
-0.0175245
-0.161334
-0.137074
-0.115334
-0.0959309
-0.0786455
-0.0632594
-0.0495565
-0.0373825
-0.0266599
-0.0165083
-0.00694225
-0.170327
-0.144219
-0.120713
-0.0997152
-0.0810312
-0.0644397
-0.0497206
-0.0366572
-0.0250992
-0.0149646
-0.00533255
0.00372453
-0.179915
-0.152097
-0.126782
-0.104068
-0.083844
-0.0659085
-0.0500375
-0.0360098
-0.0236091
-0.0126895
-0.00316241
0.00592977
0.0144546
-0.189598
-0.160529
-0.133529
-0.109048
-0.0871603
-0.0677403
-0.0505808
-0.0354555
-0.0221426
-0.0104273
-0.000168648
0.00873114
0.0172603
0.0252214
-0.198415
-0.169045
-0.140788
-0.114648
-0.0910399
-0.0700114
-0.0514245
-0.0350668
-0.0207107
-0.00813491
0.00287312
0.0124486
0.0207008
0.0286386
0.0359895
-0.176719
-0.148118
-0.120721
-0.095484
-0.0727835
-0.0526447
-0.0349177
-0.0193857
-0.00582071
0.00599773
0.0162778
0.0251481
0.0327322
0.0400431
0.0467167
-0.182018
-0.154629
-0.12685
-0.10036
-0.0760647
-0.054305
-0.0350841
-0.0182417
-0.00355719
0.00919702
0.0202397
0.0297727
0.0379167
0.0448136
0.0514576
0.0573691
-0.182777
-0.158833
-0.132184
-0.105276
-0.0797366
-0.0564199
-0.0356314
-0.0173543
-0.00141868
0.0123986
0.0243246
0.0345755
0.0433442
0.0507422
0.0569379
0.0628786
0.0679182
-0.158603
-0.135279
-0.109422
-0.0834345
-0.0588851
-0.03658
-0.0167904
0.000519454
0.0155282
0.0284609
0.0395438
0.0489899
0.056979
0.063615
0.0691073
0.0743026
0.0782603
-0.151495
-0.134055
-0.111402
-0.0863855
-0.0613615
-0.0378393
-0.0165762
0.00218943
0.0185111
0.0325751
0.0446083
0.0548361
0.0634672
0.0706658
0.0765358
0.0813426
0.0856929
0.0881176
-0.13549
-0.1261
-0.109182
-0.0872446
-0.0631154
-0.0390953
-0.016634
0.00355994
0.0212791
0.036594
0.0496977
0.0608187
0.0701819
0.0779908
0.0843956
0.0895203
0.0936867
0.0970071
0.0972428
-0.109371
-0.100388
-0.0840295
-0.0628535
-0.0396539
-0.0166746
0.00469568
0.0237959
0.0404488
0.0547406
0.0668707
0.077069
0.0855598
0.092542
0.0981588
0.102581
0.106153
0.108283
0.106321
-0.0827767
-0.0829664
-0.074411
-0.0586486
-0.0382748
-0.0160437
0.00586142
0.0261137
0.0440989
0.0596684
0.0729231
0.0840682
0.0933349
0.100947
0.107099
0.111937
0.115687
0.11863
0.119463
0.118155
-0.0556286
-0.0563284
-0.0482204
-0.0330882
-0.0135548
0.00767208
0.0284732
0.0475838
0.0644354
0.078907
0.091113
0.101264
0.109591
0.116319
0.121638
0.125703
0.128767
0.131027
0.131116
0.130556
-0.028297
-0.0295108
-0.0218691
-0.00739884
0.0112592
0.0314499
0.0511208
0.0690694
0.0847719
0.0981335
0.109281
0.11843
0.125813
0.131651
0.136136
0.139428
0.141787
0.143344
0.142841
0.142364
-0.000837916
-0.00256821
0.0045895
0.0183686
0.0361197
0.055246
0.073764
0.0905336
0.105074
0.117317
0.127399
0.135541
0.141974
0.14692
0.150568
0.153084
0.154727
0.155588
0.154539
0.153843
0.0266924
0.0244446
0.0311018
0.0441632
0.0609792
0.0790164
0.0963625
0.111939
0.125309
0.136425
0.145437
0.152568
0.158049
0.162101
0.164911
0.166648
0.167566
0.167734
0.166135
0.165077
0.0542375
0.0514723
0.0576139
0.0699338
0.0857899
0.102717
0.118876
0.13325
0.145441
0.155427
0.163366
0.169484
0.174012
0.177169
0.17914
0.180097
0.180285
0.17976
0.177593
0.176091
0.0817409
0.0784594
0.0840719
0.0956293
0.110504
0.126304
0.141264
0.154427
0.165437
0.174291
0.181157
0.186262
0.189839
0.192101
0.193234
0.193408
0.192863
0.191645
0.188894
0.186899
0.109146
0.10535
0.110422
0.121199
0.135075
0.149734
0.163487
0.175436
0.185263
0.192986
0.198781
0.202876
0.205502
0.206872
0.20717
0.206563
0.205283
0.203369
0.200024
0.197506
0.136396
0.13209
0.13661
0.146591
0.159454
0.172963
0.185504
0.196238
0.204885
0.211481
0.216208
0.219298
0.220979
0.221461
0.220926
0.21954
0.217527
0.214918
0.210973
0.207912
0.163436
0.158622
0.162584
0.171756
0.183596
0.195949
0.207276
0.216798
0.224269
0.229744
0.233411
0.235502
0.236244
0.235844
0.234481
0.23232
0.229578
0.226276
0.221729
0.218114
0.190208
0.184893
0.188289
0.196644
0.207453
0.218647
0.228763
0.23708
0.243383
0.247745
0.25036
0.251461
0.251272
0.249999
0.247816
0.244886
0.241419
0.237429
0.232283
0.216659
0.210848
0.213675
0.221205
0.23098
0.241017
0.249928
0.257047
0.262193
0.265454
0.267029
0.267151
0.266042
0.263904
0.260909
0.257218
0.253033
0.248363
0.242622
0.242734
0.236433
0.238688
0.24539
0.254132
0.263017
0.270732
0.276665
0.280668
0.282841
0.283389
0.282544
0.280528
0.277537
0.273742
0.2693
0.264405
0.259063
0.252736
0.268378
0.261596
0.263278
0.269153
0.276864
0.284605
0.291137
0.2959
0.298775
0.299876
0.299414
0.297618
0.294707
0.290877
0.286295
0.281113
0.27552
0.269516
0.293538
0.286284
0.287396
0.292445
0.299133
0.305742
0.311106
0.314717
0.316483
0.316531
0.315076
0.312347
0.308559
0.303905
0.298548
0.29264
0.286361
0.279709
0.318164
0.310447
0.310991
0.31522
0.320896
0.326388
0.330604
0.333083
0.333762
0.332779
0.330351
0.326706
0.322059
0.316598
0.310484
0.303865
0.296914
0.289628
0.342204
0.334034
0.334017
0.337435
0.342111
0.346506
0.349595
0.350966
0.350581
0.34859
0.345212
0.340674
0.335188
0.328939
0.322085
0.314771
0.307163
0.299259
0.365608
0.356998
0.356426
0.359044
0.362738
0.366057
0.368045
0.368334
0.366912
0.363938
0.359634
0.354226
0.347923
0.340906
0.333332
0.325342
0.317095
0.388328
0.37929
0.378173
0.380005
0.382738
0.385006
0.38592
0.385157
0.382727
0.378798
0.373595
0.367342
0.360244
0.352483
0.344209
0.335562
0.326694
0.410317
0.400864
0.399214
0.400277
0.402071
0.403317
0.403188
0.401405
0.397997
0.393144
0.387069
0.379998
0.372132
0.363649
0.354699
0.345416
0.335948
0.431531
0.421677
0.419506
0.419819
0.420702
0.420956
0.419818
0.417048
0.412697
0.406951
0.400036
0.392175
0.383568
0.374389
0.364785
0.354889
0.344841
0.451925
0.441684
0.439008
0.438594
0.438594
0.43789
0.43578
0.43206
0.426801
0.420195
0.412472
0.403852
0.394532
0.384683
0.374452
0.363966
0.471456
0.460846
0.45768
0.456565
0.455714
0.454089
0.451044
0.446413
0.440283
0.432855
0.424357
0.415009
0.405006
0.394517
0.383684
0.372634
0.490086
0.479122
0.475486
0.473695
0.472028
0.469521
0.465584
0.460082
0.453121
0.444908
0.435671
0.425629
0.414975
0.403875
0.392468
0.38088
0.507775
0.496475
0.492388
0.489952
0.487506
0.484158
0.479371
0.473042
0.465292
0.456333
0.446395
0.435694
0.424421
0.41274
0.400789
0.38869
0.524487
0.512868
0.508353
0.505303
0.502117
0.497974
0.492383
0.485271
0.476775
0.467111
0.45651
0.445186
0.433329
0.4211
0.408634
0.396052
0.540188
0.528269
0.523348
0.519717
0.515835
0.510941
0.504593
0.496747
0.487549
0.477223
0.465998
0.45409
0.441684
0.428939
0.415991
0.554844
0.542645
0.537343
0.533168
0.528631
0.523036
0.515982
0.507448
0.497595
0.486651
0.474845
0.462391
0.449472
0.436247
0.422847
0.568426
0.555966
0.55031
0.545627
0.540483
0.534237
0.526526
0.517355
0.506896
0.495379
0.483034
0.470074
0.45668
0.443009
0.429192
0.580905
0.568205
0.562221
0.55707
0.551367
0.544521
0.536208
0.526452
0.515435
0.503391
0.490552
0.477127
0.463297
0.449217
0.435015
0.592255
0.579337
0.573053
0.567476
0.561262
0.553871
0.545009
0.53472
0.523197
0.510675
0.497385
0.483537
0.46931
0.454858
0.440307
0.602453
0.589337
0.582783
0.576822
0.57015
0.562267
0.552913
0.542146
0.530168
0.517216
0.503522
0.489294
0.474711
0.459924
0.445059
0.611478
0.598186
0.591392
0.58509
0.578011
0.569695
0.559905
0.548716
0.536335
0.523003
0.508951
0.494388
0.479489
0.464406
0.449263
0.619309
0.605864
0.598862
0.592263
0.584833
0.576141
0.565972
0.554417
0.541687
0.528026
0.513664
0.498809
0.483637
0.468297
0.452913
0.625931
0.612355
0.605176
0.598328
0.5906
0.58159
0.571103
0.559239
0.546215
0.532275
0.517652
0.502551
0.487148
0.47159
0.456002
0.631329
0.617645
0.610323
0.603271
0.595301
0.586034
0.575289
0.563174
0.54991
0.535744
0.520908
0.505606
0.490014
0.474279
0.458525
0.635491
0.621723
0.61429
0.607082
0.598928
0.589463
0.57852
0.566212
0.552765
0.538425
0.523425
0.507969
0.492232
0.476361
0.460478
0.638409
0.62458
0.617069
0.609754
0.601472
0.591871
0.58079
0.56835
0.554775
0.540315
0.5252
0.509636
0.493798
0.47783
0.640075
0.626208
0.618654
0.611279
0.602927
0.593252
0.582096
0.569581
0.555936
0.541408
0.526229
0.510604
0.494707
0.478685
0.640484
0.626604
0.61904
0.611655
0.603291
0.593603
0.582433
0.569904
0.556245
0.541702
0.526509
0.51087
0.49496
0.478924
0.639636
0.625765
0.618226
0.610879
0.602562
0.592922
0.581801
0.569318
0.555701
0.541197
0.52604
0.510434
0.494554
0.478546
0.63753
0.623693
0.616213
0.608953
0.600739
0.591211
0.5802
0.567822
0.554304
0.539893
0.524822
0.509296
0.49349
0.477551
0.63417
0.62039
0.613002
0.605878
0.597827
0.588471
0.577632
0.565419
0.552057
0.537792
0.522857
0.507458
0.491769
0.47594
0.629562
0.615862
0.608601
0.601661
0.593829
0.584707
0.574101
0.562113
0.548963
0.534897
0.520147
0.504922
0.489395
0.473717
0.458011
0.623713
0.610116
0.603015
0.596307
0.588752
0.579925
0.569612
0.557908
0.545026
0.531212
0.516698
0.501692
0.48637
0.470884
0.455357
0.616634
0.603164
0.596256
0.589827
0.582605
0.574132
0.564174
0.552811
0.540253
0.526743
0.512513
0.497773
0.4827
0.467445
0.452135
0.608338
0.595019
0.588335
0.582231
0.575397
0.567338
0.557794
0.546832
0.534652
0.521497
0.5076
0.493171
0.478389
0.463407
0.448351
0.598842
0.585694
0.579267
0.573533
0.567142
0.559556
0.550485
0.539978
0.528231
0.515483
0.501967
0.487894
0.473445
0.458774
0.444009
0.588162
0.575208
0.569068
0.563749
0.557854
0.550797
0.542257
0.532263
0.521002
0.50871
0.495622
0.48195
0.467876
0.453555
0.439117
0.576319
0.563581
0.557758
0.552897
0.54755
0.541078
0.533125
0.523698
0.512975
0.50119
0.488577
0.475348
0.46169
0.447757
0.433683
0.563336
0.550836
0.545358
0.540996
0.536247
0.530416
0.523104
0.514299
0.504165
0.492935
0.480841
0.4681
0.454896
0.44139
0.427714
0.549238
0.536995
0.531891
0.528068
0.523967
0.518828
0.512212
0.50408
0.494587
0.483958
0.472429
0.460215
0.447507
0.434463
0.42122
0.534051
0.522087
0.517382
0.514137
0.51073
0.506335
0.500468
0.49306
0.484255
0.474274
0.463353
0.451709
0.439532
0.426987
0.414211
0.517807
0.50614
0.50186
0.499229
0.496561
0.49296
0.487891
0.481257
0.473188
0.4639
0.453628
0.442593
0.430986
0.418975
0.406697
0.500535
0.489185
0.485353
0.483371
0.481485
0.478725
0.474503
0.468691
0.461403
0.452852
0.443271
0.432883
0.421882
0.410438
0.398691
0.386766
0.48227
0.471255
0.467894
0.466593
0.46553
0.463656
0.460328
0.455384
0.448922
0.441148
0.432298
0.422594
0.412234
0.401389
0.390204
0.378805
0.463048
0.452385
0.449515
0.448926
0.448724
0.447779
0.445389
0.441358
0.435764
0.428809
0.420727
0.411743
0.402057
0.391844
0.381249
0.370405
0.442906
0.432612
0.430253
0.430404
0.431098
0.431123
0.429714
0.426636
0.421952
0.415854
0.408577
0.400347
0.391368
0.381816
0.371842
0.361577
0.421885
0.411976
0.410145
0.411061
0.412685
0.413718
0.413329
0.411246
0.407509
0.402305
0.395868
0.388425
0.380183
0.371322
0.361994
0.352336
0.400024
0.390517
0.389229
0.390934
0.393518
0.395593
0.396263
0.395212
0.392459
0.388185
0.38262
0.375996
0.368521
0.360378
0.351723
0.342695
0.333446
0.377369
0.368277
0.367546
0.37006
0.373633
0.376783
0.378546
0.378562
0.376828
0.373516
0.368856
0.363079
0.356399
0.349001
0.341043
0.332668
0.324035
0.353964
0.3453
0.345138
0.348479
0.353065
0.35732
0.360208
0.361324
0.360643
0.358324
0.354597
0.349696
0.343837
0.337208
0.32997
0.322271
0.314275
0.329855
0.321633
0.322049
0.326233
0.331853
0.337239
0.341282
0.343529
0.343929
0.342633
0.339868
0.335868
0.330854
0.325017
0.318522
0.311518
0.304178
0.305091
0.297322
0.298325
0.303364
0.310036
0.316577
0.321802
0.325207
0.326716
0.326469
0.324691
0.321617
0.317471
0.312447
0.306714
0.300425
0.293759
0.286716
0.279721
0.272416
0.274012
0.279915
0.287655
0.29537
0.3018
0.306389
0.309033
0.30986
0.309091
0.306966
0.303708
0.299518
0.294566
0.289009
0.283033
0.276639
0.253796
0.246965
0.249158
0.255931
0.264751
0.273658
0.281313
0.287108
0.290909
0.292832
0.293095
0.291938
0.289588
0.28625
0.282095
0.277286
0.272015
0.266286
0.227367
0.22102
0.223812
0.231459
0.241366
0.251478
0.260376
0.267397
0.272375
0.275414
0.276728
0.276557
0.275133
0.272662
0.26932
0.265273
0.26072
0.255669
0.249579
0.200489
0.194634
0.198025
0.206546
0.217546
0.228872
0.239027
0.247289
0.253463
0.257635
0.260016
0.260848
0.260364
0.258775
0.25626
0.252986
0.249164
0.244802
0.239313
0.173216
0.167859
0.171847
0.18124
0.193333
0.205881
0.217303
0.226821
0.234203
0.239523
0.242987
0.244836
0.245305
0.24461
0.242933
0.240444
0.237362
0.233699
0.228819
0.145601
0.14075
0.14533
0.155589
0.168774
0.182546
0.195243
0.206026
0.214629
0.22111
0.225668
0.228545
0.22998
0.230189
0.22936
0.227665
0.22533
0.222375
0.21811
0.214754
0.117702
0.113362
0.118528
0.129644
0.143914
0.158909
0.172884
0.18494
0.194774
0.202426
0.208088
0.212003
0.214412
0.215535
0.215561
0.214667
0.213085
0.210843
0.207198
0.204417
0.0895748
0.0857497
0.0914947
0.103456
0.118802
0.135015
0.150268
0.163601
0.174672
0.183501
0.190275
0.195236
0.198626
0.200668
0.201557
0.201468
0.200643
0.199119
0.196094
0.193877
0.0612763
0.0579699
0.0642833
0.0770748
0.0934828
0.110905
0.127435
0.142044
0.154355
0.164366
0.172257
0.178269
0.182646
0.185613
0.187368
0.188087
0.188022
0.187216
0.18481
0.183142
0.0328641
0.0300788
0.0369489
0.0505527
0.068006
0.086626
0.104423
0.120308
0.133858
0.145054
0.154065
0.161131
0.166497
0.170393
0.173015
0.174545
0.175239
0.175151
0.173356
0.172215
0.0043959
0.00213328
0.0095464
0.0239414
0.0424195
0.0622205
0.0812756
0.0984288
0.113217
0.125596
0.135727
0.143848
0.150205
0.15503
0.158522
0.160861
0.162313
0.162941
0.161746
0.161099
-0.0240704
-0.0258099
-0.0178691
-0.00270676
0.0167718
0.0377338
0.0580322
0.0764449
0.0924647
0.106024
0.117274
0.126449
0.133796
0.13955
0.14391
0.147057
0.149262
0.150605
0.149994
0.149788
-0.0524769
-0.053694
-0.0452423
-0.0293394
-0.00888839
0.0132107
0.0347345
0.054394
0.0716368
0.0863701
0.0987343
0.10896
0.117295
0.123976
0.129203
0.133155
0.136108
0.138166
0.138123
0.138273
-0.0807657
-0.0814624
-0.0725181
-0.0559042
-0.0345122
-0.0113037
0.0114236
0.0323138
0.050768
0.0666669
0.0801386
0.0914101
0.100729
0.108333
0.114425
0.119177
0.122869
0.125647
0.126172
0.126534
-0.108879
-0.109059
-0.0996416
-0.082349
-0.060051
-0.0357646
-0.0118593
0.0102422
0.0298931
0.0469461
0.0615165
0.0738264
0.0841234
0.0926458
0.0995995
0.105149
0.109566
0.113073
0.114227
0.114499
-0.13676
-0.136428
-0.126558
-0.108622
-0.085456
-0.0601272
-0.0350731
-0.0117832
0.00904652
0.0272398
0.0428976
0.0562369
0.0675044
0.0769397
0.0847519
0.091098
0.0962201
0.100436
0.102389
0.101906
-0.163514
-0.153213
-0.13467
-0.110679
-0.0843468
-0.0581768
-0.0337251
-0.0117372
0.00757963
0.0243112
0.0386687
0.0508978
0.0612388
0.0699057
0.0770526
0.0828644
0.0877293
0.0910603
0.0899833
-0.190265
-0.179554
-0.160444
-0.135672
-0.108379
-0.0811302
-0.0555462
-0.0324242
-0.0120031
0.0057863
0.0211489
0.034329
0.0455677
0.0550843
0.0630405
0.0695709
0.0750346
0.079587
0.0808039
-0.205527
-0.185893
-0.160388
-0.132181
-0.103893
-0.07721
-0.0529807
-0.0314775
-0.0126486
0.00370381
0.0178226
0.0299496
0.0403095
0.0490793
0.056371
0.0624776
0.0680634
0.0715392
-0.210967
-0.18478
-0.155709
-0.126426
-0.0986803
-0.0733738
-0.0508132
-0.0309656
-0.013641
0.00140197
0.0144061
0.0256006
0.035179
0.043253
0.0500527
0.0564863
0.0615304
-0.235619
-0.208802
-0.17892
-0.148689
-0.119922
-0.0935711
-0.0699807
-0.0491376
-0.0308606
-0.0149103
-0.00104289
0.0109744
0.0213488
0.0302004
0.0377144
0.0449012
0.0510517
-0.232409
-0.201773
-0.170646
-0.140899
-0.113541
-0.0889508
-0.067138
-0.0479309
-0.0310926
-0.0163785
-0.00355328
0.00760028
0.0172119
0.0254382
0.0333375
0.0403839
-0.224227
-0.192258
-0.161579
-0.133252
-0.107695
-0.0849411
-0.0648284
-0.047124
-0.0315826
-0.0179671
-0.00605346
0.00429667
0.01322
0.0217945
0.0296237
-0.213489
-0.181927
-0.152674
-0.126187
-0.102522
-0.0815306
-0.0629839
-0.046637
-0.0322515
-0.0195987
-0.00853304
0.00106671
0.0102742
0.0187958
-0.234304
-0.201912
-0.171777
-0.144398
-0.119856
-0.0980151
-0.0786524
-0.0615239
-0.0463908
-0.0330216
-0.0212642
-0.0110102
-0.00120749
0.00793437
-0.221503
-0.190534
-0.162304
-0.13692
-0.114261
-0.0941102
-0.0762259
-0.0603694
-0.0463076
-0.033883
-0.0229968
-0.0126292
-0.00291759
-0.208917
-0.179879
-0.15369
-0.130247
-0.109338
-0.0907257
-0.0741714
-0.0594419
-0.0463745
-0.0348778
-0.0239707
-0.0137241
-0.197099
-0.170146
-0.145953
-0.124318
-0.105006
-0.0877812
-0.0724093
-0.0587237
-0.0466381
-0.0352138
-0.0244584
-0.186266
-0.16136
-0.139033
-0.119052
-0.101183
-0.085195
-0.0709157
-0.0582626
-0.0463414
-0.035099
-0.17645
-0.153464
-0.132845
-0.114363
-0.0977845
-0.0829361
-0.0697367
-0.0573379
-0.0456274
-0.167596
-0.146373
-0.127305
-0.110164
-0.0947709
-0.0810467
-0.0681889
-0.0560275
-0.159619
-0.139997
-0.12232
-0.106407
-0.09218
-0.0788816
-0.0662858
-0.152424
-0.13424
-0.117833
-0.103125
-0.0894042
-0.0763908
-0.145912
-0.129037
-0.11387
-0.0997462
-0.0863323
-0.140009
-0.124406
-0.109898
-0.0961012
-0.119852
-0.10569
-0.11509
0.0990302
0.0898757
0.080214
0.0708782
0.0612537
0.0513404
0.0413733
0.0314229
0.0214874
0.0115893
0.00176122
-0.00797598
-0.0176098
-0.0271297
-0.036526
-0.0457906
-0.0549168
-0.0638988
-0.0727315
-0.0814101
-0.0899307
0.0876709
0.0781754
0.0675196
0.058234
0.0493173
0.0401742
0.0310019
0.0219736
0.0130773
0.00428285
-0.00440408
-0.0129718
-0.0214176
-0.0297416
-0.0379429
-0.0460197
-0.0539701
-0.0617926
-0.0694857
-0.0770476
-0.084477
0.0750036
0.0658686
0.0557352
0.0472394
0.0394017
0.0314003
0.0233195
0.0153703
0.00756885
-0.00013312
-0.00774836
-0.0152676
-0.0226854
-0.0300015
-0.0372155
-0.0443255
-0.051329
-0.0582241
-0.065009
-0.0716819
-0.0782413
0.0628785
0.0544856
0.0454165
0.0378851
0.0309959
0.0239644
0.0168258
0.00978471
0.00288057
-0.00392775
-0.0106586
-0.0173047
-0.0238585
-0.0303185
-0.0366847
-0.0429564
-0.0491322
-0.0552112
-0.0611928
-0.0670766
-0.0728623
0.0524691
0.0449593
0.0369991
0.0303592
0.0242683
0.0180582
0.0117491
0.00551915
-0.000587419
-0.0066029
-0.0125466
-0.0184148
-0.0242012
-0.0299042
-0.0355248
-0.0410632
-0.046519
-0.0518921
-0.0571825
-0.0623901
-0.0675152
0.0437536
0.0370493
0.0300702
0.0241974
0.0187766
0.0132624
0.0076711
0.00214961
-0.00326265
-0.00859122
-0.0138537
-0.0190489
-0.0241719
-0.0292216
-0.0341989
-0.0391046
-0.0439389
-0.048702
-0.0533941
-0.0580156
-0.0625669
0.0364401
0.0304405
0.0243279
0.019141
0.014316
0.00941797
0.00446515
-0.000424285
-0.00521883
-0.00993915
-0.0146002
-0.0192019
-0.0237409
-0.0282165
-0.0326295
-0.036981
-0.0412716
-0.0455015
-0.0496713
-0.0537815
-0.0578328
0.0303165
0.0249465
0.0196025
0.0150307
0.0107391
0.00638681
0.00199738
-0.00233468
-0.00658583
-0.010773
-0.0149084
-0.0189922
-0.0230219
-0.0269972
-0.030919
-0.0347883
-0.0386056
-0.0423714
-0.0460864
-0.049751
-0.0533658
0.0252361
0.0204346
0.0157672
0.0117399
0.00792193
0.00405154
0.000157528
-0.00368462
-0.00745828
-0.0111776
-0.014852
-0.0184818
-0.0220654
-0.0256024
-0.0290938
-0.0325405
-0.035943
-0.039302
-0.042618
-0.0458915
-0.0491232
0.0210652
0.0167746
0.0126977
0.00914779
0.00574828
0.00230244
-0.00115655
-0.00456876
-0.00792328
-0.011232
-0.0145022
-0.0177342
-0.0209266
-0.0240795
-0.0271937
-0.03027
-0.0333089
-0.0363111
-0.039277
-0.0422072
-0.0451022
0.0176769
0.013843
0.0102791
0.00714666
0.00411655
0.00104501
-0.00203171
-0.00506634
-0.0080526
-0.0110005
-0.0139157
-0.0167982
-0.0196471
-0.0224624
-0.0252451
-0.0279957
-0.0307148
-0.0334028
-0.0360603
-0.0386878
-0.0412858
0.0149576
0.0115305
0.00841163
0.005644
0.00294017
0.000198884
-0.00254168
-0.00524451
-0.00790695
-0.0105376
-0.0131405
-0.0157156
-0.0182621
-0.0207805
-0.0232712
-0.025735
-0.0281721
-0.0305832
-0.0329686
-0.0353287
-0.0376641
0.0128081
0.00974314
0.00700981
0.00456102
0.00214548
-0.000304238
-0.00274901
-0.00516004
-0.00753747
-0.00988864
-0.0122165
-0.0145208
-0.016801
-0.0190575
-0.0212908
-0.0235013
-0.0256896
-0.0278559
-0.0300006
-0.0321242
-0.034227
0.0111428
0.00839979
0.00600038
0.00383019
0.00166946
-0.000522688
-0.00270696
-0.00486115
-0.00698748
-0.00909228
-0.0111776
-0.013243
-0.0152881
-0.0173133
-0.019319
-0.0213057
-0.0232737
-0.0252232
-0.0271547
-0.0290685
-0.0309648
0.0098874
0.00743045
0.00532019
0.00339349
0.00145809
-0.000506328
-0.00246097
-0.00438885
-0.00629369
-0.00818098
-0.010052
-0.0119063
-0.0137437
-0.0155643
-0.0173686
-0.019157
-0.0209297
-0.0226871
-0.0244293
-0.0261566
-0.0278694
0.00897755
0.00677474
0.00491491
0.00320113
0.00146514
-0.000297754
-0.00204976
-0.00377799
-0.00548722
-0.00718225
-0.00886382
-0.0105313
-0.0121846
-0.013824
-0.0154498
-0.0170623
-0.0186617
-0.0202482
-0.0218221
-0.0233836
-0.0249329
0.0083577
0.00638067
0.00473783
0.00321042
0.00165104
6.66595e-05
-0.00150631
-0.00305821
-0.00459448
-0.00611932
-0.00763306
-0.00913508
-0.0106252
-0.0121038
-0.0135711
-0.0150273
-0.0164725
-0.0179071
-0.0193311
-0.0207448
-0.0221483
0.00797999
0.00620356
0.00474892
0.00338479
0.00198195
0.000555873
-0.000858725
-0.00225468
-0.00363781
-0.0050118
-0.0063767
-0.00773185
-0.00907712
-0.0104128
-0.0117391
-0.0130562
-0.0143642
-0.0156633
-0.0169536
-0.0182354
-0.0195086
0.00780319
0.00620509
0.00491381
0.00369289
0.00242897
0.00114341
-0.000130922
-0.00138878
-0.00263614
-0.00387626
-0.00510897
-0.00633359
-0.00755004
-0.00875853
-0.00995928
-0.0111524
-0.012338
-0.0135162
-0.0146872
-0.015851
-0.0170077
0.00779186
0.00635238
0.00520307
0.00410793
0.00296739
0.0018067
0.00065677
-0.00047863
-0.00160546
-0.0027266
-0.00384175
-0.00495022
-0.00605194
-0.0071471
-0.00823588
-0.00931838
-0.0103947
-0.0114648
-0.012529
-0.0135872
-0.0146396
0.00791557
0.00661727
0.00559151
0.00460698
0.00357614
0.00252656
0.0014871
0.000460438
-0.000559238
-0.0015745
-0.00258494
-0.0035899
-0.00458931
-0.00558333
-0.00657212
-0.00755574
-0.00853424
-0.0095077
-0.0104762
-0.0114398
-0.0123986
0.0081482
0.00697569
0.0060576
0.00517048
0.0042373
0.00328669
0.00234547
0.00141551
0.000491231
-0.000429668
-0.00134672
-0.0022593
-0.00316733
-0.00407096
-0.0049703
-0.00586541
-0.00675632
-0.00764308
-0.00852575
-0.00940438
-0.010279
0.00846741
0.00740707
0.00658299
0.0057818
0.00493565
0.00407332
0.0032196
0.00237577
0.00153654
0.000699864
-0.000133775
-0.000963776
-0.00179006
-0.00261277
-0.00343198
-0.00424774
-0.00506006
-0.00586898
-0.00667454
-0.00747679
-0.00827576
0.00885411
0.00789392
0.00715206
0.0064268
0.00565831
0.00487483
0.00409915
0.00333214
0.00256887
0.00180748
0.00104847
0.000292393
-0.000460665
-0.00121082
-0.00195814
-0.00270265
-0.00344437
-0.0041833
-0.00491948
-0.00565294
-0.00638371
0.00929201
0.00842135
0.00775155
0.00709351
0.00639441
0.00568145
0.00497551
0.00427714
0.0035818
0.00288782
0.00219567
0.00150587
0.000818521
0.000133512
-0.000549213
-0.00122966
-0.00190783
-0.00258374
-0.0032574
-0.00392883
-0.00459806
0.0097673
0.00897676
0.00837028
0.00777186
0.00713485
0.00648505
0.0058415
0.00520458
0.00457009
0.00393656
0.00330441
0.00267415
0.00204584
0.00141942
0.000794833
0.000172082
-0.000448827
-0.0010679
-0.00168514
-0.00230055
-0.00291417
0.0102683
0.00954954
0.00899883
0.00845339
0.00787203
0.00727889
0.00669127
0.00610943
0.00552956
0.00495032
0.00437211
0.00379538
0.00322023
0.00264657
0.00207438
0.00150366
0.000934416
0.000366658
-0.00019962
-0.000764425
-0.00132776
0.010785
0.0101308
0.00962932
0.00913109
0.00859967
0.00805744
0.00752006
0.00698771
0.00645694
0.00592655
0.00539692
0.00486846
0.00434124
0.00381521
0.00329034
0.00276665
0.00224416
0.00172286
0.00120276
0.000683854
0.00016615
0.0113094
0.0107131
0.0102552
0.00979915
0.00931264
0.00881624
0.00832406
0.00783624
0.00734971
0.00686338
0.00637758
0.00589269
0.00540878
0.00492581
0.00444377
0.00396267
0.00348252
0.00300334
0.00252513
0.0020479
0.00157165
0.0118344
0.0112902
0.0108712
0.0104528
0.0100068
0.00955168
0.00910025
0.0086526
0.00820599
0.00775945
0.00731327
0.00686779
0.00642309
0.00597913
0.0055359
0.00509342
0.0046517
0.00421077
0.00377062
0.00333128
0.00289274
0.0123543
0.0118572
0.0114727
0.0110883
0.0106787
0.0102609
0.0098463
0.00943495
0.00902445
0.00861391
0.00820361
0.00779385
0.00738469
0.00697612
0.00656812
0.00616072
0.00575394
0.00534778
0.00494227
0.00453742
0.00413323
0.0128644
0.0124099
0.0120563
0.0117023
0.0113258
0.0109418
0.0105605
0.010182
0.0098042
0.00942632
0.00904857
0.00867122
0.00829435
0.00791794
0.00754199
0.0071665
0.00679152
0.00641705
0.0060431
0.00566969
0.00529683
0.0133611
0.012945
0.0126192
0.0122927
0.011946
0.0115927
0.0112416
0.0108929
0.0105448
0.0101966
0.00984839
0.00950053
0.00915304
0.00880591
0.00845914
0.00811275
0.00776676
0.00742119
0.00707606
0.00673137
0.00638714
0.0138411
0.0134599
0.0131591
0.0128575
0.012538
0.0122124
0.0118887
0.0115672
0.0112461
0.0109249
0.0106036
0.0102826
0.00996191
0.00964149
0.00932135
0.00900151
0.00868201
0.00836285
0.00804405
0.00772563
0.00740759
0.0143022
0.0139527
0.0136744
0.0133955
0.0131006
0.0128003
0.0125016
0.0122048
0.0119083
0.0116116
0.011315
0.0110185
0.0107222
0.0104262
0.0101304
0.00983486
0.00953958
0.00924458
0.0089499
0.00865553
0.00836149
0.0147425
0.0144218
0.014164
0.0139057
0.0136333
0.013356
0.0130801
0.0128058
0.0125318
0.0122576
0.0119834
0.0117093
0.0114354
0.0111617
0.0108882
0.0106149
0.0103418
0.0100689
0.00979637
0.00952406
0.00925205
0.0151608
0.0148663
0.0146272
0.0143876
0.0141357
0.0138795
0.0136244
0.0133707
0.0131172
0.0128636
0.0126099
0.0123564
0.012103
0.0118497
0.0115966
0.0113437
0.0110909
0.0108384
0.0105861
0.0103341
0.0100823
0.0155561
0.0152855
0.0150634
0.014841
0.0146078
0.0143709
0.0141349
0.0139
0.0136654
0.0134306
0.0131958
0.012961
0.0127264
0.0124919
0.0122575
0.0120233
0.0117893
0.0115554
0.0113218
0.0110884
0.0108552
0.0159279
0.0156791
0.0154726
0.0152659
0.01505
0.0148307
0.0146121
0.0143945
0.0141772
0.0139597
0.0137421
0.0135247
0.0133073
0.01309
0.0128729
0.0126559
0.012439
0.0122223
0.0120059
0.0117896
0.0115735
0.016276
0.0160471
0.015855
0.0156627
0.0154625
0.0152594
0.0150569
0.0148552
0.0146537
0.0144521
0.0142504
0.0140488
0.0138473
0.0136459
0.0134446
0.0132434
0.0130424
0.0128415
0.0126408
0.0124403
0.0122399
0.0166004
0.0163897
0.0162108
0.0160319
0.0158461
0.0156578
0.0154701
0.015283
0.015096
0.014909
0.014722
0.014535
0.0143481
0.0141612
0.0139745
0.0137879
0.0136014
0.0134151
0.0132289
0.013043
0.0128572