/*--------------------------------*- C++ -*----------------------------------*\
  =========                 |
  \\      /  F ield         | OpenFOAM: The Open Source CFD Toolbox
   \\    /   O peration     | Website:  https://openfoam.org
    \\  /    A nd           | Version:  7
     \\/     M anipulation  |
\*---------------------------------------------------------------------------*/
FoamFile
{
    version     2.0;
    format      ascii;
    class       surfaceScalarField;
    location    "120";
    object      phi;
}
// * * * * * * * * * * * * * * * * * * * * * * * * * * * * * * * * * * * * * //

dimensions      [0 3 -1 0 0 0 0];

internalField   nonuniform List<scalar> 
8878
(
-0.00406303
-0.000237942
-0.000238245
-0.00392124
-0.0040298
-0.000271482
-0.000202787
-0.00368458
-0.000235859
-0.00378314
-0.000269848
-0.00388725
-0.00399496
-0.000304681
-0.000197337
-0.00355975
-0.000230884
-0.00365103
-0.000265519
-0.0037485
-0.000301103
-0.00385167
-0.00395854
-0.000337528
-0.000189741
-0.0034417
-0.000223576
-0.00352591
-0.000258628
-0.00361598
-0.00029482
-0.00371231
-0.000331995
-0.00381449
-0.00392052
-0.000370009
-0.000180161
-0.00332981
-0.000214187
-0.00340767
-0.000249464
-0.00349064
-0.000286007
-0.00357944
-0.000323746
-0.00367457
-0.000362511
-0.00377573
-0.00388092
-0.000402112
-0.000168679
-0.00322317
-0.00020287
-0.00329562
-0.000238292
-0.00337225
-0.000274994
-0.00345394
-0.00031301
-0.00354142
-0.000352286
-0.00363529
-0.000392637
-0.00373537
-0.00383974
-0.000433822
-0.000155362
-0.00312062
-0.000189688
-0.00318884
-0.000225249
-0.00326006
-0.000262051
-0.00333545
-0.000300158
-0.00341583
-0.000339629
-0.00350195
-0.000380426
-0.0035945
-0.000422359
-0.00369344
-0.00379697
-0.000465125
-0.000140319
-0.00302042
-0.000174692
-0.00308625
-0.00021038
-0.00315316
-0.000247295
-0.00322314
-0.000285459
-0.00329729
-0.000324951
-0.00337634
-0.000365853
-0.00346105
-0.000408152
-0.0035522
-0.000451659
-0.00364993
-0.00375263
-0.000496006
-0.000123755
-0.00291961
-0.000157979
-0.0029862
-0.000193718
-0.00305051
-0.00023075
-0.00311612
-0.000269005
-0.00318489
-0.000308513
-0.00325778
-0.000349368
-0.00333548
-0.000391674
-0.00341874
-0.000435453
-0.00350842
-0.000480524
-0.00360486
-0.0037067
-0.000526447
-0.000106006
-0.00281326
-0.000139735
-0.00288588
-0.000175348
-0.00295059
-0.000212435
-0.00301342
-0.000250797
-0.00307776
-0.000290376
-0.00314531
-0.000331211
-0.00321694
-0.000373405
-0.00329329
-0.000417087
-0.00337506
-0.000462315
-0.00346319
-0.000508936
-0.00355824
-0.00365921
-0.000556432
-8.75719e-05
-0.00269367
-0.000120277
-0.00278056
-0.000155443
-0.00285072
-0.000192424
-0.0029136
-0.000230841
-0.00297501
-0.000270518
-0.00303809
-0.000311407
-0.00310442
-0.000353551
-0.0031748
-0.000397062
-0.00324978
-0.000442088
-0.00333004
-0.000488731
-0.00341655
-0.000536882
-0.00351009
-0.00361014
-0.000585945
-6.91339e-05
-0.00254982
-0.000100088
-0.00266272
-0.000134302
-0.00274634
-0.000170877
-0.00281414
-0.000209203
-0.00287528
-0.000248933
-0.00293528
-0.000289909
-0.00299711
-0.000332094
-0.00306223
-0.000375533
-0.00313136
-0.000420338
-0.00320497
-0.000466675
-0.0032837
-0.000514694
-0.00336853
-0.000564349
-0.00346044
-0.00355952
-0.000614974
-5.1518e-05
-0.00236748
-7.98294e-05
-0.00252151
-0.000112388
-0.00263016
-0.000148077
-0.00271066
-0.000186032
-0.00277619
-0.000225682
-0.00283563
-0.000266708
-0.00289425
-0.000308969
-0.00295485
-0.000352437
-0.00301877
-0.000397156
-0.00308664
-0.000443238
-0.00315889
-0.000490854
-0.00323608
-0.000540203
-0.00331918
-0.00059133
-0.00340931
-0.00350734
-0.000643509
-6.03253e-05
-0.00234276
-9.03453e-05
-0.00249149
-0.000124467
-0.00259604
-0.000161598
-0.00267352
-0.000200907
-0.00273688
-0.000241859
-0.00279468
-0.000284162
-0.00285195
-0.000327694
-0.00291132
-0.000372433
-0.00297403
-0.000418422
-0.00304065
-0.000465764
-0.00311155
-0.000514632
-0.00318722
-0.000565265
-0.00326855
-0.000617827
-0.00335675
-0.00345362
-0.00067154
-4.24812e-05
-0.00210994
-6.89928e-05
-0.00231625
-0.000100676
-0.00245981
-0.000136322
-0.00256039
-0.00017486
-0.00263499
-0.000215497
-0.00269624
-0.000257729
-0.00275244
-0.000301293
-0.00280838
-0.000346082
-0.00286653
-0.00039208
-0.00292803
-0.000439331
-0.0029934
-0.000487924
-0.00306296
-0.000538022
-0.00313712
-0.000589898
-0.00321667
-0.000643851
-0.00330279
-0.0033984
-0.000699074
-2.71608e-05
-0.00180618
-4.92542e-05
-0.00208785
-7.75147e-05
-0.00228799
-0.000110817
-0.00242651
-0.000147948
-0.00252326
-0.000187862
-0.00259507
-0.000229799
-0.00265431
-0.00027329
-0.00270895
-0.000318097
-0.00276358
-0.000364127
-0.0028205
-0.000411375
-0.00288078
-0.00045988
-0.0029449
-0.000509722
-0.00301311
-0.000561039
-0.0030858
-0.000614127
-0.00316358
-0.000669439
-0.00324748
-0.00334165
-0.000726186
-3.20458e-05
-0.00178916
-5.59219e-05
-0.00206397
-8.58856e-05
-0.00225803
-0.000120764
-0.00239163
-0.000159342
-0.00248468
-0.000200599
-0.00255382
-0.00024381
-0.0026111
-0.000288539
-0.00266422
-0.00033457
-0.00271755
-0.000381826
-0.00277324
-0.000430311
-0.0028323
-0.000480067
-0.00289514
-0.000531159
-0.00296202
-0.000583699
-0.00303326
-0.00063799
-0.00310929
-0.000694651
-0.00319082
-0.00328333
-0.000752972
-1.81356e-05
-0.00140537
-3.68632e-05
-0.00177044
-6.2479e-05
-0.00203836
-9.41008e-05
-0.00222641
-0.000130512
-0.00235522
-0.000170499
-0.0024447
-0.000213068
-0.00251125
-0.000257528
-0.00256664
-0.000303472
-0.00261828
-0.000350707
-0.00267031
-0.000399173
-0.00272478
-0.000448883
-0.00278259
-0.000499883
-0.00284414
-0.000552234
-0.00290967
-0.000606023
-0.00297947
-0.000661545
-0.00305377
-0.000719507
-0.00313286
-0.00322339
-0.000779447
-8.02735e-06
-0.00092678
-2.11994e-05
-0.0013922
-4.16083e-05
-0.00175003
-6.89208e-05
-0.00201104
-0.000102156
-0.00219317
-0.000140058
-0.00231731
-0.000181418
-0.00240334
-0.000225267
-0.0024674
-0.000270949
-0.00252095
-0.000318085
-0.00257114
-0.000366504
-0.00262189
-0.000416161
-0.00267512
-0.000467079
-0.00273167
-0.000519315
-0.0027919
-0.000572934
-0.00285605
-0.000628029
-0.00292438
-0.000684887
-0.00299691
-0.000744024
-0.00307372
-0.00316149
-0.000805923
-9.57499e-06
-0.000919147
-2.42231e-05
-0.00137755
-4.62768e-05
-0.00172797
-7.52428e-05
-0.00198208
-0.000110047
-0.00215837
-0.000149399
-0.00227796
-0.000192094
-0.00236064
-0.000237193
-0.0024223
-0.00028407
-0.00247408
-0.000332375
-0.00252284
-0.000381956
-0.00257231
-0.000432782
-0.00262429
-0.000484888
-0.00267956
-0.000538342
-0.00273845
-0.000593225
-0.00280117
-0.000649683
-0.00286792
-0.000708061
-0.00293853
-0.000769044
-0.00301274
-0.0030995
-0.000831038
-2.39544e-06
-0.000348161
-1.11022e-05
-0.000910441
-2.71984e-05
-0.00136146
-5.08588e-05
-0.00170431
-8.14348e-05
-0.0019515
-0.000117764
-0.00212204
-0.000158524
-0.0022372
-0.00020252
-0.00231665
-0.000248838
-0.00237598
-0.000296884
-0.00242603
-0.000346333
-0.00247339
-0.000397052
-0.00252159
-0.000449024
-0.00257232
-0.000502292
-0.00262629
-0.000556932
-0.00268381
-0.000613052
-0.00274505
-0.000670854
-0.00281012
-0.000730513
-0.00287887
-0.000791255
-0.002952
-0.00303149
-0.000859269
-2.84705e-06
-0.000345314
-1.26145e-05
-0.000900673
-3.01322e-05
-0.00134394
-5.53621e-05
-0.00167908
-8.75054e-05
-0.00191936
-0.000125316
-0.00208423
-0.000167445
-0.00219507
-0.000212706
-0.00227138
-0.000260212
-0.00232848
-0.000309399
-0.00237685
-0.000359967
-0.00242282
-0.000411801
-0.00246976
-0.000464893
-0.00251923
-0.000519294
-0.00257189
-0.000575084
-0.00262802
-0.000632381
-0.00268775
-0.000691361
-0.00275114
-0.000752102
-0.00281813
-0.00081472
-0.00288938
-0.00296454
-0.000881661
-3.29405e-06
-0.00034202
-1.41061e-05
-0.000889861
-3.30164e-05
-0.00132503
-5.97774e-05
-0.00165232
-9.3445e-05
-0.00188569
-0.000132694
-0.00204498
-0.000176152
-0.00215161
-0.000222642
-0.00222489
-0.000271306
-0.00227981
-0.000321607
-0.00232654
-0.000373269
-0.00237116
-0.000426192
-0.00241683
-0.000480378
-0.00246504
-0.000535882
-0.00251639
-0.000592788
-0.00257111
-0.000651211
-0.00262933
-0.000711293
-0.00269105
-0.000773124
-0.0027563
-0.000837008
-0.0028255
-0.00289766
-0.000903892
-3.7359e-06
-0.000338284
-1.55752e-05
-0.000878022
-3.58483e-05
-0.00130476
-6.41017e-05
-0.00162407
-9.92506e-05
-0.00185054
-0.000139896
-0.00200433
-0.000184643
-0.00210687
-0.000232329
-0.00217721
-0.000282119
-0.00223002
-0.000333507
-0.00227516
-0.000386237
-0.00231843
-0.000440224
-0.00236285
-0.000495477
-0.00240979
-0.000552055
-0.00245981
-0.000610044
-0.00251313
-0.000669551
-0.00256982
-0.000730695
-0.00262991
-0.00079358
-0.00269342
-0.000858477
-0.0027606
-0.0028304
-0.000925742
-4.17205e-06
-0.000334112
-1.70202e-05
-0.000865174
-3.86254e-05
-0.00128315
-6.83319e-05
-0.00159436
-0.000104919
-0.00181395
-0.000146918
-0.00196233
-0.000192916
-0.00206087
-0.000241762
-0.00212836
-0.00029265
-0.00217913
-0.000345097
-0.00222271
-0.000398869
-0.00226466
-0.000453893
-0.00230782
-0.000510187
-0.0023535
-0.000567811
-0.00240219
-0.000626851
-0.00245409
-0.000687405
-0.00250927
-0.000749581
-0.00256774
-0.00081348
-0.00262952
-0.000879302
-0.00269478
-0.00276252
-0.000947179
-4.60194e-06
-0.00032951
-1.84396e-05
-0.000851336
-4.13454e-05
-0.00126025
-7.24654e-05
-0.00156324
-0.000110448
-0.00177597
-0.00015376
-0.00191902
-0.00020097
-0.00201366
-0.000250943
-0.00207839
-0.000302897
-0.00212718
-0.000356375
-0.00216923
-0.000411163
-0.00220987
-0.000467199
-0.00225179
-0.000524506
-0.00229619
-0.000583149
-0.00234354
-0.000643209
-0.00239403
-0.000704781
-0.0024477
-0.00076796
-0.00250456
-0.000832841
-0.00256464
-0.000899567
-0.00262805
-0.0026939
-0.000968183
-5.02503e-06
-0.000324485
-1.98316e-05
-0.000836529
-4.40058e-05
-0.00123607
-7.64996e-05
-0.00153075
-0.000115836
-0.00173663
-0.000160418
-0.00187444
-0.000208803
-0.00196527
-0.000259868
-0.00202732
-0.000312859
-0.00207419
-0.000367341
-0.00211475
-0.000423118
-0.00215409
-0.00048014
-0.00219477
-0.000538434
-0.00223789
-0.000598067
-0.00228391
-0.000659119
-0.00233297
-0.00072168
-0.00238514
-0.000785838
-0.0024404
-0.000851677
-0.0024988
-0.000919305
-0.00256042
-0.00262447
-5.44079e-06
-0.000319044
-2.11951e-05
-0.000820775
-4.66048e-05
-0.00121066
-8.04324e-05
-0.00149692
-0.000121079
-0.00169599
-0.000166891
-0.00182863
-0.000216413
-0.00191575
-0.000268538
-0.0019752
-0.000322535
-0.00202019
-0.000377993
-0.00205929
-0.000434733
-0.00209735
-0.000492715
-0.00213678
-0.00055197
-0.00217864
-0.000612566
-0.00222331
-0.000674583
-0.00227096
-0.000738107
-0.00232161
-0.00080322
-0.00237529
-0.000869999
-0.00243202
-0.00093853
-0.00249189
-0.00255417
-5.84871e-06
-0.000313195
-2.25286e-05
-0.000804095
-4.91404e-05
-0.00118405
-8.42616e-05
-0.0014618
-0.000126177
-0.00165407
-0.000173178
-0.00178163
-0.0002238
-0.00186513
-0.000276952
-0.00192205
-0.000331925
-0.00196522
-0.000388332
-0.00200288
-0.000446008
-0.00203968
-0.000504922
-0.00207787
-0.000565112
-0.00211845
-0.000626646
-0.00216178
-0.000689602
-0.002208
-0.000754064
-0.00225715
-0.00082011
-0.00230924
-0.000887813
-0.00236431
-0.000957248
-0.00242246
-0.00248299
-6.2483e-06
-0.000306947
-2.38309e-05
-0.000786513
-5.16107e-05
-0.00115627
-8.79852e-05
-0.00142543
-0.000131128
-0.00161093
-0.000179277
-0.00173348
-0.000230963
-0.00181344
-0.000285107
-0.0018679
-0.000341027
-0.0019093
-0.000398355
-0.00194556
-0.000456941
-0.00198109
-0.000516763
-0.00201805
-0.000577861
-0.00205735
-0.000640306
-0.00209934
-0.000704176
-0.00214413
-0.000769552
-0.00219177
-0.000836511
-0.00224228
-0.000905122
-0.0022957
-0.000975457
-0.00235212
-6.6391e-06
-0.000300308
-2.51008e-05
-0.000768051
-5.40142e-05
-0.00112736
-9.16016e-05
-0.00138784
-0.000135929
-0.0015666
-0.000185188
-0.00168422
-0.0002379
-0.00176073
-0.000293005
-0.0018128
-0.000349842
-0.00185246
-0.000408063
-0.00188734
-0.000467532
-0.00192162
-0.000528235
-0.00195735
-0.000590216
-0.00199537
-0.000653546
-0.00203601
-0.000718305
-0.00207937
-0.000784571
-0.00212551
-0.000852422
-0.00217443
-0.000921925
-0.0022262
-0.0022809
-7.02064e-06
-0.000293287
-2.63371e-05
-0.000748734
-5.63492e-05
-0.00109734
-9.51089e-05
-0.00134908
-0.00014058
-0.00152113
-0.000190908
-0.00163389
-0.000244611
-0.00170703
-0.000300645
-0.00175676
-0.000358369
-0.00179474
-0.000417455
-0.00182825
-0.000477781
-0.00186129
-0.000539338
-0.00189579
-0.000602175
-0.00193253
-0.000666366
-0.00197182
-0.000731988
-0.00201375
-0.000799122
-0.00205837
-0.000867844
-0.00210571
-0.000938222
-0.00215582
-0.00220879
-7.39251e-06
-0.000285895
-2.7539e-05
-0.000728588
-5.86143e-05
-0.00106627
-9.85059e-05
-0.00130919
-0.000145078
-0.00147456
-0.000196437
-0.00158253
-0.000251095
-0.00165237
-0.000308025
-0.00169983
-0.000366607
-0.00173616
-0.000426531
-0.00176832
-0.000487685
-0.00180014
-0.000550071
-0.0018334
-0.000613739
-0.00186886
-0.000678764
-0.00190679
-0.000745226
-0.00194729
-0.000813203
-0.0019904
-0.000882774
-0.00203614
-0.00095401
-0.00208458
-7.75431e-06
-0.000278141
-2.87053e-05
-0.000707637
-6.08082e-05
-0.00103417
-0.000101791
-0.00126821
-0.000149424
-0.00142693
-0.000201775
-0.00153018
-0.000257353
-0.00159679
-0.000315146
-0.00164204
-0.000374556
-0.00167675
-0.000435289
-0.00170759
-0.000497246
-0.00173818
-0.000560434
-0.00177022
-0.000624907
-0.00180439
-0.00069074
-0.00184096
-0.000758016
-0.00188001
-0.000826813
-0.0019216
-0.000897211
-0.00196574
-0.00201251
-8.10565e-06
-0.000270035
-2.98351e-05
-0.000685908
-6.29296e-05
-0.00100107
-0.000104963
-0.00122617
-0.000153616
-0.00137827
-0.000206919
-0.00147688
-0.000263382
-0.00154033
-0.000322007
-0.00158342
-0.000382215
-0.00161654
-0.00044373
-0.00164608
-0.000506463
-0.00167545
-0.000570425
-0.00170625
-0.000635677
-0.00173914
-0.000702293
-0.00177434
-0.000770357
-0.00181195
-0.00083995
-0.001852
-0.000911152
-0.00189454
-0.00193963
-8.44616e-06
-0.000261589
-3.09276e-05
-0.000663426
-6.49773e-05
-0.000967022
-0.000108021
-0.00118313
-0.000157653
-0.00132864
-0.000211871
-0.00142266
-0.000269183
-0.00148302
-0.000328607
-0.00152399
-0.000389584
-0.00155556
-0.000451853
-0.00158381
-0.000515334
-0.00161197
-0.000580045
-0.00164154
-0.000646048
-0.00167313
-0.000713421
-0.00170697
-0.000782248
-0.00174312
-0.000852611
-0.00178164
-0.000924594
-0.00182256
-0.00186595
-8.77552e-06
-0.000252813
-3.1982e-05
-0.00064022
-6.69503e-05
-0.000932053
-0.000110963
-0.00113912
-0.000161534
-0.00127807
-0.000216628
-0.00136757
-0.000274755
-0.00142489
-0.000334947
-0.0014638
-0.000396664
-0.00149384
-0.000459657
-0.00152081
-0.000523858
-0.00154777
-0.000589291
-0.00157611
-0.000656019
-0.00160641
-0.000724122
-0.00163886
-0.000793686
-0.00167356
-0.000864794
-0.00171053
-0.000937532
-0.00174982
-9.09337e-06
-0.00024372
-3.29975e-05
-0.000616316
-6.88476e-05
-0.000896203
-0.000113789
-0.00109417
-0.000165258
-0.0012266
-0.000221191
-0.00131164
-0.000280097
-0.00136599
-0.000341026
-0.00140287
-0.000403452
-0.00143142
-0.000467142
-0.00145712
-0.000532036
-0.00148287
-0.000598163
-0.00150998
-0.000665588
-0.00153898
-0.000734395
-0.00157006
-0.000804669
-0.00160328
-0.000876497
-0.0016387
-0.00167635
-9.39943e-06
-0.00023432
-3.39733e-05
-0.000591742
-7.06681e-05
-0.000859508
-0.000116497
-0.00104835
-0.000168825
-0.00117427
-0.000225559
-0.0012549
-0.000285211
-0.00130633
-0.000346843
-0.00134124
-0.000409949
-0.00136831
-0.000474308
-0.00139277
-0.000539867
-0.00141731
-0.000606659
-0.00144319
-0.000674755
-0.00147089
-0.000744238
-0.00150057
-0.000815195
-0.00153233
-0.000887715
-0.00156618
-0.00160218
-9.6934e-06
-0.000224627
-3.49089e-05
-0.000566526
-7.2411e-05
-0.000822006
-0.000119088
-0.00100167
-0.000172233
-0.00112112
-0.000229731
-0.0011974
-0.000290094
-0.00124597
-0.000352399
-0.00127893
-0.000416155
-0.00130456
-0.000481153
-0.00132777
-0.000547349
-0.00135112
-0.00061478
-0.00137576
-0.000683518
-0.00140215
-0.00075365
-0.00143044
-0.000825262
-0.00146071
-0.000898447
-0.001493
-0.00152734
-9.97499e-06
-0.000214652
-3.58035e-05
-0.000540698
-7.40755e-05
-0.000783734
-0.000121559
-0.000954186
-0.000175483
-0.0010672
-0.000233707
-0.00113918
-0.000294746
-0.00118493
-0.000357693
-0.00121599
-0.000422069
-0.00124018
-0.000487677
-0.00126216
-0.000554481
-0.00128431
-0.000622522
-0.00130772
-0.000691876
-0.00133279
-0.000762627
-0.00135969
-0.000834868
-0.00138847
-0.000908689
-0.00141918
-1.0244e-05
-0.000204408
-3.66566e-05
-0.000514285
-7.56609e-05
-0.00074473
-0.00012391
-0.000905936
-0.000178573
-0.00101254
-0.000237486
-0.00108027
-0.000299168
-0.00112325
-0.000362724
-0.00115243
-0.00042769
-0.00117522
-0.00049388
-0.00119597
-0.000561263
-0.00121693
-0.000629887
-0.0012391
-0.000699826
-0.00126285
-0.000771169
-0.00128835
-0.000844009
-0.00131563
-0.00134475
-1.05001e-05
-0.000193908
-3.74677e-05
-0.000487317
-7.71662e-05
-0.000705031
-0.000126141
-0.000856961
-0.000181503
-0.000957177
-0.000241068
-0.0010207
-0.000303359
-0.00106096
-0.000367493
-0.0010883
-0.000433018
-0.00110969
-0.00049976
-0.00112923
-0.000567695
-0.001149
-0.000636871
-0.00116992
-0.000707367
-0.00119236
-0.000779274
-0.00121644
-0.000852684
-0.00124222
-0.00126974
-1.0743e-05
-0.000183165
-3.82361e-05
-0.000459824
-7.8591e-05
-0.000664676
-0.000128251
-0.000807301
-0.000184272
-0.000901156
-0.000244453
-0.000960522
-0.000307319
-0.000998091
-0.000371998
-0.00102362
-0.000438053
-0.00104364
-0.000505317
-0.00106196
-0.000573774
-0.00108054
-0.000643474
-0.00110022
-0.000714499
-0.00112133
-0.000786939
-0.001144
-0.00086089
-0.00116827
-0.00119419
-1.09727e-05
-0.000172192
-3.89614e-05
-0.000431836
-7.99346e-05
-0.000623703
-0.000130239
-0.000756996
-0.000186881
-0.000844515
-0.00024764
-0.000899762
-0.000311047
-0.000934685
-0.00037624
-0.000958425
-0.000442794
-0.000977082
-0.000510552
-0.000994206
-0.0005795
-0.00101159
-0.000649695
-0.00103002
-0.000721219
-0.00104981
-0.000794164
-0.00107106
-0.000868626
-0.00109381
-0.00111811
-1.11888e-05
-0.000161003
-3.96432e-05
-0.000403381
-8.11964e-05
-0.00058215
-0.000132105
-0.000706087
-0.000189327
-0.000787293
-0.000250629
-0.00083846
-0.000314543
-0.000870771
-0.000380218
-0.000892749
-0.000447241
-0.00091006
-0.000515461
-0.000925985
-0.000584873
-0.000942179
-0.000655533
-0.000959364
-0.000727526
-0.000977816
-0.000800945
-0.000997637
-0.000875888
-0.00101887
-1.13913e-05
-0.000149612
-4.0281e-05
-0.000374491
-8.23758e-05
-0.000540055
-0.000133848
-0.000654615
-0.000191612
-0.000729529
-0.00025342
-0.000776653
-0.000317806
-0.000806385
-0.000383932
-0.000826623
-0.000451393
-0.000842599
-0.000520047
-0.000857331
-0.000589891
-0.000872335
-0.000660987
-0.000888268
-0.000733419
-0.000905384
-0.000807282
-0.000923773
-0.000943476
-1.15798e-05
-0.000138032
-4.08745e-05
-0.000345197
-8.34724e-05
-0.000497457
-0.000135468
-0.000602619
-0.000193734
-0.000671263
-0.000256011
-0.000714376
-0.000320837
-0.000741559
-0.000387382
-0.000760079
-0.00045525
-0.000774731
-0.000524307
-0.000788274
-0.000594554
-0.000802087
-0.000666055
-0.000816768
-0.000738896
-0.000832543
-0.000813173
-0.000849496
-0.000867664
-1.17543e-05
-0.000126278
-4.14232e-05
-0.000315528
-8.44856e-05
-0.000454395
-0.000136964
-0.000550141
-0.000195694
-0.000612533
-0.000258404
-0.000651666
-0.000323635
-0.000676328
-0.000390566
-0.000693147
-0.000458811
-0.000706486
-0.000528241
-0.000718844
-0.000598861
-0.000731467
-0.000670737
-0.000744892
-0.000743956
-0.000759323
-0.000818617
-0.000774835
-0.000791463
-1.19145e-05
-0.000114364
-4.19268e-05
-0.000285516
-8.54151e-05
-0.000410907
-0.000138336
-0.00049722
-0.00019749
-0.000553378
-0.000260597
-0.000588559
-0.0003262
-0.000610725
-0.000393486
-0.000625862
-0.000462076
-0.000637896
-0.000531848
-0.000649072
-0.000602811
-0.000660504
-0.000675031
-0.000672671
-0.000748599
-0.000685755
-0.000823611
-0.000699823
-0.000714905
-1.20604e-05
-0.000102303
-4.23851e-05
-0.000255191
-8.62605e-05
-0.000367031
-0.000139583
-0.000443898
-0.000199123
-0.000493838
-0.00026259
-0.000525092
-0.000328531
-0.000544784
-0.00039614
-0.000558253
-0.000465045
-0.000568991
-0.000535129
-0.000578989
-0.000606403
-0.00058923
-0.000678938
-0.000600137
-0.000752822
-0.000611871
-0.000828155
-0.00062449
-0.000638021
-1.21919e-05
-9.01113e-05
-4.27977e-05
-0.000224585
-8.70215e-05
-0.000322807
-0.000140705
-0.000390214
-0.000200593
-0.00043395
-0.000264384
-0.000461301
-0.000330629
-0.000478539
-0.000398529
-0.000490354
-0.000467717
-0.000499803
-0.000538082
-0.000508624
-0.000609638
-0.000517674
-0.000682455
-0.00052732
-0.000756625
-0.000537701
-0.000832248
-0.000548868
-0.000560845
-1.23088e-05
-7.78025e-05
-4.31644e-05
-0.00019373
-8.76976e-05
-0.000278274
-0.000141702
-0.000336209
-0.000201898
-0.000373755
-0.000265978
-0.000397221
-0.000332493
-0.000412023
-0.000400651
-0.000422196
-0.000470092
-0.000430362
-0.000540707
-0.000438009
-0.000612513
-0.000445867
-0.000685583
-0.00045425
-0.000760008
-0.000463276
-0.000835887
-0.000472988
-0.000483407
-1.2411e-05
-6.53915e-05
-4.34851e-05
-0.000162655
-8.82887e-05
-0.000233471
-0.000142574
-0.000281924
-0.000203039
-0.000313289
-0.000267371
-0.000332889
-0.000334124
-0.000345271
-0.000402508
-0.000353811
-0.00047217
-0.0003607
-0.000543004
-0.000367174
-0.00061503
-0.000373841
-0.00068832
-0.00038096
-0.000762968
-0.000388628
-0.000839074
-0.000396882
-0.00040574
-1.24984e-05
-5.28931e-05
-4.37594e-05
-0.000131394
-8.87945e-05
-0.000188435
-0.00014332
-0.000227398
-0.000204016
-0.000252593
-0.000268564
-0.000268341
-0.00033552
-0.000278315
-0.000404098
-0.000285233
-0.00047395
-0.000290849
-0.000544973
-0.000296152
-0.000617187
-0.000301627
-0.000690667
-0.00030748
-0.000765507
-0.000313789
-0.000841806
-0.000320583
-0.000327876
-1.2571e-05
-4.03221e-05
-4.39872e-05
-9.99782e-05
-8.92148e-05
-0.000143208
-0.00014394
-0.000172673
-0.000204829
-0.000191705
-0.000269557
-0.000203613
-0.000336682
-0.000211191
-0.000405422
-0.000216492
-0.000475432
-0.000220839
-0.000546612
-0.000224972
-0.000618984
-0.000229255
-0.000692623
-0.000233841
-0.000767622
-0.00023879
-0.000844083
-0.000244122
-0.000249848
-1.26287e-05
-2.76934e-05
-4.41685e-05
-6.84384e-05
-8.95494e-05
-9.7827e-05
-0.000144434
-0.000117787
-0.000205476
-0.000130663
-0.000270349
-0.000138741
-0.000337609
-0.00014393
-0.00040648
-0.000147621
-0.000476617
-0.000150702
-0.000547923
-0.000153666
-0.000620421
-0.000156757
-0.000694186
-0.000160076
-0.000769314
-0.000163662
-0.000845905
-0.000167531
-1.26714e-05
-1.5022e-05
-4.4303e-05
-3.68068e-05
-8.97981e-05
-5.23319e-05
-0.000144802
-6.27833e-05
-0.000205959
-6.95059e-05
-0.00027094
-7.37605e-05
-0.000338302
-7.65678e-05
-0.000407271
-7.86527e-05
-0.000477503
-8.04688e-05
-0.000548904
-8.22657e-05
-0.000621497
-8.41639e-05
-0.000695358
-8.62147e-05
-0.000770582
-8.84382e-05
-9.08424e-05
-1.26991e-05
-2.32291e-06
-4.43908e-05
-5.11512e-06
-8.9961e-05
-6.76168e-06
-0.000145044
-7.70031e-06
-0.000206277
-8.27238e-06
-0.00027133
-8.70811e-06
-0.00033876
-9.13722e-06
-0.000407795
-9.61858e-06
-0.000478091
-1.0172e-05
-0.000549556
-1.08014e-05
-0.000622212
-1.15072e-05
-0.000696138
-1.22896e-05
-0.000771426
-1.31498e-05
-1.40891e-05
-1.27118e-05
1.03889e-05
-4.44317e-05
2.66047e-05
-9.00379e-05
3.88445e-05
-0.000145159
4.74211e-05
-0.000206431
5.2999e-05
-0.000271519
5.63805e-05
-0.000338984
5.83279e-05
-0.000408052
5.94489e-05
-0.000478381
6.01575e-05
-0.000549878
6.06953e-05
-0.000622567
6.11819e-05
-0.000696525
6.16679e-05
-0.000771846
6.21712e-05
6.26971e-05
-1.27096e-05
2.30985e-05
-4.44258e-05
5.83209e-05
-9.00289e-05
8.44476e-05
-0.000145148
0.000102541
-0.000206419
0.00011427
-0.000271508
0.000121469
-0.000338974
0.000125794
-0.000408042
0.000128517
-0.000478373
0.000130488
-0.000549871
0.000132193
-0.000622561
0.000133872
-0.00069652
0.000135626
-0.000771841
0.000137493
0.000139484
-1.26923e-05
3.57909e-05
-4.43731e-05
9.00017e-05
-8.99339e-05
0.000130008
-0.000145011
0.000157618
-0.000206243
0.000175501
-0.000271296
0.000186523
-0.000338729
0.000193227
-0.000407766
0.000197555
-0.000478067
0.000200789
-0.000549534
0.000203661
-0.000622194
0.000206532
-0.000696122
0.000209554
-0.000771413
0.000212783
0.000216239
-1.266e-05
4.84509e-05
-4.42735e-05
0.000121615
-8.97529e-05
0.000175488
-0.000144747
0.000212612
-0.000205901
0.000236655
-0.000270883
0.000251504
-0.000338249
0.000260593
-0.000407223
0.000266529
-0.000477462
0.000271027
-0.000548868
0.000275067
-0.000621467
0.00027913
-0.000695332
0.00028342
-0.00077056
0.000288011
0.00029293
-1.26127e-05
6.10636e-05
-4.41271e-05
0.000153129
-8.94859e-05
0.000220847
-0.000144358
0.000267484
-0.000205395
0.000297692
-0.000270269
0.000316378
-0.000337535
0.00032786
-0.000406414
0.000335407
-0.000476559
0.000341173
-0.000547873
0.000346381
-0.000620379
0.000351636
-0.000694151
0.000357192
-0.000769284
0.000363144
-0.000845878
0.000369524
0.000376348
-1.25505e-05
7.36141e-05
-4.3934e-05
0.000184513
-8.91331e-05
0.000266046
-0.000143841
0.000322192
-0.000204724
0.000358575
-0.000269454
0.000381109
-0.000336587
0.000394992
-0.000405338
0.000404158
-0.000475358
0.000411194
-0.000546549
0.000417571
-0.00061893
0.000424017
-0.000692577
0.000430839
-0.000767584
0.00043815
-0.00084405
0.000445991
0.000454378
-1.24733e-05
8.60874e-05
-4.36942e-05
0.000215734
-8.86947e-05
0.000311046
-0.000143199
0.000376697
-0.000203888
0.000419263
-0.000268439
0.00044566
-0.000335404
0.000461957
-0.000403995
0.000472749
-0.00047386
0.000481058
-0.000544895
0.000488607
-0.000617122
0.000496244
-0.000690613
0.00050433
-0.000765461
0.000512998
-0.000841767
0.000522297
0.000532246
-1.23813e-05
9.84687e-05
-4.3408e-05
0.000246761
-8.81707e-05
0.000355809
-0.000142431
0.000430958
-0.000202888
0.00047972
-0.000267224
0.000509996
-0.000333987
0.00052872
-0.000402386
0.000541148
-0.000472064
0.000550736
-0.000542914
0.000559457
-0.000614954
0.000568284
-0.000688257
0.000577633
-0.000762916
0.000587657
-0.000839029
0.00059841
0.000609918
-1.22746e-05
0.000110743
-4.30755e-05
0.000277562
-8.75614e-05
0.000400295
-0.000141537
0.000484934
-0.000201723
0.000539906
-0.000265807
0.00057408
-0.000332336
0.000595249
-0.000400511
0.000609324
-0.00046997
0.000620195
-0.000540604
0.00063009
-0.000612427
0.000640107
-0.000685511
0.000650717
-0.000759949
0.000662094
-0.000835838
0.0006743
0.000687362
-1.21531e-05
0.000122896
-4.26969e-05
0.000308105
-8.6867e-05
0.000444465
-0.000140518
0.000538585
-0.000200395
0.000599782
-0.000264191
0.000637876
-0.000330451
0.000661509
-0.00039837
0.000677243
-0.00046758
0.000689405
-0.000537966
0.000700476
-0.000609541
0.000711683
-0.000682376
0.000723552
-0.000756561
0.000736279
-0.000832195
0.000749934
0.000764546
-1.20171e-05
0.000134914
-4.22724e-05
0.000338361
-8.60878e-05
0.00048828
-0.000139374
0.000591871
-0.000198902
0.00065931
-0.000262375
0.000701349
-0.000328333
0.000727467
-0.000395964
0.000744874
-0.000464893
0.000758334
-0.000535
0.000770583
-0.000606297
0.00078298
-0.000678852
0.000796106
-0.000752753
0.000810181
-0.0008281
0.000825281
0.000841439
-1.18666e-05
0.00014678
-4.18021e-05
0.000368296
-8.52241e-05
0.000531702
-0.000138104
0.000644751
-0.000197246
0.000718452
-0.000260359
0.000764463
-0.000325981
0.000793089
-0.000393292
0.000812185
-0.000461909
0.000826951
-0.000531708
0.000840382
-0.000602696
0.000853968
-0.000674939
0.00086835
-0.000748527
0.000883768
-0.000823555
0.000900309
0.000918009
-1.17018e-05
0.000158482
-4.12865e-05
0.000397881
-8.42762e-05
0.000574692
-0.00013671
0.000697186
-0.000195426
0.000777167
-0.000258143
0.00082718
-0.000323396
0.000858342
-0.000390355
0.000879144
-0.00045863
0.000895226
-0.000528089
0.000909842
-0.000598738
0.000924616
-0.000670639
0.000940251
-0.000743882
0.000957011
-0.000818561
0.000974988
0.000994224
-1.15227e-05
0.000170005
-4.07258e-05
0.000427084
-8.32445e-05
0.00061721
-0.000135192
0.000749133
-0.000193443
0.000835417
-0.000255728
0.000889466
-0.000320578
0.000923191
-0.000387153
0.000945719
-0.000455055
0.000963127
-0.000524145
0.000978932