/*--------------------------------*- C++ -*----------------------------------*\
  =========                 |
  \\      /  F ield         | OpenFOAM: The Open Source CFD Toolbox
   \\    /   O peration     | Website:  https://openfoam.org
    \\  /    A nd           | Version:  7
     \\/     M anipulation  |
\*---------------------------------------------------------------------------*/
FoamFile
{
    version     2.0;
    format      ascii;
    class       volScalarField;
    location    "220";
    object      p;
}
// * * * * * * * * * * * * * * * * * * * * * * * * * * * * * * * * * * * * * //

dimensions      [0 2 -2 0 0 0 0];

internalField   nonuniform List<scalar> 
4575
(
0.203621
0.214256
0.224668
0.239833
0.234849
0.25036
0.244788
0.26063
0.254476
0.270633
0.263903
0.288626
0.280356
0.273057
0.298601
0.289786
0.281929
0.308255
0.298913
0.290508
0.317574
0.307723
0.298784
0.336476
0.326548
0.316206
0.306747
0.345632
0.335163
0.324351
0.314388
0.354394
0.343408
0.332147
0.321697
0.362752
0.351272
0.339583
0.328666
0.370692
0.358745
0.346649
0.335285
0.390595
0.378204
0.365816
0.353336
0.341548
0.398115
0.385278
0.372476
0.359636
0.347445
0.405158
0.391905
0.378715
0.365539
0.352971
0.411715
0.398075
0.384527
0.371038
0.358118
0.417775
0.403779
0.389901
0.376126
0.362879
0.423332
0.409011
0.394832
0.380796
0.367251
0.428377
0.413764
0.399314
0.385042
0.371226
0.432904
0.41803
0.40334
0.388858
0.374801
0.436906
0.421806
0.406904
0.39224
0.377972
0.44038
0.425085
0.410004
0.395184
0.380735
0.44332
0.427864
0.412635
0.397686
0.383087
0.461474
0.445723
0.430141
0.414794
0.399744
0.385026
0.463437
0.447587
0.431912
0.416479
0.401354
0.386551
0.464822
0.44891
0.433175
0.417688
0.402517
0.387661
0.465628
0.44969
0.433931
0.418421
0.403232
0.388354
0.465857
0.449929
0.434179
0.418677
0.403496
0.388627
0.465508
0.449626
0.43392
0.418458
0.403311
0.388483
0.448784
0.433155
0.417764
0.402679
0.387922
0.447405
0.431886
0.416598
0.401603
0.386949
0.445492
0.430118
0.414963
0.400084
0.385567
0.44305
0.427854
0.412863
0.398127
0.383777
0.440084
0.425098
0.410301
0.395736
0.381582
0.4366
0.421856
0.407283
0.392914
0.378986
0.432604
0.418134
0.403815
0.389667
0.375993
0.428104
0.413939
0.399903
0.386002
0.37261
0.423108
0.409278
0.395553
0.381924
0.368841
0.417625
0.404161
0.390775
0.377441
0.364692
0.411665
0.398595
0.385575
0.372561
0.36017
0.392591
0.379963
0.367292
0.355283
0.386158
0.373949
0.361643
0.350037
0.379308
0.367543
0.355623
0.344442
0.372052
0.360754
0.349242
0.338505
0.364402
0.353595
0.342511
0.332235
0.346076
0.335439
0.325642
0.33821
0.32804
0.318736
0.330009
0.320323
0.311525
0.321486
0.3123
0.304021
0.303984
0.296233
0.295387
0.288173
0.28652
0.27985
0.271276
0.262461
0.253414
0.10999
0.110968
0.112829
0.11546
0.118741
0.122623
0.126983
0.13178
0.13686
0.142156
0.147445
0.152617
0.157329
0.161417
0.16436
0.165957
0.16542
0.162619
0.156302
0.146757
0.131673
0.108845
0.109771
0.111524
0.113995
0.117058
0.120657
0.124662
0.129017
0.133557
0.1382
0.14271
0.14696
0.150601
0.153458
0.155017
0.155091
0.152928
0.148449
0.14054
0.129521
0.113693
0.107627
0.108496
0.110134
0.112435
0.115268
0.118569
0.122202
0.126099
0.130085
0.134068
0.137799
0.141146
0.143753
0.145455
0.145748
0.144479
0.140958
0.135163
0.126172
0.114339
0.0985781
0.106331
0.107141
0.108657
0.110779
0.113372
0.116364
0.119613
0.123041
0.126467
0.129784
0.132743
0.135202
0.136813
0.137414
0.13654
0.13405
0.12936
0.122456
0.112668
0.100267
0.0846638
0.104958
0.105705
0.107095
0.109032
0.111377
0.114052
0.116911
0.119866
0.122731
0.125391
0.127596
0.129199
0.129871
0.129451
0.127526
0.123965
0.118303
0.110516
0.10017
0.0874354
0.0720507
0.103508
0.104189
0.105449
0.107195
0.109287
0.111641
0.114107
0.116589
0.118899
0.120914
0.122394
0.123184
0.122986
0.121637
0.118792
0.11432
0.107882
0.0994395
0.0887497
0.0759187
0.0608983
0.10198
0.102594
0.103722
0.105273
0.107108
0.109136
0.111209
0.11322
0.114987
0.116378
0.117166
0.117196
0.116201
0.114022
0.110383
0.10516
0.0981224
0.0892304
0.0783824
0.065657
0.0511444
0.100376
0.10092
0.101913
0.103266
0.104843
0.106545
0.108227
0.109776
0.111015
0.111807
0.111943
0.111269
0.109554
0.106648
0.102339
0.0965126
0.0890342
0.0798688
0.0690178
0.056551
0.0426404
0.0986966
0.0991697
0.100027
0.10118
0.102497
0.103875
0.105172
0.10627
0.107
0.107225
0.106754
0.105436
0.103082
0.0995496
0.0946869
0.0883972
0.0806179
0.0713286
0.060601
0.0485027
0.0352503
0.0969431
0.0973445
0.098065
0.0990184
0.100077
0.101135
0.102056
0.102718
0.102964
0.102655
0.101626
0.09973
0.0968154
0.092756
0.0874507
0.0808228
0.0728661
0.063577
0.0530731
0.0414217
0.028861
0.0951176
0.095447
0.0960309
0.0967856
0.0975894
0.0983349
0.0988909
0.0991353
0.0989239
0.0981214
0.0965834
0.0941761
0.0907805
0.0862892
0.0806438
0.0737897
0.0657623
0.0565747
0.0463727
0.035223
0.0233711
0.0932226
0.0934803
0.0939288
0.0944875
0.0950415
0.0954831
0.0956887
0.0955377
0.0948991
0.0936442
0.0916505
0.0887979
0.0849983
0.0801644
0.0742728
0.0672907
0.0592833
0.0502786
0.0404377
0.0298255
0.0186854
0.0912611
0.0914477
0.091763
0.0921297
0.092441
0.0925902
0.0924622
0.0919402
0.0909071
0.0892433
0.0868471
0.0836146
0.0794847
0.0743909
0.0683377
0.0613125
0.0534012
0.0446432
0.0352063
0.025152
0.0147149
0.0892366
0.0893535
0.0895384
0.0897188
0.089796
0.0896662
0.0892238
0.0883575
0.0869645
0.0849363
0.082191
0.0786419
0.0742513
0.068973
0.0628334
0.0558374
0.0480844
0.039622
0.0306183
0.0211299
0.0113787
0.0871531
0.087202
0.0872606
0.0872615
0.0871149
0.0867215
0.0859857
0.0848036
0.0830866
0.0807389
0.077697
0.0738916
0.0693051
0.0639103
0.05775
0.050844
0.0432991
0.0351685
0.0266157
0.0176918
0.0086031
0.085015
0.0849984
0.0849353
0.0847648
0.0844063
0.0837665
0.0827598
0.0812918
0.0792875
0.0766647
0.0733769
0.069372
0.0646493
0.0591983
0.0530742
0.0463082
0.0390105
0.031237
0.0231436
0.0147752
0.00632177
0.0828272
0.0827479
0.0825688
0.0822363
0.081679
0.0808113
0.0795577
0.0778344
0.0755795
0.0727252
0.0692403
0.0650887
0.0602837
0.0548294
0.0487897
0.0422042
0.0351832
0.027783
0.0201501
0.0123231
0.00447484
0.0805952
0.0804564
0.0801678
0.0796836
0.0789419
0.0778658
0.0763902
0.0744425
0.0719736
0.0689299
0.0652937
0.0610438
0.0562049
0.0507932
0.0448781
0.0385052
0.0317821
0.0247642
0.017587
0.010283
0.00300846
0.0783245
0.0781301
0.0777391
0.0771144
0.0762037
0.0749396
0.0732674
0.0711264
0.0684792
0.0652862
0.0615415
0.0572372
0.0524073
0.0470772
0.0413196
0.0351838
0.0287729
0.02214
0.0154093
0.00860725
0.00187427
0.0760215
0.0757754
0.0752898
0.0745365
0.0734731
0.072042
0.0701989
0.0678949
0.065104
0.0617994
0.0579857
0.0536665
0.0488827
0.0436671
0.0380935
0.0322127
0.0261225
0.0198724
0.0135754
0.00725249
0.00102892
0.0736925
0.0733992
0.0728273
0.0719579
0.0707584
0.0691815
0.0671931
0.0647558
0.0618542
0.0584732
0.0546265
0.0503273
0.0456216
0.0405475
0.0351783
0.029565
0.0237988
0.0179256
0.0120472
0.00617938
0.000433578
0.0713441
0.0710082
0.0703587
0.0693863
0.0680677
0.0663663
0.0642577
0.0617157
0.0587345
0.0553095
0.0514621
0.0472134
0.0426128
0.0377021
0.0325526
0.0272145
0.0217718
0.0162664
0.0107895
0.00535233
5.34684e-05
0.0689833
0.0686096
0.0678916
0.0668292
0.0654087
0.0636038
0.0613995
0.0587799
0.055748
0.0523086
0.0484893
0.0443174
0.0398445
0.0351142
0.0301953
0.0251357
0.0200128
0.0148639
0.00977029
0.00473918
-0.000142488
0.0666171
0.0662105
0.0654332
0.0642942
0.0627889
0.0609009
0.0586243
0.0559527
0.0528969
0.0494697
0.0457037
0.0416309
0.0373038
0.0327669
0.0280853
0.0233046
0.0184949
0.0136895
0.00896025
0.00431094
-0.000182051
0.0642527
0.0638181
0.0629908
0.0617884
0.0602149
0.0582637
0.055937
0.0532372
0.0501819
0.0467905
0.0430995
0.0391444
0.0349775
0.0306431
0.0262024
0.021698
0.0171931
0.012717
0.00833279
0.00404152
-8.99811e-05
0.061897
0.0614394
0.0605714
0.0593185
0.0576931
0.0556976
0.0533416
0.0506355
0.0476026
0.0442678
0.0406704
0.0368481
0.0328523
0.0287264
0.0245273
0.0202943
0.0160842
0.0119222
0.00786378
0.0039075
0.000111681
0.0595573
0.0590814
0.0581817
0.0568909
0.0552292
0.0532072
0.0508414
0.0481488
0.0451577
0.0418975
0.0384091
0.0347316
0.0309148
0.0270006
0.0230413
0.0190731
0.0151465
0.0112831
0.00753138
0.00388789
0.000403354
0.0572403
0.056751
0.0558283
0.0545118
0.0528285
0.0507966
0.0484386
0.0457774
0.0428453
0.0396748
0.036308
0.0327844
0.0291518
0.0254499
0.0217269
0.0180154
0.0143601
0.0107797
0.00731592
0.00396394
0.000767691
0.0549529
0.0544546
0.0535175
0.0521866
0.0504956
0.048469
0.0461348
0.0435209
0.0406624
0.0375944
0.0343592
0.030996
0.0275503
0.0240595
0.0205674
0.0171035
0.013707
0.0103937
0.00719972
0.00411895
0.00118937
0.0527015
0.0521986
0.0512549
0.0499205
0.0482344
0.0462271
0.0439311
0.0413782
0.0386057
0.0356504
0.0325543
0.0293558
0.0260978
0.0228151
0.0195474
0.016321
0.0131704
0.0101087
0.00716691
0.00433809
0.00165492
0.0504923
0.0499888
0.0490459
0.0477179
0.0460484
0.0440729
0.0418276
0.0393474
0.0366713
0.0338368
0.0308852
0.0278536
0.0247822
0.0217032
0.0186524
0.015653
0.0127353
0.0099099
0.00720338
0.00460825
0.00215252
0.0483312
0.0478308
0.0468956
0.045583
0.0439405
0.0420078
0.039824
0.0374265
0.034855
0.0321473
0.0293435
0.0264793
0.023592
0.0207112
0.0178689
0.0150858
0.0123878
0.00978391
0.00729654
0.0049179
0.00267189
0.0462235
0.0457296
0.0448084
0.0435193
0.041913
0.0400326
0.0379196
0.0356127
0.0331522
0.0305755
0.0279213
0.0252235
0.0225164
0.0198273
0.0171847
0.0146066
0.0121157
0.00971887
0.00743528
0.00525692
0.00320412
0.0441744
0.0436901
0.0427882
0.0415298
0.0399678
0.0381478
0.036113
0.0339031
0.0315582
0.0291151
0.0266106
0.0240767
0.0215452
0.0190406
0.0165884
0.0142043
0.0119077
0.00970422
0.00760981
0.00561652
0.00374156
0.0421883
0.0417162
0.0408385
0.0396169
0.0381061
0.0363533
0.0344027
0.0322945
0.0300683
0.0277596
0.0254037
0.0230304
0.0206687
0.018341
0.0160697
0.0138686
0.0117541
0.0097306
0.00781157
0.00598909
0.00427766
0.0402693
0.0398117
0.0389622
0.0377828
0.0363287
0.0346484
0.0327866
0.0307835
0.0286774
0.0265031
0.0242933
0.0220762
0.0198781
0.0177192
0.0156193
0.0135901
0.0116459
0.00978979
0.00803309
0.00636809
0.00480693
0.038421
0.0379798
0.0371619
0.0360288
0.034636
0.0330324
0.0312626
0.0293664
0.0273809
0.0253393
0.0232726
0.0212065
0.0191652
0.0171668
0.0152285
0.0133607
0.0115752
0.00987459
0.00826795
0.00674797
0.00532475
0.0366462
0.036223
0.0354395
0.0343561
0.033028
0.031504
0.0298282
0.0280395
0.0261739
0.0242627
0.0223348
0.0204141
0.0185224
0.0166759
0.0148899
0.0131729
0.0115354
0.00997874
0.00851063
0.00712405
0.00582736
0.0349477
0.0345436
0.0337966
0.0327654
0.0315043
0.0300617
0.0284808
0.0267993
0.0250517
0.0232676
0.0214737
0.0196923
0.0179428
0.0162398
0.0145965
0.0130205
0.0115202
0.0100968
0.00875645
0.00749245
0.00631171
0.0333272
0.0329433
0.0322341
0.0312568
0.0300642
0.0287038
0.0272176
0.025642
0.0240098
0.0223487
0.0206837
0.0190349
0.01742
0.015852
0.0143423
0.0128975
0.0115246
0.0102243
0.00900148
0.00784999
0.00677542
0.0317864
0.031423
0.0307527
0.0298301
0.0287068
0.0274284
0.0260359
0.024564
0.0230437
0.0215012
0.0199592
0.0184363
0.0169484
0.015507
0.014122
0.0127991
0.0115441
0.0103572
0.00924248
0.00819413
0.00721666
0.0303262
0.0299838
0.0293526
0.0284851
0.0274306
0.0262335
0.0249327
0.0235617
0.0221494
0.0207203
0.0192954
0.0178915
0.0165229
0.0151998
0.0139309
0.0127209
0.0115747
0.0104923
0.00947679
0.00852287
0.00763413
0.0289473
0.0286257
0.0280336
0.0272207
0.0262343
0.0251167
0.0239053
0.0226316
0.0213228
0.0200017
0.0186875
0.0173956
0.0161387
0.0149259
0.0137647
0.0126592
0.0116133
0.0106269
0.0097023
0.00883473
0.00802696
0.0276498
0.0273489
0.0267953
0.0260362
0.0251162
0.024076
0.0229507
0.0217703
0.0205602
0.0193414
0.0181316
0.0169446
0.0157919
0.0146815
0.0136201
0.0126108
0.0116572
0.0107588
0.00991737
0.00912862
0.00839464
0.0264335
0.0261529
0.0256369
0.02493
0.0240746
0.0231088
0.0220662
0.0209747
0.019858
0.0187356
0.0176236
0.0165346
0.0154787
0.0144632
0.0134937
0.0125731
0.0117041
0.0108862
0.0101208
0.00940383
0.00873699
0.025298
0.025037
0.0245574
0.023901
0.0231075
0.022213
0.0212489
0.0202416
0.0192129
0.0181809
0.0171602
0.0161622
0.015196
0.014268
0.0133831
0.0125437
0.0117522
0.0110078
0.0103116
0.00965998
0.00905412
0.0242425
0.0240003
0.0235557
0.0229474
0.022213
0.0213861
0.0204963
0.0195681
0.0186219
0.0176741
0.0167382
0.0158244
0.0149409
0.0140934
0.013286
0.0125209
0.0118
0.0111225
0.0104892
0.00989692
0.00934632
0.023266
0.0230418
0.0226302
0.0220677
0.0213891
0.020626
0.0198059
0.0189516
0.0180821
0.0172125
0.0163548
0.0155186
0.014711
0.0139371
0.0132006
0.0125032
0.0118464
0.0112297
0.0106534
0.0101147
0.00961409
0.0223673
0.02216
0.0217797
0.0212602
0.0206339
0.0199304
0.0191752
0.0183896
0.017591
0.0167933
0.0160076
0.0152424
0.0145042
0.0137973
0.0131252
0.0124892
0.0118906
0.0113288
0.010804
0.0103137
0.00985802
0.0215454
0.0213538
0.0210027
0.0205232
0.0199456
0.0192973
0.0186021
0.0178797
0.0171462
0.0164144
0.0156944
0.0149939
0.0143186
0.0136726
0.0130586
0.0124781
0.0119319
0.0114195
0.010941
0.0104941
0.0100788
0.0207988
0.0206219
0.0202976
0.0198551
0.0193223
0.0187247
0.0180845
0.0174199
0.0167457
0.0160738
0.0154133
0.0147712
0.0141528
0.0135615
0.0129999
0.0124691
0.0119698
0.0115017
0.0110645
0.0106565
0.0102772
0.0201265
0.0199629
0.0196633
0.0192545
0.0187625
0.018211
0.0176206
0.0170083
0.0163877
0.0157697
0.0151627
0.014573
0.0140054
0.013463
0.0129481
0.0124616
0.0120042
0.0115754
0.011175
0.0108013
0.010454
0.0195274
0.0193759
0.0190984
0.01872
0.0182647
0.0177547
0.017209
0.0166434
0.0160706
0.0155007
0.0149412
0.0143981
0.0138755
0.0133764
0.0129027
0.0124554
0.0120348
0.0116406
0.0112725
0.0109291
0.0106099
0.0190007
0.0188599
0.0186021
0.0182506
0.017828
0.0173546
0.0168484
0.016324
0.0157933
0.0152656
0.0147478
0.0142455
0.0137623
0.013301
0.0128633
0.01245
0.0120616
0.0116975
0.0113575
0.0110404
0.0107456
0.0185458
0.0184143
0.0181737
0.0178457
0.0174514
0.0170099
0.0165379
0.0160492
0.0155549
0.0150635
0.0145818
0.0141145
0.0136652
0.0132364
0.0128295
0.0124455
0.0120845
0.0117462
0.0114303
0.0111357
0.0108617
0.0181627
0.0180392
0.0178131
0.017505
0.0171347
0.0167201
0.0162771
0.0158185
0.0153548
0.0148941
0.0144425
0.0140047
0.0135838
0.0131822
0.0128012
0.0124416
0.0121036
0.0117869
0.0114911
0.0112152
0.0109586
0.0178519
0.0177348
0.0175206
0.0172288
0.016878
0.0164854
0.0160659
0.0156318
0.0151929
0.0147571
0.01433
0.0139159
0.013518
0.0131384
0.0127783
0.0124384
0.0121189
0.0118196
0.01154
0.0112792
0.0110367
0.0176146
0.0175025
0.0172974
0.017018
0.0166822
0.0163064
0.0159049
0.0154894
0.0150696
0.0146526
0.0142442
0.0138483
0.013468
0.013105
0.0127608
0.0124359
0.0121305
0.0118444
0.0115771
0.0113278
0.0110959
0.0174528
0.0173441
0.0171452
0.0168744
0.0165489
0.0161845
0.0157953
0.0153926
0.0149856
0.0145816
0.0141859
0.0138023
0.0134339
0.0130823
0.0127489
0.0124342
0.0121384
0.0118612
0.0116022
0.0113607
0.0111361
0.0173696
0.0172626
0.017067
0.0168006
0.0164804
0.016122
0.0157391
0.0153429
0.0149426
0.0145451
0.0141559
0.0137787
0.0134164
0.0130707
0.0127428
0.0124333
0.0121424
0.0118698
0.0116151
0.0113776
0.0111567
0.119346
0.120506
0.122776
0.126011
0.130125
0.135138
0.140952
0.147672
0.155185
0.163659
0.172953
0.183299
0.194506
0.206862
0.220141
0.234672
0.250192
0.267054
0.2849
0.304203
0.324314
0.346034
0.36809
0.119249
0.120407
0.122672
0.125901
0.130007
0.13501
0.140814
0.14752
0.155017
0.163472
0.172744
0.183065
0.194243
0.206566
0.219806
0.234295
0.24976
0.266565
0.284336
0.30356
0.323571
0.345181
0.367105
0.119145
0.1203
0.122561
0.125783
0.129881
0.134873
0.140664
0.147355
0.154834
0.163268
0.172515
0.182805
0.193948
0.20623
0.21942
0.233853
0.249245
0.265971
0.283639
0.302746
0.322609
0.344058
0.365774
0.119034
0.120185
0.122442
0.125657
0.129746
0.134727
0.140504
0.147178
0.154637
0.163046
0.172264
0.182519
0.19362
0.205854
0.218983
0.233346
0.248647
0.265272
0.282806
0.301762
0.321433
0.342664
0.364099
0.118917
0.120064
0.122315
0.125523
0.129602
0.134571
0.140333
0.146989
0.154425
0.162808
0.171993
0.182208
0.193261
0.205437
0.218494
0.232773
0.247966
0.264466
0.281838
0.300608
0.320041
0.340999
0.362081
0.118792
0.119935
0.122182
0.125381
0.12945
0.134406
0.140152
0.146787
0.1542
0.162552
0.171701
0.181871
0.192869
0.204979
0.217954
0.232135
0.247201
0.263554
0.280735
0.299282
0.318431
0.339062
0.359719
0.11866
0.1198
0.12204
0.125231
0.12929
0.134231
0.13996
0.146574
0.15396
0.16228
0.171389
0.181509
0.192445
0.204482
0.217362
0.231432
0.246353
0.262536
0.279497
0.297787
0.316605
0.336856
0.357015
0.118521
0.119657
0.12189
0.125074
0.129121
0.134048
0.139758
0.146349
0.153706
0.161991
0.171055
0.181122
0.19199
0.203944
0.216719
0.230664
0.245422
0.261413
0.278125
0.296123
0.314564
0.334382
0.353973
0.118376
0.119507
0.12173
0.124908
0.128944
0.133855
0.139546
0.146111
0.153439
0.161685
0.170702
0.180709
0.191502
0.203367
0.216025
0.229831
0.244408
0.260185
0.276618
0.29429
0.312309
0.331642
0.350595
0.118223
0.119351
0.121576
0.124735
0.128758
0.133653
0.139323
0.145862
0.153157
0.161362
0.170328
0.18027
0.190984
0.202749
0.215281
0.228934
0.243311
0.258853
0.274979
0.29229
0.309842
0.328638
0.346884
0.118064
0.119187
0.121402
0.124554
0.128564
0.133441
0.13909
0.145602
0.152862
0.161022
0.169934
0.179807
0.190433
0.202092
0.214485
0.227973
0.242133
0.257417
0.273207
0.290124
0.307164
0.325372
0.342844
0.117898
0.119017
0.121223
0.124366
0.128362
0.133221
0.138848
0.145329
0.152553
0.160667
0.169519
0.179319
0.189852
0.201395
0.21364
0.226948
0.240873
0.255878
0.271304
0.287793
0.304278
0.321847
0.338479
0.117725
0.118839
0.121038
0.12417
0.128152
0.132992
0.138595
0.145045
0.152231
0.160294
0.169085
0.178806
0.189239
0.200659
0.212745
0.225859
0.239532
0.254236
0.26927
0.285298
0.301184
0.318066
0.333792
0.117545
0.118655
0.120846
0.123967
0.127935
0.132755
0.138332
0.14475
0.151895
0.159906
0.168631
0.178269
0.188596
0.199884
0.2118
0.224708
0.23811
0.252493
0.267106
0.282641
0.297885
0.314032
0.328789
0.117359
0.118464
0.120647
0.123757
0.127709
0.132508
0.13806
0.144443
0.151546
0.159502
0.168158
0.177707
0.187922
0.19907
0.210805
0.223494
0.236608
0.250649
0.264814
0.279823
0.294384
0.309748
0.323474
0.117166
0.118266
0.120442
0.123539
0.127475
0.132253
0.137778
0.144126
0.151183
0.159081
0.167665
0.177121
0.187218
0.198218
0.209762
0.222217
0.235027
0.248704
0.262394
0.276847
0.290682
0.305219
0.317853
0.116967
0.118062
0.120229
0.123314
0.127234
0.131989
0.137486
0.143797
0.150808
0.158645
0.167153
0.176511
0.186484
0.197327
0.20867
0.220879
0.233367
0.24666
0.259847
0.273713
0.286783
0.300446
0.311933
0.116761
0.117851
0.12001
0.123082
0.126985
0.131718
0.137185
0.143457
0.15042
0.158194
0.166622
0.175877
0.18572
0.196399
0.20753
0.219479
0.231629
0.244518
0.257175
0.270423
0.282688
0.295435
0.305718
0.116548
0.117634
0.119784
0.122844
0.126728
0.131437
0.136875
0.143107
0.150019
0.157727
0.166072
0.17522
0.184926
0.195433
0.206343
0.218018
0.229813
0.242278
0.254379
0.266981
0.2784
0.290191
0.299215
0.116329
0.117411
0.119551
0.122598
0.126464
0.131149
0.136555
0.142745
0.149606
0.157245
0.165503
0.174539
0.184103
0.194429
0.205108
0.216497
0.22792
0.239941
0.251461
0.263386
0.273924
0.284716
0.292432
0.116104
0.117181
0.119312
0.122345
0.126193
0.130853
0.136226
0.142374
0.14918
0.156748
0.164916
0.173835
0.183251
0.193389
0.203826
0.214916
0.225952
0.237508
0.248421
0.259642
0.26926
0.279016
0.285374
0.115872
0.116944
0.119067
0.122086
0.125915
0.130548
0.135889
0.141992
0.148742
0.156236
0.164311
0.173108
0.182371
0.192311
0.202498
0.213276
0.223908
0.234981
0.245261
0.255751
0.264413
0.273096
0.27805
0.115634
0.116702
0.118815
0.12182
0.125629
0.130236
0.135543
0.1416
0.148292
0.15571
0.163688
0.172359
0.181462
0.191198
0.201123
0.211577
0.22179
0.232359
0.241983
0.251715
0.259385
0.26696
0.270467
0.11539
0.116454
0.118555
0.121547
0.125337
0.129917
0.135188
0.141198
0.147831
0.155169
0.163047
0.171588
0.180525
0.190048
0.199704
0.209819
0.219598
0.229645
0.238589
0.247536
0.25418
0.260615
0.262633
0.11514
0.1162
0.118286
0.121268
0.125038
0.12959
0.134825
0.140787
0.147357
0.154614
0.162389
0.170794
0.179561
0.188863
0.198239
0.208003
0.217333
0.226838
0.235079
0.243217
0.248801
0.254064
0.254555
0.114884
0.11594
0.118027
0.120983
0.124732
0.129255
0.134453
0.140365
0.146872
0.154045
0.161713
0.169979
0.178569
0.187643
0.196731
0.20613
0.214997
0.223941
0.231455
0.23876
0.243251
0.247314
0.246242
0.114622
0.115674
0.117747
0.120691
0.124419
0.128913
0.134073
0.139935
0.146377
0.153463
0.161021
0.169143
0.17755
0.186388
0.195178
0.2042
0.21259
0.220953
0.227721
0.234167
0.237534
0.240371
0.237701
0.114354
0.115402
0.117463
0.120393
0.1241
0.128565
0.133686
0.139495
0.14587
0.152867
0.160312
0.168285
0.176504
0.185099
0.193582
0.202214
0.210113
0.217877
0.223876
0.22944
0.231653
0.233241
0.22894
0.11408
0.115124
0.117175
0.12009
0.123775
0.128209
0.13329
0.139046
0.145352
0.152258
0.159587
0.167407
0.175432
0.183775
0.191942
0.200173
0.207567
0.214712
0.219923
0.224583
0.22561
0.225929
0.219966
0.113801
0.114841
0.116882
0.119781
0.123444
0.127847
0.132887
0.138588
0.144824
0.151636
0.158845
0.166508
0.174334
0.182418
0.190261
0.198076
0.204953
0.211459
0.215865
0.219596
0.21941
0.218442
0.210786
0.113516
0.114553
0.116583
0.119466
0.123106
0.127478
0.132477
0.138122
0.144285
0.151002
0.158088
0.165589
0.173211
0.181028
0.188537
0.195925
0.202271
0.20812
0.211703
0.214482
0.213057
0.210786
0.201406
0.113225
0.114258
0.116279
0.119146
0.122763
0.127102
0.132059
0.137647
0.143736
0.150354
0.157315
0.16465
0.172062
0.179605
0.186772
0.19372
0.199523
0.204696
0.207439
0.209242
0.206554
0.202967
0.191833
0.112929
0.11396
0.115969
0.11882
0.122414
0.12672
0.131634
0.137163
0.143177
0.149695
0.156526
0.163692
0.170888
0.17815
0.184965
0.191462
0.19671
0.201187
0.203076
0.203879
0.199905
0.194993
0.182066
0.112627
0.113656
0.115654
0.118489
0.122059
0.126333
0.131202
0.136672
0.142609
0.149024
0.155723
0.162715
0.169689
0.176664
0.183118
0.189151
0.193831
0.197594
0.198615
0.198392
0.193114
0.186868
0.172108
0.11232
0.113346
0.115334
0.118153
0.121699
0.125939
0.130764
0.136173
0.142031
0.148341
0.154905
0.161718
0.168466
0.175145
0.181231
0.186788
0.190888
0.193918
0.194058
0.192783
0.186186
0.178594
0.112008
0.113032
0.11501
0.117812
0.121333
0.125538
0.130318
0.135665
0.141442
0.147645
0.15407
0.1607
0.167216
0.173592
0.179299
0.18437
0.187877
0.190156
0.189404
0.187049
0.179125
0.170171
0.111691
0.112712
0.11468
0.117465
0.120962
0.125132
0.129865
0.135149
0.140844
0.146936
0.15322
0.159663
0.16594
0.172007
0.177327
0.1819
0.184804
0.186317
0.184665
0.181205
0.171953
0.161617
0.111368
0.112389
0.114347
0.117118
0.120591
0.124728
0.129416
0.134639
0.140253
0.146237
0.152378
0.158635
0.164673
0.170426
0.175354
0.179421
0.18171
0.18244
0.179872
0.175274
0.164685
0.152951
0.111041
0.112062
0.114013
0.11677
0.120222
0.124329
0.128976
0.134141
0.139678
0.145557
0.15156
0.157631
0.163426
0.16886
0.173381
0.176922
0.178566
0.17847
0.17494
0.169132
0.157158
0.143959
0.110708
0.111724
0.113659
0.116392
0.119811
0.123872
0.128458
0.133543
0.138975
0.144717
0.150545
0.156387
0.161894
0.166955
0.171018
0.173972
0.174922
0.173952
0.169454
0.162402
0.149127
0.117567
0.118735
0.120957
0.124113
0.12808
0.13282
0.138217
0.144254
0.150787
0.157782
0.16503
0.172461
0.179753
0.186787
0.193054
0.198417
0.202059
0.203983
0.202769
0.19916
0.189985
0.117737
0.118908
0.121138
0.124308
0.128294
0.133063
0.138499
0.144591
0.151199
0.158297
0.165683
0.1733
0.180833
0.188186
0.194854
0.200737
0.205006
0.207733
0.207417
0.204964
0.196984
0.187689
0.1179
0.119071
0.121302
0.124475
0.128469
0.13325
0.138706
0.144829
0.151484
0.158652
0.166137
0.173895
0.18162
0.189236
0.196248
0.202589
0.207431
0.2109
0.211461
0.210121
0.203419
0.1955
0.118058
0.119225
0.121465
0.124642
0.128647
0.133444
0.138924
0.145085
0.151792
0.159037
0.166626
0.17453
0.182448
0.190325
0.197674
0.204456
0.209845
0.214019
0.215413
0.215118
0.209643
0.203041
0.11821
0.119378
0.121625
0.124807
0.128823
0.133639
0.139145
0.145345
0.152107
0.15943
0.167125
0.175175
0.183286
0.191422
0.199101
0.206319
0.212243
0.217107
0.21932
0.220041
0.21578
0.210477
0.118356
0.119525
0.121767
0.124966
0.128992
0.133826
0.139357
0.145596
0.152411
0.159809
0.167606
0.175798
0.184096
0.192483
0.200485
0.208126
0.214576
0.220114
0.223136
0.22485
0.221803
0.217781
0.118496
0.119665
0.121914
0.125121
0.129155
0.134006
0.139561
0.145836
0.152702
0.160173
0.168069
0.176397
0.184877
0.193509
0.201824
0.209878
0.216839
0.223035
0.226854
0.229536
0.227694
0.224939
0.11863
0.1198
0.122053
0.125261
0.129312
0.134178
0.139757
0.146067
0.152982
0.160524
0.168516
0.176977
0.185632
0.194502
0.203121
0.211576
0.219038
0.225873
0.230475
0.2341
0.233448
0.231946
0.222993
0.118758
0.119929
0.122186
0.125394
0.129466
0.134344
0.139945
0.146289
0.153252
0.160862
0.168947
0.177538
0.186363
0.195462
0.204378
0.213222
0.221171
0.228628
0.233999
0.238541
0.239062
0.2388
0.231498
0.11888
0.120051
0.122312
0.125529
0.12962
0.134503
0.140124
0.146502
0.153511
0.161187
0.169362
0.178078
0.187068
0.19639
0.205593
0.214815
0.223238
0.231298
0.237423
0.242859
0.244531
0.245496
0.239817
0.118995
0.120168
0.122432
0.125655
0.129722
0.134655
0.140296
0.146705
0.153758
0.161499
0.169761
0.178597
0.187747
0.197285
0.206766
0.216353
0.225239
0.233883
0.240745
0.247051
0.249852
0.252026
0.247944
0.119105
0.120278
0.122546
0.125773
0.129856
0.134803
0.140459
0.146898
0.153995
0.161796
0.170142
0.179095
0.188399
0.198146
0.207896
0.217837
0.227172
0.236381
0.243963
0.251115
0.255021
0.258386
0.255873
0.119208
0.120382
0.122653
0.125885
0.129982
0.134948
0.140615
0.147082
0.154219
0.16208
0.170507
0.179572
0.189024
0.198972
0.208983
0.219265
0.229036
0.238792
0.247076
0.25505
0.260033
0.26457
0.263597
0.119304
0.120479
0.122754
0.125991
0.130094
0.135044
0.140761
0.147256
0.154432
0.16235
0.170854
0.180027
0.189622
0.199765
0.210026
0.220637
0.230831
0.241114
0.250081
0.258853
0.264886
0.27057
0.271108
0.119394
0.12057
0.122848
0.12609
0.130199
0.135162
0.140897
0.14742
0.154633
0.162606
0.171184
0.18046
0.190193
0.200522
0.211025
0.221953
0.232555
0.243347
0.252976
0.262522
0.269575
0.276382
0.278399
0.119478
0.120655
0.122936
0.126182
0.130297
0.135279
0.14103
0.147575
0.154822
0.162847
0.171496
0.180871
0.190736
0.201243
0.21198
0.223212
0.234208
0.24549
0.255759
0.266054
0.274097
0.282
0.285462
0.119555
0.120733
0.123016
0.126267
0.130388
0.135381
0.141185
0.147721
0.154999
0.163073
0.17179
0.18126
0.191251
0.201929
0.21289
0.224412
0.235789
0.247541
0.258429
0.269448
0.278448
0.287418
0.292289
0.119626
0.120804
0.12309
0.126344
0.130472
0.135471
0.141211
0.147858
0.155164
0.163285
0.172065
0.181625
0.191737
0.202579
0.213754
0.225555
0.237297
0.2495
0.260983
0.272701
0.282625
0.29263
0.298871
0.11969
0.120869
0.123157
0.126415
0.130548
0.135555
0.14135
0.147982
0.155317
0.163481
0.172323
0.181968
0.192195
0.203192
0.214572
0.226639
0.238731
0.251365
0.263421
0.27581
0.286624
0.297631
0.3052
0.119747
0.120927
0.123217
0.126478
0.130616
0.135632
0.141445
0.148096
0.155457
0.163662
0.172561
0.182288
0.192623
0.203768
0.215344
0.227663
0.24009
0.253136
0.26574
0.278774
0.290443
0.302416
0.31127
0.119797
0.120978
0.12327
0.126533
0.130676
0.1357
0.14152
0.148201
0.155586
0.163828
0.172781
0.182584
0.193023
0.204307
0.216069
0.228627
0.241373
0.254812
0.267939
0.28159
0.294078
0.306979
0.317072
0.119841
0.121022
0.123315
0.126582
0.130728
0.135759
0.141585
0.14824
0.155703
0.163979
0.172982
0.182856
0.193392
0.204808
0.216747
0.229532
0.24258
0.256391
0.270016
0.284256
0.297526
0.311317
0.322599
0.119878
0.121059
0.123354
0.126622
0.130772
0.135809
0.141643
0.14834
0.155807
0.164114
0.173164
0.183104
0.193732
0.205272
0.217376
0.230375
0.24371
0.257873
0.271971
0.286769
0.300784
0.315425
0.327844
0.119908
0.121089
0.123385
0.126655
0.130808
0.135851
0.141692
0.148408
0.155903
0.164234
0.173327
0.183327
0.194042
0.205697
0.217958
0.231157
0.244762
0.259257
0.273801
0.289129
0.303848
0.319298
0.3328
0.119931
0.121113
0.123409
0.126681
0.130836
0.135884
0.141731
0.148456
0.155938
0.164339
0.17347
0.183526
0.194321
0.206084
0.21849
0.231877
0.245735
0.260543
0.275505
0.291332
0.306717
0.322931
0.337461
0.119947
0.121129
0.123426
0.126698
0.130855
0.135907
0.14176
0.148495
0.155986
0.164429
0.173595
0.183701
0.19457
0.206432
0.218974
0.232535
0.24663
0.261728
0.277083
0.293378
0.309388
0.326322
0.341821
0.119956
0.121138
0.123435
0.126708
0.130867
0.135922
0.141779
0.148523
0.156043
0.164506
0.1737
0.18385
0.194788
0.206741
0.219409
0.23313
0.247444
0.262813
0.278532
0.295264
0.311857
0.329465
0.345874
0.119958
0.12114
0.123437
0.12671
0.130869
0.135927
0.141788
0.14854
0.156074
0.164536
0.173786
0.183974
0.194975
0.207011
0.219793
0.233663
0.248178
0.263796
0.279853
0.296988
0.314124
0.332359
0.349615
0.119954
0.121135
0.123432
0.126704
0.130864
0.135923
0.141787
0.148545
0.156087
0.164546
0.173861
0.184073
0.195131
0.207242
0.220128
0.234132
0.248831
0.264677
0.281043
0.29855
0.316184
0.334998
0.353038
0.119942
0.121122
0.123419
0.126691
0.130849
0.13591
0.141775
0.148539
0.156089
0.16458
0.173947
0.184146
0.195255
0.207432
0.220413
0.234538
0.249402
0.265456
0.282102
0.299948
0.318037
0.337381
0.35614
0.119923
0.121102
0.123398
0.126669
0.130827
0.135887
0.141754
0.148521
0.156077
0.16458
0.173818
0.184204
0.195349
0.207583
0.220647
0.23488
0.249891
0.266132
0.283029
0.30118
0.319681
0.339504
0.358916
0.119897
0.121076
0.12337
0.126639
0.130795
0.135855
0.141721
0.148491
0.156052
0.164562
0.173862
0.184276
0.19542
0.207695
0.220829
0.235158
0.250298
0.266705
0.283824
0.302246
0.321113
0.341365
0.361361
0.119864
0.121041
0.123335
0.126602
0.130756
0.135813
0.141678
0.148449
0.156013
0.16453
0.173851
0.184189
0.195469
0.207772
0.220962
0.235371
0.250622
0.267173
0.284484
0.303144
0.322332
0.342962
0.363473
0.119824
0.121
0.123291
0.126556
0.130707
0.135762
0.141625
0.148395
0.155959
0.164481
0.173811