/*--------------------------------*- C++ -*----------------------------------*\
  =========                 |
  \\      /  F ield         | OpenFOAM: The Open Source CFD Toolbox
   \\    /   O peration     | Website:  https://openfoam.org
    \\  /    A nd           | Version:  7
     \\/     M anipulation  |
\*---------------------------------------------------------------------------*/
FoamFile
{
    version     2.0;
    format      ascii;
    class       surfaceScalarField;
    location    "160";
    object      phi;
}
// * * * * * * * * * * * * * * * * * * * * * * * * * * * * * * * * * * * * * //

dimensions      [0 3 -1 0 0 0 0];

internalField   nonuniform List<scalar> 
14027
(
-0.00186812
-0.000879265
-0.00181988
-0.0008902
-0.00177121
-0.000900849
-0.00086211
-0.00168982
-0.00172211
-0.000911211
-0.000871761
-0.00164125
-0.00167259
-0.000921281
-0.000881128
-0.00159227
-0.00162266
-0.000931056
-0.000890208
-0.0015429
-0.00157234
-0.000940533
-0.000849251
-0.00146568
-0.000898997
-0.00149315
-0.00152162
-0.000949709
-0.00085738
-0.00141651
-0.000907495
-0.00144304
-0.00147054
-0.000958582
-0.000865226
-0.00136698
-0.000915698
-0.00139257
-0.00141909
-0.00096715
-0.000872787
-0.00131712
-0.000923604
-0.00134175
-0.00136728
-0.000975408
-0.000829869
-0.0012443
-0.000880061
-0.00126693
-0.000931212
-0.0012906
-0.00131514
-0.000983356
-0.00083654
-0.00119472
-0.000887047
-0.00121642
-0.000938519
-0.00123913
-0.00126267
-0.00099099
-0.000842932
-0.00114484
-0.000893742
-0.00116561
-0.000945523
-0.00118735
-0.00120988
-0.000998309
-0.000849046
-0.00109467
-0.000900146
-0.00111451
-0.000952223
-0.00113527
-0.00115679
-0.00100531
-0.000854878
-0.00104423
-0.000906256
-0.00106313
-0.000958616
-0.00108291
-0.00110342
-0.00101199
-0.000809729
-0.000976407
-0.000860428
-0.000993535
-0.000912071
-0.00101149
-0.000964701
-0.00103028
-0.00104976
-0.00101835
-0.000814748
-0.000926366
-0.000865694
-0.000942588
-0.000917589
-0.000959594
-0.000970476
-0.000977392
-0.000995849
-0.00102439
-0.000819495
-0.000876095
-0.000870676
-0.000891407
-0.00092281
-0.00090746
-0.00097594
-0.000924262
-0.000941686
-0.0010301
-0.000823969
-0.000825606
-0.000875372
-0.000840005
-0.000927731
-0.000855101
-0.000981091
-0.000870902
-0.000887288
-0.00103549
-0.00082817
-0.000774912
-0.000879781
-0.000788394
-0.000932352
-0.00080253
-0.000985928
-0.000817326
-0.00083267
-0.00104055
-0.000832096
-0.000724026
-0.000883901
-0.000736588
-0.000936671
-0.000749761
-0.000990449
-0.000763548
-0.000777846
-0.00104527
-0.000835746
-0.000672962
-0.000887733
-0.000684601
-0.000940687
-0.000696806
-0.000994654
-0.000709581
-0.000722828
-0.00104967
-0.00078789
-0.000611524
-0.000839119
-0.000621733
-0.000891274
-0.000632447
-0.0009444
-0.000643681
-0.000998541
-0.000655439
-0.000667633
-0.00105374
-0.000790835
-0.000561028
-0.000842216
-0.000570353
-0.000894525
-0.000580138
-0.000947807
-0.000590398
-0.00100211
-0.000601138
-0.000612274
-0.00105747
-0.000793515
-0.000510396
-0.000845034
-0.000518834
-0.000897483
-0.000527688
-0.000950909
-0.000536973
-0.00100536
-0.00054669
-0.000556766
-0.00106087
-0.00079593
-0.000459642
-0.000847573
-0.000467191
-0.00090015
-0.000475112
-0.000953705
-0.000483418
-0.00100828
-0.00049211
-0.000501123
-0.00106393
-0.000798079
-0.000408778
-0.000849833
-0.000415436
-0.000902523
-0.000422422
-0.000956193
-0.000429747
-0.00101089
-0.000437413
-0.00044536
-0.00106665
-0.000799962
-0.000357819
-0.000851814
-0.000363585
-0.000904602
-0.000369634
-0.000958373
-0.000375976
-0.00101317
-0.000382612
-0.000389491
-0.00106904
-0.000801579
-0.000306777
-0.000853514
-0.000311649
-0.000906387
-0.00031676
-0.000960245
-0.000322118
-0.00101513
-0.000327723
-0.000333532
-0.00107109
-0.000802928
-0.000255666
-0.000854933
-0.000259644
-0.000907878
-0.000263816
-0.000961808
-0.000268188
-0.00101677
-0.00027276
-0.000277498
-0.00107281
-0.00080401
-0.000204501
-0.000856071
-0.000207583
-0.000909073
-0.000210814
-0.000963061
-0.000214199
-0.00101808
-0.000217738
-0.000221402
-0.00107418
-0.000804825
-0.000153294
-0.000856928
-0.00015548
-0.000909973
-0.00015777
-0.000964005
-0.000160167
-0.00101907
-0.000162671
-0.000165261
-0.00107521
-0.000805372
-0.00010206
-0.000857504
-0.000103349
-0.000910577
-0.000104697
-0.000964639
-0.000106105
-0.00101974
-0.000107574
-0.000109089
-0.00107591
-0.000805651
-5.0811e-05
-0.000857797
-5.12033e-05
-0.000910885
-5.16089e-05
-0.000964962
-5.20283e-05
-0.00102007
-5.24612e-05
-5.2901e-05
-0.00107626
-0.000805663
4.37935e-07
-0.000857809
9.42948e-07
-0.000910897
1.47967e-06
-0.000964975
2.04925e-06
-0.00102009
2.65177e-06
3.28544e-06
-0.00107627
-0.000805406
5.16736e-05
-0.000857539
5.30757e-05
-0.000910614
5.45547e-05
-0.000964678
5.61131e-05
-0.00101978
5.77512e-05
5.94542e-05
-0.00107595
-0.000804881
0.000102882
-0.000856987
0.000105181
-0.000910034
0.000107602
-0.00096407
0.000110149
-0.00101914
0.000112823
0.000115603
-0.00107529
-0.000804088
0.00015405
-0.000856153
0.000157246
-0.000909159
0.000160608
-0.000963153
0.000164144
-0.00101818
0.000167852
0.000171709
-0.00107429
-0.000803028
0.000205164
-0.000855037
0.000209255
-0.000907987
0.000213558
-0.000961925
0.000218081
-0.0010169
0.000222824
0.000227755
-0.00107294
-0.0008017
0.000256209
-0.00085364
0.000261195
-0.00090652
0.000266438
-0.000960387
0.000271948
-0.00101529
0.000277724
0.000283727
-0.00107126
-0.000800105
0.000307173
-0.000851962
0.000313053
-0.000904758
0.000319234
-0.000958539
0.000325728
-0.00101335
0.000332536
0.000339611
-0.00106923
-0.000798242
0.000358041
-0.000850003
0.000364814
-0.000902701
0.000371932
-0.000956382
0.00037941
-0.00101109
0.000387247
0.00039539
-0.00106687
-0.000796113
0.000408801
-0.000847763
0.000416464
-0.000900349
0.000424518
-0.000953916
0.000432977
-0.00100851
0.000441842
0.000451051
-0.00106417
-0.000793717
0.000459438
-0.000845244
0.000467991
-0.000897704
0.000476978
-0.000951142
0.000486415
-0.00100561
0.000496306
0.00050658
-0.00106113
-0.000791056
0.00050994
-0.000842445
0.000519379
-0.000894765
0.000529298
-0.000948061
0.000539712
-0.00100238
0.000550625
0.00056196
-0.00105776
-0.00078813
-0.000839367
0.000570616
-0.000891533
0.000581464
-0.000944673
0.000592852
-0.000998832
0.000604785
0.000617177
-0.00105405
-0.000836011
0.000621689
-0.000888009
0.000633462
-0.000940979
0.000645821
-0.000994965
0.000658771
0.000672218
-0.00105001
-0.000832377
0.000672583
-0.000884194
0.000685279
-0.000936979
0.000698606
-0.000990778
0.000712569
0.000727067
-0.00104563
-0.000828467
0.000723285
-0.000880089
0.000736902
-0.000932676
0.000751193
-0.000986272
0.000766165
0.000781711
-0.00104092
-0.000824281
0.000773782
-0.000875695
0.000788316
-0.000928069
0.000803568
-0.00098145
0.000819546
0.000836134
-0.00103587
-0.000819819
0.000824061
-0.000871012
0.000839508
-0.000923161
0.000855717
-0.000976311
0.000872696
0.000890323
-0.0010305
-0.000815084
0.000874108
-0.000866042
0.000890466
-0.000917952
0.000907627
-0.000970859
0.000925603
0.000944263
-0.0010248
-0.000810076
-0.000860785
0.000941175
-0.000912443
0.000959285
-0.000965093
0.000978253
0.000997942
-0.00101877
-0.000855244
0.000991623
-0.000906636
0.00101068
-0.000959015
0.00103063
0.00105134
-0.00101242
-0.000849419
0.0010418
-0.000900532
0.00106179
-0.000952627
0.00108273
0.00110446
-0.00100574
-0.000843312
0.00109169
-0.000894133
0.00111261
-0.000945931
0.00113452
0.00115727
-0.000998741
-0.000836924
0.00114127
-0.000887441
0.00116313
-0.000938929
0.00118601
0.00120976
-0.000991422
-0.000830256
-0.000880456
0.00121333
-0.000931621
0.00123718
0.00126192
-0.000983786
-0.000873182
0.0012632
-0.000924011
0.00128801
0.00131375
-0.000975834
-0.000865618
0.00131273
-0.0009161
0.00133849
0.00136522
-0.000967569
-0.000857769
0.00136191
-0.000907891
0.00138861
0.00141632
-0.000958993
-0.000849634
-0.000899385
0.00143836
0.00146704
-0.000950108
-0.000890586
0.00148773
0.00151737
-0.000940919
-0.000881494
0.00153671
0.0015673
-0.000931426
-0.000872114
0.00158528
0.00161682
-0.000921634
-0.000862447
0.00166592
-0.000911545
0.00171459
-0.000901163
0.00176281
-0.000890491
-0.000879532
0.00448238
3.55747e-05
-3.39877e-05
0.00447788
0.000105509
-0.000101006
0.00447091
0.00017278
-0.000165815
0.0044617
0.000237251
-0.000228043
0.00445049
0.000299602
-0.000288393
0.00443743
0.000360039
-0.000346979
0.00442267
0.000418932
-0.000404169
0.00440633
0.000476655
-0.000460315
0.00438854
0.000533598
-0.000515807
0.00436944
0.000590234
-0.000571136
0.00434919
0.000646973
-0.000626726
0.004328
0.000704275
-0.000683084
0.0043061
0.000762498
-0.000740594
0.00428379
0.000821992
-0.000799682
0.00426142
0.000882987
-0.000860615
0.00423944
0.000945635
-0.00092366
0.00421835
0.00100999
-0.000988905
0.00419881
0.00107592
-0.00105638
0.00418148
0.00114328
-0.00112595
0.00416725
0.00121153
-0.0011973
0.00415693
0.00128043
-0.00127011
0.00415177
0.00134869
-0.00134353
0.00415253
0.00141654
-0.00141729
0.0041611
0.00148084
-0.00148941
0.00417744
0.00154456
-0.0015609
0.00420576
0.00159788
-0.0016262
0.00165775
-0.00169364
0.00456721
3.7121e-05
0.00456279
0.000109927
0.00455597
0.000179601
0.00454697
0.000246254
0.00453603
0.000310538
0.00452333
0.00037274
0.00450903
0.000433236
0.00449327
0.000492412
0.00447621
0.00055066
0.00445802
0.000608424
0.00443889
0.000666105
0.00441906
0.000724104
0.0043988
0.000782755
0.00437848
0.000842317
0.00435847
0.000902995
0.0043393
0.000964809
0.00432149
0.0010278
0.00430576
0.00109165
0.00429277
0.00115627
0.00428351
0.00122079
0.0042787
0.00128525
0.00427965
0.00134774
0.00428688
0.0014093
0.00430243
0.00146529
0.00432583
0.00152116
0.00436116
0.00156255
0.00161341
0.00465364
3.86335e-05
0.00464934
0.000114231
0.0046427
0.000186242
0.00463396
0.000254996
0.00462336
0.000321129
0.00461111
0.000384994
0.00459737
0.000446978
0.00458231
0.000507471
0.0045661
0.000566865
0.00454896
0.000625572
0.00453108
0.000683979
0.00451276
0.000742426
0.0044943
0.000801221
0.00447608
0.000860531
0.00445854
0.000920535
0.00444223
0.000981122
0.0044277
0.00104233
0.00441569
0.00110365
0.00440688
0.00116508
0.00440223
0.00122544
0.00440242
0.00128506
0.00440871
0.00134144
0.00442153
0.00139649
0.00444267
0.00144414
0.00447169
0.00149214
0.00451131
0.00152293
0.00156533
0.00474171
4.01068e-05
0.00473754
0.000118403
0.00473111
0.000192673
0.00472267
0.000263432
0.00471249
0.000331315
0.00470075
0.000396729
0.00468766
0.000460073
0.00467339
0.000521734
0.00465815
0.000582103
0.00464217
0.000641559
0.00462568
0.000700468
0.00460899
0.000759111
0.00459244
0.000817768
0.00457646
0.000876517
0.00456149
0.000935508
0.0045481
0.000994512
0.00453686
0.00105357
0.00452852
0.00111199
0.00452373
0.00116987
0.00452342
0.00122575
0.00452822
0.00128026
0.00453926
0.0013304
0.0045569
0.00137885
0.00458256
0.00141849
0.00461592
0.00145878
0.0046584
0.00148045
0.00151459
0.00483145
4.15351e-05
0.00482743
0.000122428
0.00482123
0.000198867
0.00481314
0.000271524
0.00480341
0.000341048
0.00479225
0.000407886
0.00477987
0.000472448
0.00476649
0.00053512
0.00475231
0.000596283
0.00473759
0.000656283
0.00472259
0.000715466
0.00470765
0.000774052
0.00469312
0.000832292
0.00467946
0.000890179
0.00466713
0.000947841
0.0046567
0.00100494
0.00464876
0.00106151
0.00464403
0.00111673
0.00464313
0.00117077
0.00464691
0.00122196
0.00465596
0.00127122
0.00467124
0.00131513
0.00469306
0.00135703
0.00472242
0.00138913
0.0047592
0.00142201
0.00480396
0.00143569
0.00146185
0.00492289
4.2913e-05
0.00491903
0.000126293
0.0049131
0.000204798
0.00490538
0.00027924
0.00489615
0.000350284
0.00488562
0.000418411
0.00487403
0.000484043
0.00486159
0.000547556
0.00484855
0.000609326
0.00483517
0.000669662
0.00482175
0.000728888
0.00480864
0.000787165
0.00479621
0.000844716
0.00478493
0.000901456
0.00477528
0.000957492
0.00476784
0.00101238
0.00476315
0.00106619
0.00476192
0.00111796
0.00476474
0.00116796
0.00477236
0.00121434
0.0047853
0.00125827
0.00480434
0.00129609
0.00482976
0.00133161
0.00486219
0.0013567
0.00490163
0.00138256
0.00494811
0.00138922
0.00140802
0.00501607
4.42352e-05
0.00501238
0.000129983
0.00500673
0.000210444
0.00499943
0.000286547
0.00499073
0.000358983
0.00498088
0.000428256
0.00497012
0.0004948
0.0049587
0.000558981
0.00494686
0.000621166
0.00493489
0.000681627
0.00492312
0.000740665
0.00491189
0.000798386
0.00490162
0.000854988
0.00489277
0.000910312
0.0048858
0.000964453
0.0048813
0.00101688
0.0048798
0.00106769
0.00488195
0.00111581
0.00488828
0.00116163
0.00489946
0.00120316
0.00491593
0.0012418
0.00493828
0.00127373
0.00496677
0.00130312
0.00500169
0.00132178
0.00504316
0.00134109
0.00509076
0.00134162
0.00135383
0.00511101
4.54962e-05
0.00510751
0.000133483
0.00510217
0.000215781
0.0050953
0.000293416
0.00508718
0.000367107
0.00507806
0.000437378
0.00506819
0.000504672
0.00505782
0.000569343
0.00504724
0.000631747
0.00503675
0.000692122
0.00502667
0.000750747
0.00501738
0.000807674
0.00500929
0.00086308
0.00500286
0.000916742
0.00499856
0.000968747
0.00499695
0.0010185
0.00499853
0.00106612
0.00500388
0.00111046
0.0050135
0.00115201
0.00502794
0.00118872
0.00504758
0.00122216
0.00507282
0.00124849
0.00510388
0.00127206
0.00514081
0.00128485
0.00518374
0.00129816
0.00523197
0.0012934
0.00129975
0.00520775
4.66908e-05
0.00520445
0.00013678
0.00519945
0.000220787
0.00519305
0.000299817
0.00518553
0.000374621
0.00517718
0.000445735
0.00516824
0.000513613
0.00515898
0.000578593
0.00514971
0.000641023
0.00514073
0.000701104
0.00513238
0.000759096
0.00512505
0.000815004
0.00511914
0.000868984
0.00511512
0.00092076
0.00511345
0.000970421
0.00511464
0.00101731
0.00511916
0.00106159
0.00512754
0.00110208
0.0051402
0.00113934
0.0051576
0.00117132
0.00518004
0.00119972
0.00520777
0.00122075
0.00524095
0.00123888
0.00527944
0.00124636
0.00532337
0.00125424
0.00537185
0.00124492
0.00124612
0.00530633
4.78138e-05
0.00530324
0.00013986
0.00529859
0.000225439
0.00529269
0.000305722
0.00528582
0.000381491
0.00527826
0.000453291
0.00527029
0.000521584
0.00526219
0.000586693
0.00525426
0.000648956
0.00524682
0.00070854
0.00524023
0.00076569
0.00523487
0.000820366
0.00523114
0.000872711
0.00522949
0.000922406
0.00523037
0.000969545
0.00523425
0.00101344
0.00524156
0.00105428
0.00525275
0.00109088
0.00526821
0.00112389
0.00528825
0.00115127
0.00531314
0.00117484
0.00534297
0.00119092
0.00537786
0.00120399
0.00541752
0.0012067
0.00546204
0.00120971
0.00551046
0.0011965
0.00119323
0.00540677
4.88602e-05
0.00540392
0.000142711
0.00539964
0.000229717
0.00539425
0.000311106
0.00538806
0.000387686
0.00538134
0.000460011
0.00537438
0.000528548
0.00536746
0.000593606
0.0053609
0.000655514
0.00535504
0.000714408
0.00535021
0.000770517
0.00534681
0.000823766
0.00534523
0.00087429
0.0053459
0.000921735
0.00534924
0.000966208
0.00535567
0.001007
0.0053656
0.00104436
0.0053794
0.00107709
0.00539737
0.00110591
0.00541977
0.00112888
0.00544676
0.00114785
0.00547833
0.00115935
0.00551455
0.00116777
0.00555502
0.00116624
0.00559981
0.00116492
0.00564789
0.00114843
0.00114129
0.00550911
4.98252e-05
0.0055065
0.00014532
0.00550262
0.000233602
0.00549778
0.000315943
0.00549229
0.000393177
0.00548644
0.000465864
0.00548051
0.000534476
0.00547481
0.000599306
0.00546965
0.000660676
0.00546536
0.000718694
0.0054623
0.000773578
0.00546084
0.000825223
0.00546137
0.000873762
0.00546429
0.000918819
0.00546998
0.000960516
0.00547883
0.000998149
0.00549119
0.001032
0.00550736
0.00106092
0.00552759
0.00108568
0.00555203
0.00110444
0.0055808
0.00111908
0.00561378
0.00112637
0.00565099
0.00113056
0.00569195
0.00112527
0.00573672
0.00112015
0.00578423
0.00110092
0.00109048
0.00561339
5.07043e-05
0.00561104
0.000147675
0.00560757
0.000237075
0.0056033
0.00032021
0.00559854
0.000397939
0.00559358
0.000470825
0.00558871
0.000539342
0.00558424
0.000603772
0.00558049
0.000664427
0.00557779
0.000721396
0.00557648
0.000774886
0.00557694
0.000824771
0.00557951
0.000871184
0.00558459
0.000913744
0.00559252
0.000952588
0.00560363
0.000987035
0.00561823
0.0010174
0.00563655
0.0010426
0.00565877
0.00106345
0.00568497
0.00107825
0.00571521
0.00108885
0.00574929
0.00109229
0.00578718
0.00109266
0.00582836
0.00108409
0.00587285
0.00107566
0.0059196
0.00105417
0.00104095
0.00571965
5.14935e-05
0.00571756
0.000149766
0.00571452
0.00024012
0.00571084
0.000323889
0.00570683
0.000401951
0.00570278
0.000474871
0.005699
0.000543127
0.00569578
0.000606988
0.00569344
0.000666763
0.00569232
0.00072252
0.00569274
0.000774463
0.00569506
0.000822452
0.00569962
0.000866626
0.00570676
0.000906607
0.00571679
0.000942553
0.00573001
0.000973821
0.00574665
0.00100075
0.00576688
0.00102237
0.00579085
0.00103949
0.00581853
0.00105056
0.00584995
0.00105743
0.00588484
0.00105739
0.00592315
0.00105436
0.00596431
0.00104294
0.00600832
0.00103164
0.00605416
0.00100833
0.000992797
0.00582792
5.21888e-05
0.0058261
0.000151582
0.0058235
0.000242723
0.00582043
0.000326961
0.00581719
0.000405193
0.00581408
0.000477984
0.00581139
0.000545816
0.00580943
0.000608949
0.0058085
0.000667685
0.00580894
0.000722083
0.00581106
0.000772343
0.00581519
0.000818322
0.00582165
0.000860166
0.00583074
0.000897515
0.00584275
0.00093055
0.00585789
0.000958675
0.00587638
0.000982268
0.00589831
0.00100044
0.00592377
0.00101403
0.00595268
0.00102165
0.00598502
0.0010251
0.00602047
0.00102193
0.00605895
0.00101588
0.00609987
0.00100201
0.00614324
0.000988283
0.00618803
0.000963532
0.000946093
0.00593824
5.27869e-05
0.00593671
0.000153116
0.00593456
0.000244871
0.00593211
0.000329411
0.00592965
0.00040765
0.00592748
0.000480152
0.0059259
0.000547402
0.00592519
0.000609653
0.00592567
0.000667205
0.00592765
0.00072011
0.00593142
0.000768569
0.0059373
0.000812445
0.00594557
0.000851894
0.0059565
0.000886585
0.00597033
0.00091672
0.00598723
0.000941769
0.00600737
0.000962133
0.00603078
0.000977026
0.0060575
0.000987307
0.0060874
0.000991745
0.00612041
0.000992089
0.0061562
0.000986146
0.00619464
0.000977444
0.00623516
0.000961496
0.00627772
0.000945717
0.00632139
0.00091987
0.000900894
0.00605064
5.32848e-05
0.0060494
0.00015436
0.00604772
0.000246552
0.0060459
0.000331228
0.00604424
0.000409311
0.00604302
0.000481368
0.00604254
0.000547883
0.00604309
0.000609108
0.00604495
0.000665341
0.00604843
0.000716635
0.0060538
0.000763194
0.00606135
0.000804895
0.00607134
0.000841907
0.00608399
0.000873938
0.00609949
0.000901213
0.00611799
0.000923271
0.00613958
0.000940542
0.00616426
0.000952345
0.00619202
0.000959547
0.00622269
0.000961074
0.00625616
0.000958619
0.00629208
0.000950226
0.0063303
0.000939223
0.00637026
0.00092154
0.00641191
0.000904062
0.00645436
0.000877419
0.000857232
0.00616518
5.36802e-05
0.00616423
0.000155308
0.00616302
0.00024776
0.00616185
0.000332404
0.00616099
0.000410171
0.00616072
0.000481629
0.00616134
0.000547264
0.00616312
0.000607328
0.00616634
0.000662121
0.00617128
0.000711701
0.00617819
0.000756279
0.00618733
0.000795754
0.00619893
0.00083031
0.00621317
0.000859701
0.0062302
0.000884178
0.00625012
0.000903354
0.00627298
0.000917682
0.00629873
0.000926593
0.00632733
0.000930953
0.00635856
0.00092984
0.0063923
0.000924884
0.00642817
0.000914355
0.00646601
0.000901377
0.00650528
0.000882271
0.00654593
0.000863411
0.00658712
0.000836235
0.000815126
0.00628187
5.39709e-05
0.00628123
0.000155954
0.0062805
0.000248487
0.00627997
0.000332933
0.00627991
0.000410226
0.00628061
0.000480937
0.00628231
0.000545556
0.00628531
0.000604334
0.00628985
0.000657579
0.00629619
0.000705358
0.00630458
0.000747893
0.00631522
0.000785109
0.00632832
0.000817211
0.00634402
0.000844004
0.00636243
0.000865765
0.0063836
0.000882183
0.00640755
0.000893736
0.00643419
0.000899959
0.00646342
0.000901716
0.00649503
0.000898228
0.00652886
0.000891059
0.00656453
0.000878687
0.00660186
0.000864038
0.00664034
0.000843791
0.00667992
0.000823836
0.0067198
0.000796358
0.000774578
0.00640078
5.41557e-05
0.00640043
0.000156298
0.00640019
0.000248732
0.00640031
0.000332813
0.00640106
0.000409479
0.00640269
0.000479302
0.00640547
0.000542774
0.00640965
0.000600155
0.00641548
0.000651756
0.00642317
0.000697663
0.00643295
0.00073811
0.00644501
0.000773055
0.00645949
0.000802726
0.00647651
0.00082698
0.00649616
0.000846123
0.00651842
0.000859921
0.00654328
0.000868875
0.00657062
0.000872618
0.00660032
0.000872012
0.00663214
0.000866407
0.0066659
0.000857301
0.00670123
0.000843361
0.00673795
0.000827319
0.00677555
0.000806186
0.006814
0.00078539
0.00685255
0.000757812
0.000735582
0.00652193
5.42336e-05
0.00652189
0.000156335
0.00652213
0.000248492
0.0065229
0.000332047
0.00652444
0.000407936
0.006527
0.000476736
0.00653084
0.000538942
0.00653617
0.000594824
0.00654322
0.000644701
0.0065522
0.000688681
0.0065633
0.000727013
0.00657667
0.000759692
0.00659242
0.00078697
0.00661064
0.000808762
0.00663136
0.0008254
0.00665456
0.000836727
0.00668017
0.000843263
0.00670805
0.000844738
0.00673806
0.000842003
0.00676994
0.000834529
0.00680349
0.000823745
0.00683836
0.000808492
0.00687436
0.000791313
0.00691103
0.000769524
0.0069483
0.000748116
0.0069855
0.000720609
0.000698123
0.00664537
5.42044e-05
0.00664564
0.000156068
0.00664636
0.00024777
0.00664776
0.000330639
0.00665009
0.000405609
0.00665357
0.000473258
0.00665842
0.000534088
0.00666487
0.000588381
0.0066731
0.000636469
0.0066833
0.000678481
0.00669563
0.000714686
0.0067102
0.000745121
0.00672711
0.000770062
0.00674639
0.000789481
0.00676805
0.000803739
0.00679202
0.000812752
0.00681823
0.000817057
0.00684649
0.000816472
0.00687666
0.000811837
0.00690846
0.00080273
0.00694169
0.000790514
0.006976
0.000774182
0.00701121
0.0007561
0.00704688
0.000733858
0.00708296
0.000712041
0.00711881
0.000684755
0.00066218
0.00677114
5.40684e-05
0.00677171
0.000155497
0.00677291
0.000246571
0.00677495
0.000328599
0.00677805
0.000402511
0.00678241
0.000468892
0.00678826
0.000528247
0.00679576
0.000580874
0.00680511
0.000627118
0.00681646
0.000667137
0.00682992
0.00070122
0.0068456
0.000729446
0.00686354
0.000752119
0.00688375
0.000769268
0.00690621
0.000781281
0.00693082
0.000788141
0.00695748
0.000790402
0.00698599
0.000787962
0.00701618
0.000781646
0.00704778
0.000771132
0.00708058
0.00075771
0.00711424
0.000740517
0.0071486
0.000721742
0.00718323
0.000699229
0.00721809
0.000677182
0.0072526
0.000650244
0.000627725
0.00689929
5.38264e-05
0.00690016
0.000154627
0.00690183
0.000244901
0.00690449
0.000325939
0.00690834
0.000398664
0.00691356
0.000463666
0.00692035
0.000521457
0.00692887
0.000572353
0.00693928
0.000616714
0.00695169
0.000654728
0.0069662
0.000686708
0.00698287
0.000712775
0.00700173
0.000733261
0.00702274
0.000748251
0.00704587
0.000758158
0.00707098
0.00076303
0.00709795
0.000763434
0.00712657
0.000759339
0.00715666
0.000751554
0.00718795
0.000739842
0.00722024
0.000725427
0.00725319
0.000707567
0.00728664
0.000688291
0.0073202
0.000665668
0.00735383
0.000643547
0.00738701
0.000617066
0.000594728
0.00702985
5.34801e-05
0.00703102
0.000153461
0.00703315
0.00024277
0.00703642
0.000322675
0.00704099
0.00039409
0.00704704
0.000457612
0.00705474
0.000513761
0.00706422
0.000562874
0.00707561
0.000605325
0.007089
0.000641337
0.00710446
0.000671244
0.00712202
0.000695214
0.00714168
0.000713605
0.00716338
0.000726554
0.00718703
0.0007345
0.00721252
0.00073755
0.00723967
0.000736279
0.00726829
0.000730721
0.00729818
0.000721667
0.00732906
0.000708955
0.00736075
0.000693741
0.00739292
0.000675393
0.00742543
0.000655787
0.0074579
0.000633196
0.00749031
0.000611139
0.00752217
0.000585206
0.000563155
0.00716289
5.30314e-05
0.00716434
0.000152007
0.00716692
0.000240191
0.00717077
0.000318825
0.00717604
0.000388817
0.00718289
0.000450768
0.00719144
0.000505209
0.00720182
0.000552496
0.00721412
0.000593024
0.00722841
0.000627047
0.00724473
0.000654925
0.00726307
0.000676869
0.00728341
0.000693264
0.00730567
0.000704297
0.00732974
0.000710428
0.00735547
0.00071182
0.0073827
0.000709052
0.0074112
0.000702217
0.00744079
0.000692082
0.00747119
0.000678554
0.00750221
0.000662718
0.00753356
0.000644045
0.00756509
0.00062426
0.00759646
0.000601825
0.00762764
0.000579951
0.00765821
0.000554642
0.000532969
0.00729843
5.24831e-05
0.00730016
0.000150274
0.00730318
0.000237178
0.00730759
0.000314413
0.00731353
0.000382875
0.00732112
0.000443175
0.00733048
0.000495852
0.00734169
0.000541283
0.00735483
0.000579885
0.00736993
0.000611944
0.00738701
0.000637848
0.00740604
0.000657845
0.00742695
0.00067235
0.00744965
0.000681595
0.00747402
0.00068606
0.00749989
0.000685954
0.00752708
0.000681862
0.00755537
0.000673924
0.00758457
0.000662886
0.00761441
0.000648708
0.00764471
0.000632415
0.0076752
0.00061356
0.00770573
0.000593733
0.00773599
0.000571561
0.00776597
0.000549974
0.00779526
0.000525351
0.000504132
0.00743653
5.18383e-05
0.00743854
0.00014827
0.00744196
0.000233749
0.00744691
0.000309463
0.00745349
0.0003763
0.00746179
0.000434877
0.0074719
0.000485744
0.00748388
0.000529302
0.00749778
0.000565986
0.0075136
0.000596117
0.00753134
0.000620107
0.00755094
0.000638246
0.00757232
0.000650971
0.00759536
0.000658557
0.00761992
0.000661502
0.00764581
0.000660056
0.00767287
0.000654805
0.00770087
0.00064593
0.0077296
0.000634152
0.00775883
0.000619481
0.00778836
0.000602878
0.00781795
0.00058397
0.00784747
0.00056422
0.00787662
0.000542405
0.00790541
0.000521193
0.00793345
0.000497306
0.000476606
0.00757724
5.11008e-05
0.0075795
0.000146008
0.00758333
0.000229923
0.00758879
0.000304004
0.00759596
0.000369129
0.00760491
0.000425922
0.00761571
0.000474944
0.0076284
0.00051662
0.00764298
0.000551405
0.00765944
0.000579652
0.00767775
0.000601799
0.00769782
0.000618171
0.00771957
0.00062923
0.00774283
0.000635288
0.00776748
0.000636857
0.00779331
0.000634222
0.00782015
0.000627969
0.00784777
0.000618312
0.00787597
0.000605947
0.00790453
0.000590924
0.00793326
0.000574143
0.00796194
0.000555297
0.00799043
0.000535729
0.00801848
0.00051435
0.00804609
0.000493588
0.00807291
0.000470478
0.000450348
0.0077206
5.02748e-05
0.00772311
0.000143499
0.00772731
0.00022572
0.00773325
0.000298065
0.00774098
0.000361401
0.00775054
0.000416359
0.00776197
0.000463512
0.00777529
0.000503307
0.00779047
0.000536221
0.00780749
0.000562637
0.00782627
0.000583016
0.00784672
0.000597719
0.00786872
0.000607227
0.00789213
0.000611886
0.00791676
0.000612219
0.00794245
0.000608542
0.00796898
0.000601434
0.00799615
0.000591139
0.00802377
0.000578327
0.00805162
0.00056308
0.00807952
0.000546241
0.00810726
0.000527558
0.00813472
0.000508263
0.00816169
0.000487387
0.00818814
0.000467138
0.00821378
0.000444835
0.000425318
0.00786667
4.9365e-05
0.00786941
0.000140759
0.00787396
0.000221165
0.00788035
0.00029168
0.00788859
0.000353159
0.00789871
0.000406241
0.00791071
0.00045151
0.00792458
0.000489435
0.00794029
0.000520513
0.00795777
0.000545157
0.00797694
0.000563849
0.00799768
0.000576983
0.00801985
0.000585055
0.00804329
0.000588443
0.00806784
0.000587675
0.00809328
0.000583093
0.00811945
0.000575271
0.00814611
0.000564472
0.0081731
0.000551341
0.00820019
0.000535986
0.00822724
0.000519194
0.00825404
0.000500762
0.00828048
0.000481819
0.00830637
0.000461503
0.00833168
0.00044182
0.00835617
0.000420345
0.000401475
0.00801549
4.83764e-05
0.00801845
0.000137801
0.00802333
0.000216281
0.00803013
0.000284882
0.00803884
0.000344447
0.00804946
0.000395622
0.00806197
0.000439
0.00807633
0.000475075
0.00809249
0.00050436
0.00811035
0.000527296
0.00812981
0.000544387
0.00815074
0.000556052
0.00817299
0.000562803
0.00819639
0.000565043
0.00822076
0.000563305
0.0082459
0.00055795
0.00827163
0.000549542
0.00829774
0.000538363
0.00832405
0.000525029
0.00835037
0.000509669
0.00837655
0.000493018
0.00840239
0.000474914
0.00842782
0.00045639
0.00845265
0.000436681
0.00847686
0.000417605
0.00850023
0.000396975
0.000378776
0.00816712
4.73146e-05
0.00817028
0.000134642
0.00817547
0.000211096