/*--------------------------------*- C++ -*----------------------------------*\
  =========                 |
  \\      /  F ield         | OpenFOAM: The Open Source CFD Toolbox
   \\    /   O peration     | Website:  https://openfoam.org
    \\  /    A nd           | Version:  7
     \\/     M anipulation  |
\*---------------------------------------------------------------------------*/
FoamFile
{
    version     2.0;
    format      ascii;
    class       surfaceScalarField;
    location    "40";
    object      phi;
}
// * * * * * * * * * * * * * * * * * * * * * * * * * * * * * * * * * * * * * //

dimensions      [0 3 -1 0 0 0 0];

internalField   nonuniform List<scalar> 
8878
(
-0.00399297
-0.00014577
-0.000151594
-0.00384863
-0.00396365
-0.000180923
-0.000125412
-0.00360555
-0.000154564
-0.00370885
-0.0001847
-0.00381849
-0.00393262
-0.000215722
-0.00012522
-0.00348043
-0.000154854
-0.00357592
-0.00018564
-0.00367807
-0.000217446
-0.00378668
-0.00389992
-0.000250153
-0.000122784
-0.00336238
-0.000152722
-0.0034505
-0.000183929
-0.00354471
-0.000216343
-0.00364565
-0.000249817
-0.00375321
-0.00386553
-0.000284202
-0.000118265
-0.0032506
-0.000148414
-0.00333223
-0.000179861
-0.00341905
-0.000212626
-0.00351194
-0.000246657
-0.00361162
-0.000281797
-0.00371807
-0.00382947
-0.000317855
-0.000111756
-0.00314403
-0.000142077
-0.00322028
-0.00017369
-0.00330062
-0.000206629
-0.00338611
-0.000240934
-0.00347764
-0.00027657
-0.00357599
-0.000313371
-0.00368127
-0.00379175
-0.000351097
-0.00010335
-0.00304134
-0.000133788
-0.00311359
-0.000165549
-0.00318851
-0.000198607
-0.00326756
-0.000233017
-0.0033517
-0.000268842
-0.00344181
-0.000306067
-0.00353876
-0.000344523
-0.00364281
-0.00375236
-0.000383915
-9.31968e-05
-0.00294056
-0.00012362
-0.00301092
-0.000155492
-0.00308172
-0.000188674
-0.00315533
-0.00022316
-0.00323308
-0.000259019
-0.00331584
-0.000296341
-0.00340449
-0.000335135
-0.00349997
-0.000375237
-0.00360271
-0.0037113
-0.00041629
-8.15435e-05
-0.00283842
-0.000111706
-0.0029104
-0.000143576
-0.00297905
-0.000176863
-0.00304843
-0.00021145
-0.00312074
-0.000247344
-0.00319718
-0.00028463
-0.00327856
-0.000323421
-0.0033657
-0.000363759
-0.00345963
-0.000405496
-0.00356097
-0.00366859
-0.000448208
-6.87744e-05
-0.00272976
-9.8276e-05
-0.00280892
-0.000129919
-0.00287875
-0.000163214
-0.00294576
-0.000197897
-0.00301375
-0.000233873
-0.00308477
-0.000271157
-0.0031599
-0.000309846
-0.00323987
-0.000350076
-0.00332547
-0.000391928
-0.00341778
-0.000435284
-0.00351762
-0.00362422
-0.00047965
-5.54285e-05
-0.00260685
-8.36927e-05
-0.0027015
-0.000114734
-0.00277788
-0.000147831
-0.00284566
-0.000182528
-0.00291106
-0.000218592
-0.00297769
-0.000255939
-0.00304742
-0.000294595
-0.00312124
-0.000334663
-0.0031998
-0.000376301
-0.00328383
-0.000419632
-0.00337445
-0.000464585
-0.00347267
-0.00357821
-0.000510599
-4.21916e-05
-0.0024591
-6.84756e-05
-0.00258056
-9.83652e-05
-0.00267161
-0.000130913
-0.00274533
-0.000165436
-0.00281113
-0.000201517
-0.00287498
-0.000238943
-0.00294026
-0.000277647
-0.00300872
-0.000317657
-0.00308123
-0.000359082
-0.00315837
-0.000402094
-0.00324082
-0.000446863
-0.00332968
-0.000493385
-0.00342614
-0.00353055
-0.000541042
-2.98446e-05
-0.00227338
-5.32982e-05
-0.00243564
-8.13115e-05
-0.00255255
-0.000112786
-0.00264013
-0.000146807
-0.00271131
-0.000182732
-0.00277521
-0.000220175
-0.00283754
-0.000258948
-0.00290149
-0.000298994
-0.00296867
-0.000340344
-0.00303988
-0.000383104
-0.00311561
-0.000427457
-0.00319647
-0.000473619
-0.00328351
-0.000521677
-0.00337809
-0.00348126
-0.000570966
-3.89446e-05
-0.00225359
-6.42331e-05
-0.00241035
-9.39293e-05
-0.00252285
-0.000126949
-0.00260711
-0.000162412
-0.00267585
-0.000199714
-0.00273791
-0.0002385
-0.00279875
-0.000278603
-0.00286138
-0.000319977
-0.0029273
-0.000362654
-0.00299721
-0.000406734
-0.00307153
-0.000452398
-0.00315081
-0.000499904
-0.00323601
-0.000549457
-0.00332853
-0.00343036
-0.00060036
-2.62136e-05
-0.00201966
-4.7915e-05
-0.00223189
-7.49886e-05
-0.00238328
-0.000106323
-0.00249152
-0.00014085
-0.00257259
-0.000177724
-0.00263897
-0.000216378
-0.00269925
-0.000256487
-0.00275864
-0.000297905
-0.00281997
-0.000340594
-0.00288461
-0.000384587
-0.00295321
-0.000429975
-0.00302614
-0.000476927
-0.00310385
-0.000525733
-0.0031872
-0.000576734
-0.00327753
-0.00337787
-0.000629229
-1.57826e-05
-0.00171947
-3.31828e-05
-0.00200226
-5.67479e-05
-0.00220832
-8.55579e-05
-0.00235447
-0.000118486
-0.00245859
-0.000154483
-0.00253659
-0.000192739
-0.00260072
-0.000232721
-0.00265927
-0.000274133
-0.00271723
-0.000316849
-0.00277725
-0.000360841
-0.00284062
-0.000406142
-0.00290791
-0.000452832
-0.00297945
-0.000501058
-0.00305563
-0.00055113
-0.00313713
-0.000603541
-0.00322512
-0.00332378
-0.000657632
-2.07749e-05
-0.00170674
-4.00558e-05
-0.00198298
-6.5436e-05
-0.00218294
-9.59348e-05
-0.00232397
-0.000130414
-0.00242411
-0.000167845
-0.00249916
-0.000207453
-0.00256111
-0.000248738
-0.00261799
-0.000291434
-0.00267453
-0.000335431
-0.00273325
-0.000380713
-0.00279533
-0.000427316
-0.00286131
-0.000475307
-0.00293146
-0.000524807
-0.00300613
-0.00057613
-0.00308581
-0.00062993
-0.00317132
-0.00326806
-0.000685647
-1.12e-05
-0.00133317
-2.57085e-05
-0.00169224
-4.68259e-05
-0.00196186
-7.39731e-05
-0.0021558
-0.000106114
-0.00229183
-0.000142102
-0.00238812
-0.000180932
-0.00246033
-0.000221862
-0.00252018
-0.000264426
-0.00257542
-0.000308384
-0.00263058
-0.000353644
-0.00268799
-0.000400202
-0.00274878
-0.0004481
-0.00281341
-0.000497399
-0.00288216
-0.000548194
-0.00295533
-0.000600788
-0.00303321
-0.000655919
-0.00311619
-0.00321069
-0.000713283
-4.65017e-06
-0.000874235
-1.43157e-05
-0.0013235
-3.05771e-05
-0.00167597
-5.34867e-05
-0.00193895
-8.23532e-05
-0.00212693
-0.00011609
-0.00225809
-0.000153546
-0.00235067
-0.00019374
-0.00242013
-0.000235963
-0.00247796
-0.000279781
-0.0025316
-0.000324979
-0.00258538
-0.000371482
-0.00264149
-0.0004193
-0.00270096
-0.000468483
-0.00276423
-0.000519096
-0.00283155
-0.000571237
-0.00290319
-0.000625195
-0.00297925
-0.000681529
-0.00305986
-0.00315138
-0.000740848
-6.21041e-06
-0.000869019
-1.7397e-05
-0.00131231
-3.53757e-05
-0.001658
-6.00326e-05
-0.0019143
-9.05711e-05
-0.00209639
-0.000125858
-0.00222281
-0.000164742
-0.00231178
-0.000206266
-0.00237861
-0.000249752
-0.00243447
-0.000294799
-0.00248656
-0.000341213
-0.00253896
-0.000388938
-0.00259377
-0.000437994
-0.0026519
-0.000488443
-0.00271378
-0.000540367
-0.00277963
-0.000593905
-0.00284966
-0.000649397
-0.00292376
-0.000707566
-0.00300169
-0.00309134
-0.000767604
-1.44473e-06
-0.000327109
-7.75524e-06
-0.000862708
-2.04356e-05
-0.00129963
-4.00935e-05
-0.00163834
-6.64525e-05
-0.00188794
-9.86158e-05
-0.00206423
-0.000135409
-0.00218601
-0.000175681
-0.00227151
-0.0002185
-0.00233579
-0.000263221
-0.00238975
-0.000309471
-0.00244031
-0.000357077
-0.00249136
-0.000405999
-0.00254484
-0.000456268
-0.00260163
-0.000507953
-0.00266209
-0.000561159
-0.00272642
-0.000616078
-0.00279474
-0.000672911
-0.00286693
-0.000731052
-0.00294355
-0.00302649
-0.000795904
-1.89726e-06
-0.000325212
-9.28864e-06
-0.000855317
-2.34372e-05
-0.00128548
-4.47371e-05
-0.00161704
-7.27537e-05
-0.00185992
-0.000106495
-0.00203049
-0.00014475
-0.00214776
-0.000186372
-0.00222989
-0.000230452
-0.00229171
-0.000276379
-0.00234382
-0.000323804
-0.00239288
-0.000372578
-0.00244258
-0.000422671
-0.00249475
-0.000474122
-0.00255018
-0.000527009
-0.00260921
-0.000581443
-0.00267199
-0.000637593
-0.00273859
-0.000695564
-0.00280896
-0.00075547
-0.00288364
-0.00296245
-0.0008195
-2.34704e-06
-0.000322865
-1.08044e-05
-0.000846859
-2.63932e-05
-0.0012699
-4.92965e-05
-0.00159414
-7.89256e-05
-0.00183029
-0.0001142
-0.00199521
-0.000153873
-0.00210808
-0.000196806
-0.00218696
-0.000242114
-0.0022464
-0.000289216
-0.00229672
-0.000337791
-0.00234431
-0.000387706
-0.00239267
-0.000438942
-0.00244351
-0.000491548
-0.00249758
-0.000545601
-0.00255515
-0.000601212
-0.00261638
-0.000658522
-0.00268128
-0.000717631
-0.00274985
-0.000778809
-0.00282246
-0.00289834
-0.000842926
-2.79285e-06
-0.000320072
-1.23003e-05
-0.000837352
-2.93004e-05
-0.0012529
-5.37676e-05
-0.00156967
-8.49642e-05
-0.0017991
-0.000121725
-0.00195845
-0.000162775
-0.00206703
-0.00020698
-0.00214275
-0.000253484
-0.0021999
-0.000301732
-0.00224847
-0.000351429
-0.00229461
-0.000402457
-0.00234164
-0.000454811
-0.00239116
-0.000508541
-0.00244385
-0.000563728
-0.00249997
-0.000620476
-0.00255963
-0.000678905
-0.00262285
-0.00073912
-0.00268963
-0.000801361
-0.00276022
-0.00283373
-0.000865971
-3.23384e-06
-0.000316838
-1.37743e-05
-0.000826812
-3.21558e-05
-0.00123451
-5.81469e-05
-0.00154368
-9.0866e-05
-0.00176638
-0.000129068
-0.00192025
-0.000171452
-0.00202465
-0.000216893
-0.00209731
-0.000264558
-0.00215223
-0.000313924
-0.00219911
-0.000364715
-0.00224382
-0.000416831
-0.00228952
-0.000470274
-0.00233772
-0.000525099
-0.00238902
-0.000581387
-0.00244368
-0.000639237
-0.00250178
-0.000698754
-0.00256333
-0.000760039
-0.00262835
-0.000823272
-0.00269699
-0.00276841
-0.000888588
-3.66934e-06
-0.000313169
-1.52247e-05
-0.000815256
-3.49563e-05
-0.00121478
-6.24309e-05
-0.0015162
-9.66276e-05
-0.00173218
-0.000136226
-0.00188065
-0.000179903
-0.00198097
-0.000226542
-0.00205067
-0.000275337
-0.00210344
-0.00032579
-0.00214865
-0.000377648
-0.00219196
-0.000430825
-0.00223635
-0.00048533
-0.00228321
-0.000541221
-0.00233313
-0.00059858
-0.00238632
-0.0006575
-0.00244286
-0.000718076
-0.00250275
-0.000780402
-0.00256602
-0.000844608
-0.00263278
-0.00270227
-0.00091075
-4.09875e-06
-0.00030907
-1.66495e-05
-0.000802705
-3.76992e-05
-0.00119373
-6.66164e-05
-0.00148729
-0.000102246
-0.00169655
-0.000143197
-0.0018397
-0.000188125
-0.00193605
-0.000235926
-0.00200287
-0.000285818
-0.00205355
-0.000337329
-0.00209714
-0.000390226
-0.00213906
-0.000444436
-0.00218214
-0.000499976
-0.00222767
-0.000556906
-0.0022762
-0.000615307
-0.00232792
-0.000675267
-0.0023829
-0.000736877
-0.00244114
-0.00080022
-0.00250268
-0.000865396
-0.00256761
-0.00263523
-4.52145e-06
-0.000304548
-1.80472e-05
-0.00078918
-4.03821e-05
-0.0011714
-7.07007e-05
-0.00145697
-0.000107718
-0.00165953
-0.000149978
-0.00179744
-0.000196117
-0.00188991
-0.000245044
-0.00195394
-0.000296001
-0.00200259
-0.00034854
-0.0020446
-0.000402449
-0.00208515
-0.000457665
-0.00212692
-0.000514212
-0.00217112
-0.000572153
-0.00221826
-0.000631567
-0.0022685
-0.000692542
-0.00232192
-0.00075516
-0.00237853
-0.000819501
-0.00243834
-0.000885647
-0.00250146
-0.00256725
-4.93689e-06
-0.000299611
-1.94162e-05
-0.0007747
-4.30026e-05
-0.00114781
-7.4681e-05
-0.00142529
-0.000113042
-0.00162117
-0.000156567
-0.00175391
-0.000203877
-0.0018426
-0.000253894
-0.00190393
-0.000305883
-0.0019506
-0.000359422
-0.00199107
-0.000414314
-0.00203026
-0.00047051
-0.00207072
-0.000528037
-0.0021136
-0.000586961
-0.00215933
-0.000647362
-0.0022081
-0.000709325
-0.00225996
-0.00077293
-0.00231492
-0.000838251
-0.00237302
-0.000905363
-0.00243435
-0.00249832
-5.34449e-06
-0.000294267
-2.07549e-05
-0.00075929
-4.55585e-05
-0.00112301
-7.85549e-05
-0.00139229
-0.000118216
-0.00158151
-0.000162962
-0.00170917
-0.000211404
-0.00179416
-0.000262475
-0.00185286
-0.000315465
-0.00189761
-0.000369974
-0.00193656
-0.000425822
-0.00197441
-0.000482969
-0.00201358
-0.000541449
-0.00205512
-0.00060133
-0.00209945
-0.000662692
-0.00214674
-0.000725617
-0.00219704
-0.000790186
-0.00225035
-0.000856469
-0.00230673
-0.000924541
-0.00236628
-5.74373e-06
-0.000288523
-2.2062e-05
-0.000742972
-4.80478e-05
-0.00109702
-8.23202e-05
-0.00135802
-0.000123236
-0.0015406
-0.000169162
-0.00166324
-0.000218696
-0.00174462
-0.000270786
-0.00180077
-0.000324746
-0.00184365
-0.000380195
-0.00188111
-0.00043697
-0.00191764
-0.000495042
-0.00195551
-0.000554449
-0.00199571
-0.00061526
-0.00203864
-0.000677555
-0.00208445
-0.000741419
-0.00213317
-0.000806928
-0.00218484
-0.000874157
-0.00223951
-0.00229726
-6.1341e-06
-0.000282389
-2.33361e-05
-0.00072577
-5.04685e-05
-0.00106989
-8.59749e-05
-0.00132251
-0.000128102
-0.00149847
-0.000175165
-0.00161618
-0.000225752
-0.00169403
-0.000278827
-0.00174769
-0.000333724
-0.00178875
-0.000390084
-0.00182475
-0.000447759
-0.00185996
-0.000506728
-0.00189654
-0.000567034
-0.0019354
-0.000628748
-0.00197693
-0.000691952
-0.00202124
-0.000756728
-0.0020684
-0.000823157
-0.00211841
-0.00089131
-0.00217135
-0.0022273
-6.5151e-06
-0.000275874
-2.4576e-05
-0.000707709
-5.28189e-05
-0.00104165
-8.9517e-05
-0.00128581
-0.000132811
-0.00145517
-0.00018097
-0.00156802
-0.000232572
-0.00164243
-0.000286597
-0.00169367
-0.0003424
-0.00173295
-0.000399641
-0.00176751
-0.000458188
-0.00180142
-0.000518026
-0.0018367
-0.000579204
-0.00187423
-0.000641794
-0.00191434
-0.00070588
-0.00195716
-0.000771544
-0.00200273
-0.000838868
-0.00205109
-0.000907927
-0.00210229
-6.88627e-06
-0.000268988
-2.57806e-05
-0.000688815
-5.50973e-05
-0.00101233
-9.29447e-05
-0.00124797
-0.000137363
-0.00141076
-0.000186575
-0.00151881
-0.000239155
-0.00158985
-0.000294094
-0.00163873
-0.000350772
-0.00167627
-0.000408866
-0.00170941
-0.000468256
-0.00174203
-0.000528936
-0.00177602
-0.000590958
-0.0018122
-0.000654397
-0.0018509
-0.000719338
-0.00189222
-0.000785866
-0.00193621
-0.000854061
-0.0019829
-0.00203235
-7.24716e-06
-0.000261741
-2.69487e-05
-0.000669113
-5.73023e-05
-0.000981977
-9.62566e-05
-0.00120901
-0.000141756
-0.00136526
-0.00019198
-0.00146859
-0.000245499
-0.00153633
-0.00030132
-0.00158291
-0.00035884
-0.00161875
-0.000417757
-0.0016505
-0.000477961
-0.00168182
-0.000539455
-0.00171452
-0.000602294
-0.00174937
-0.000666555
-0.00178664
-0.000732325
-0.00182645
-0.000799689
-0.00186884
-0.000868731
-0.00191385
-0.00196155
-7.59737e-06
-0.000254143
-2.80793e-05
-0.000648631
-5.94324e-05
-0.000950624
-9.9451e-05
-0.00116899
-0.000145988
-0.00131872
-0.000197183
-0.00141739
-0.000251604
-0.00148191
-0.000308272
-0.00152624
-0.000366604
-0.00156042
-0.000426313
-0.00159079
-0.000487303
-0.00162083
-0.000549583
-0.00165224
-0.00061321
-0.00168574
-0.000678267
-0.00172158
-0.000744838
-0.00175987
-0.000813012
-0.00180067
-0.000882875
-0.00184399
-0.00188992
-7.93649e-06
-0.000246207
-2.91716e-05
-0.000627396
-6.14863e-05
-0.000918309
-0.000102527
-0.00112795
-0.000150058
-0.00127119
-0.000202184
-0.00136526
-0.00025747
-0.00142663
-0.000314951
-0.00146876
-0.000374062
-0.00150131
-0.000434535
-0.00153031
-0.000496282
-0.00155908
-0.000559318
-0.00158921
-0.000623707
-0.00162135
-0.00068953
-0.00165576
-0.000756876
-0.00169253
-0.000825833
-0.00173171
-0.000896489
-0.00177333
-8.26414e-06
-0.000237943
-3.02244e-05
-0.000605436
-6.34628e-05
-0.000885071
-0.000105482
-0.00108593
-0.000153965
-0.00122271
-0.000206982
-0.00131225
-0.000263096
-0.00137051
-0.000321355
-0.0014105
-0.000381216
-0.00144145
-0.000442421
-0.00146911
-0.000504896
-0.00149661
-0.00056866
-0.00152544
-0.000633782
-0.00155623
-0.000700343
-0.0015892
-0.000768434
-0.00162444
-0.000838147
-0.001662
-0.00170191
-8.57997e-06
-0.000229363
-3.12371e-05
-0.000582779
-6.53606e-05
-0.000850947
-0.000108317
-0.00104298
-0.000157709
-0.00117331
-0.000211576
-0.00125838
-0.000268481
-0.00131361
-0.000327485
-0.00135149
-0.000388063
-0.00138087
-0.000449971
-0.0014072
-0.000513144
-0.00143344
-0.000577608
-0.00146098
-0.000643433
-0.0014904
-0.000710704
-0.00152192
-0.000779513
-0.00155563
-0.000849952
-0.00159156
-0.00162975
-8.88364e-06
-0.000220479
-3.22088e-05
-0.000559453
-6.71788e-05
-0.000815977
-0.000111029
-0.000999129
-0.000161288
-0.00112305
-0.000215966
-0.0012037
-0.000273624
-0.00125595
-0.00033334
-0.00129178
-0.000394603
-0.00131961
-0.000457184
-0.00134462
-0.000521025
-0.0013696
-0.00058616
-0.00139584
-0.000652659
-0.0014239
-0.00072061
-0.00145397
-0.000790107
-0.00148613
-0.000861244
-0.00152042
-0.00155688
-9.17484e-06
-0.000211304
-3.31387e-05
-0.00053549
-6.89164e-05
-0.000780199
-0.000113618
-0.000954427
-0.000164701
-0.00107197
-0.00022015
-0.00114825
-0.000278526
-0.00119757
-0.00033892
-0.00123138
-0.000400836
-0.00125769
-0.000464059
-0.0012814
-0.000528539
-0.00130512
-0.000594314
-0.00133007
-0.000661458
-0.00135676
-0.000730061
-0.00138537
-0.000800216
-0.00141598
-0.000872021
-0.00144862
-9.45327e-06
-0.000201851
-3.40263e-05
-0.000510917
-7.05723e-05
-0.000743653
-0.000116082
-0.000908917
-0.000167948
-0.0010201
-0.000224129
-0.00109207
-0.000283186
-0.00113852
-0.000344224
-0.00117035
-0.000406762
-0.00119515
-0.000470596
-0.00121756
-0.000535685
-0.00124003
-0.00060207
-0.00126368
-0.000669829
-0.001289
-0.000739053
-0.00131615
-0.000809837
-0.00134519
-0.00137617
-9.71864e-06
-0.000192132
-3.48707e-05
-0.000485764
-7.21459e-05
-0.000706378
-0.000118422
-0.000862641
-0.000171028
-0.000967498
-0.000227901
-0.0010352
-0.000287603
-0.00107881
-0.000349252
-0.0011087
-0.000412379
-0.00113203
-0.000476794
-0.00115315
-0.000542461
-0.00117436
-0.000609427
-0.00119672
-0.00067777
-0.00122066
-0.000747585
-0.00124633
-0.000818967
-0.00127381
-0.00130312
-9.97069e-06
-0.000182162
-3.56715e-05
-0.000460064
-7.36361e-05
-0.000668414
-0.000120636
-0.000815642
-0.000173941
-0.000914193
-0.000231466
-0.000977675
-0.000291777
-0.0010185
-0.000354003
-0.00104647
-0.000417688
-0.00106834
-0.000482652
-0.00108818
-0.000548867
-0.00110814
-0.000616382
-0.0011292
-0.00068528
-0.00115176
-0.000755654
-0.00117596
-0.000827604
-0.00120186
-0.0012295
-1.02092e-05
-0.000171952
-3.6428e-05
-0.000433845
-7.50424e-05
-0.000629799
-0.000122723
-0.000767962
-0.000176685
-0.00086023
-0.000234824
-0.000919535
-0.000295708
-0.000957618
-0.000358476
-0.000983704
-0.000422687
-0.00100413
-0.000488169
-0.0010227
-0.000554901
-0.00104141
-0.000622936
-0.00106117
-0.000692357
-0.00108234
-0.00076326
-0.00110505
-0.000835746
-0.00112937
-0.00115533
-1.04338e-05
-0.000161519
-3.71396e-05
-0.000407139
-7.6364e-05
-0.000590575
-0.000124682
-0.000719643
-0.00017926
-0.000805652
-0.000237974
-0.000860821
-0.000299395
-0.000896197
-0.000362673
-0.000920427
-0.000427377
-0.000939426
-0.000493346
-0.000956733
-0.000560564
-0.000974194
-0.000629086
-0.000992647
-0.000698999
-0.00101243
-0.0007704
-0.00103365
-0.00084339
-0.00105638
-1.06445e-05
-0.000150874
-3.7806e-05
-0.000379978
-7.76002e-05
-0.000550781
-0.000126514
-0.000670729
-0.000181666
-0.0007505
-0.000240916
-0.000801571
-0.000302838
-0.000834275
-0.000366591
-0.000856674
-0.000431757
-0.00087426
-0.000498181
-0.000890309
-0.000565853
-0.000906522
-0.000634832
-0.000923668
-0.000705205
-0.000942052
-0.000777072
-0.000961787
-0.000982921
-1.0841e-05
-0.000140033
-3.84267e-05
-0.000352392
-7.87506e-05
-0.000510457
-0.000128218
-0.000621262
-0.000183902
-0.000694816
-0.00024365
-0.000741823
-0.000306036
-0.000771889
-0.000370231
-0.000792479
-0.000435826
-0.000808666
-0.000502673
-0.000823462
-0.000570768
-0.000838428
-0.000640172
-0.000854264
-0.000710974
-0.00087125
-0.000783275
-0.000889487
-0.000909019
-1.1023e-05
-0.00012901
-3.90012e-05
-0.000324414
-7.98145e-05
-0.000469643
-0.000129792
-0.000571285
-0.000185968
-0.00063864
-0.000246175
-0.000681617
-0.00030899
-0.000709073
-0.000373593
-0.000727876
-0.000439584
-0.000742675
-0.000506822
-0.000756224
-0.000575308
-0.000769942
-0.000645105
-0.000784467
-0.000716304
-0.000800051
-0.000789006
-0.000816785
-0.00083471
-1.11905e-05
-0.00011782
-3.95292e-05
-0.000296075
-8.07914e-05
-0.000428381
-0.000131237
-0.00052084
-0.000187863
-0.000582014
-0.00024849
-0.000620989
-0.000311699
-0.000645864
-0.000376676
-0.000662899
-0.00044303
-0.000676321
-0.000510628
-0.000688626
-0.000579473
-0.000701097
-0.000649631
-0.000714309
-0.000721195
-0.000728487
-0.000794266
-0.000743714
-0.000760026
-1.13432e-05
-0.000106476
-4.00102e-05
-0.000267408
-8.16809e-05
-0.000386711
-0.000132551
-0.000469969
-0.000189586
-0.000524979
-0.000250596
-0.00055998
-0.000314162
-0.000582298
-0.000379479
-0.000597582
-0.000446164
-0.000609636
-0.000514089
-0.0006207
-0.000583262
-0.000631925
-0.000653749
-0.000643821
-0.000725645
-0.000656591
-0.000799052
-0.000670307
-0.000685002
-1.14811e-05
-9.49954e-05
-4.04441e-05
-0.000238445
-8.24826e-05
-0.000344672
-0.000133736
-0.000418716
-0.000191139
-0.000467576
-0.000252492
-0.000498627
-0.00031638
-0.000518411
-0.000382003
-0.000531958
-0.000448986
-0.000542652
-0.000517206
-0.00055248
-0.000586673
-0.000562458
-0.000657457
-0.000573038
-0.000729652
-0.000584395
-0.000803362
-0.000596597
-0.00060967
-1.16039e-05
-8.33915e-05
-4.08304e-05
-0.000209218
-8.31961e-05
-0.000302306
-0.000134789
-0.000367123
-0.000192519
-0.000409846
-0.000254178
-0.000436969
-0.000318351
-0.000454237
-0.000384247
-0.000466062
-0.000451496
-0.000475404
-0.000519978
-0.000483998
-0.000589707
-0.000492729
-0.000660755
-0.00050199
-0.000733217
-0.000511934
-0.000807197
-0.000522617
-0.000534065
-1.17117e-05
-7.16798e-05
-4.1169e-05
-0.000179761
-8.38212e-05
-0.000259654
-0.000135712
-0.000315232
-0.000193728
-0.00035183
-0.000255654
-0.000375043
-0.000320077
-0.000389813
-0.000386212
-0.000399928
-0.000453692
-0.000407924
-0.000522404
-0.000415286
-0.000592363
-0.00042277
-0.000663643
-0.00043071
-0.000736338
-0.000439238
-0.000810555
-0.000448401
-0.000458219
-1.18042e-05
-5.98756e-05
-4.14596e-05
-0.000150106
-8.43574e-05
-0.000216756
-0.000136503
-0.000263086
-0.000194764
-0.000293569
-0.000256919
-0.000312889
-0.000321557
-0.000325175
-0.000387896
-0.000333589
-0.000455575
-0.000340244
-0.000524484
-0.000346376
-0.000594641
-0.000352613
-0.000666119
-0.000359232
-0.000739015
-0.000366342
-0.000813434
-0.000373981
-0.000382168
-1.18814e-05
-4.79942e-05
-4.17021e-05
-0.000120285
-8.48046e-05
-0.000173654
-0.000137163
-0.000210727
-0.000195628
-0.000235104
-0.000257973
-0.000250544
-0.00032279
-0.000260359
-0.000389299
-0.00026708
-0.000457145
-0.000272399
-0.000526219
-0.000277303
-0.000596539
-0.000282292
-0.000668183
-0.000287589
-0.000741246
-0.000293278
-0.000815835
-0.000299392
-0.000305945
-1.19433e-05
-3.60509e-05
-4.18962e-05
-9.03322e-05
-8.51626e-05
-0.000130387
-0.000137691
-0.000158198
-0.00019632
-0.000176475
-0.000258817
-0.000188046
-0.000323777
-0.000195399
-0.000390422
-0.000200434
-0.000458401
-0.000204421
-0.000527606
-0.000208097
-0.000598059
-0.00021184
-0.000669835
-0.000215813
-0.000743032
-0.000220081
-0.000817756
-0.000224668
-1.19898e-05
-2.40611e-05
-4.20419e-05
-6.028e-05
-8.54312e-05
-8.6998e-05
-0.000138087
-0.000105542
-0.000196838
-0.000117724
-0.00025945
-0.000125434
-0.000324517
-0.000130332
-0.000391265
-0.000133686
-0.000459343
-0.000136343
-0.000528647
-0.000138793
-0.000599198
-0.000141288
-0.000671074
-0.000143937
-0.000744372
-0.000146783
-0.000149842
-1.20207e-05
-1.20404e-05
-4.21391e-05
-3.01617e-05
-8.56104e-05
-4.35267e-05
-0.000138352
-5.2801e-05
-0.000197184
-5.88921e-05
-0.000259872
-6.2746e-05
-0.00032501
-6.51941e-05
-0.000391826
-6.68704e-05
-0.000459971
-6.81981e-05
-0.000529341
-6.94232e-05
-0.000599958
-7.06707e-05
-0.0006719
-7.19953e-05
-0.000745265
-7.34185e-05
-7.49479e-05
-1.20362e-05
-4.15431e-09
-4.21877e-05
-1.02092e-08
-8.56999e-05
-1.4475e-08
-0.000138484
-1.72483e-08
-0.000197357
-1.8897e-08
-0.000260083
-1.978e-08
-0.000325257
-2.01933e-08
-0.000392107
-2.03474e-08
-0.000460285
-2.03717e-08
-0.000529688
-2.0335e-08
-0.000600338
-2.02683e-08
-0.000672313
-2.01837e-08
-0.000745712
-2.00854e-08
-1.9975e-08
-1.20362e-05
1.20321e-05
-4.21877e-05
3.01412e-05
-8.56999e-05
4.34978e-05
-0.000138484
5.27665e-05
-0.000197357
5.88543e-05
-0.000260083
6.27065e-05
-0.000325257
6.51537e-05
-0.000392107
6.68297e-05
-0.000460285
6.81573e-05
-0.000529688
6.93826e-05
-0.000600338
7.06301e-05
-0.000672313
7.1955e-05
-0.000745712
7.33783e-05
7.4908e-05
-1.20207e-05
2.40528e-05
-4.21391e-05
6.02596e-05
-8.56103e-05
8.6969e-05
-0.000138352
0.000105508
-0.000197184
0.000117687
-0.000259872
0.000125395
-0.00032501
0.000130292
-0.000391826
0.000133646
-0.000459971
0.000136302
-0.000529341
0.000138753
-0.000599958
0.000141248
-0.0006719
0.000143897
-0.000745265
0.000146743
0.000149802
-1.19897e-05
3.60425e-05
-4.20419e-05
9.03117e-05
-8.54312e-05
0.000130358
-0.000138087
0.000158164
-0.000196838
0.000176437
-0.00025945
0.000188006
-0.000324517
0.000195359
-0.000391265
0.000200394
-0.000459343
0.00020438
-0.000528647
0.000208057
-0.000599198
0.000211799
-0.000671074
0.000215772
-0.000744371
0.000220041
0.000224628
-1.19433e-05
4.79858e-05
-4.18962e-05
0.000120265
-8.51626e-05
0.000173625
-0.000137691
0.000210693
-0.00019632
0.000235066
-0.000258817
0.000250504
-0.000323777
0.000260318
-0.000390422
0.000267039
-0.0004584
0.000272358
-0.000527606
0.000277262
-0.000598058
0.000282252
-0.000669834
0.000287549
-0.000743032
0.000293238
-0.000817756
0.000299352
0.000305905
-1.18814e-05
5.98673e-05
-4.1702e-05
0.000150085
-8.48046e-05
0.000216727
-0.000137163
0.000263051
-0.000195628
0.000293531
-0.000257973
0.000312849
-0.00032279
0.000325135
-0.000389299
0.000333548
-0.000457144
0.000340204
-0.000526218
0.000346336
-0.000596539
0.000352573
-0.000668182
0.000359192
-0.000741246
0.000366302
-0.000815835
0.000373941
0.000382128
-1.18042e-05
7.16715e-05
-4.14596e-05
0.000179741
-8.43573e-05
0.000259625
-0.000136503
0.000315197
-0.000194764
0.000351792
-0.000256919
0.000375003
-0.000321557
0.000389773
-0.000387895
0.000399887
-0.000455575
0.000407883
-0.000524484
0.000415245
-0.00059464
0.000422729
-0.000666118
0.00043067
-0.000739014
0.000439198
-0.000813434
0.00044836
0.00045818
-1.17116e-05
8.33831e-05
-4.11689e-05
0.000209198
-8.38211e-05
0.000302277
-0.000135712
0.000367088
-0.000193728
0.000409808
-0.000255653
0.000436929
-0.000320077
0.000454196
-0.000386211
0.000466021
-0.000453692
0.000475363
-0.000522404
0.000483957
-0.000592363
0.000492688
-0.000663642
0.000501949
-0.000736338
0.000511893
-0.000810554
0.000522577
0.000534025
-1.16039e-05
9.4987e-05
-4.08303e-05
0.000238424
-8.3196e-05
0.000344643
-0.000134789
0.000418681
-0.000192519
0.000467537
-0.000254178
0.000498587
-0.000318351
0.00051837
-0.000384247
0.000531917
-0.000451495
0.000542611
-0.000519977
0.000552439
-0.000589707
0.000562417
-0.000660754
0.000572997
-0.000733216
0.000584355
-0.000807196
0.000596557
0.00060963
-1.1481e-05
0.000106468
-4.0444e-05
0.000267387
-8.24825e-05
0.000386681
-0.000133736
0.000469935
-0.000191139
0.00052494
-0.000252491
0.00055994
-0.000316379
0.000582258
-0.000382003
0.000597541
-0.000448986
0.000609594
-0.000517206
0.000620659
-0.000586672
0.000631884
-0.000657456
0.000643781
-0.000729651
0.00065655
-0.000803361
0.000670267
0.000684962
-1.13432e-05
0.000117811
-4.00101e-05
0.000296054
-8.16807e-05
0.000428352
-0.000132551
0.000520805
-0.000189586
0.000581975
-0.000250595
0.000620949
-0.000314161
0.000645824
-0.000379479
0.000662858
-0.000446164
0.000676279
-0.000514089
0.000688584
-0.000583261
0.000701056
-0.000653748
0.000714268
-0.000725644
0.000728446
-0.000799051
0.000743673
0.000759986
-1.11904e-05
0.000129002
-3.95291e-05
0.000324393
-8.07912e-05
0.000469614
-0.000131236
0.00057125
-0.000187862
0.000638601
-0.000248489
0.000681576
-0.000311698
0.000709032
-0.000376675
0.000727835
-0.000443029
0.000742634
-0.000510627
0.000756182
-0.000579472
0.000769901
-0.00064963
0.000784426
-0.000721194
0.00080001
-0.000794265
0.000816744
0.000834669
-1.1023e-05
0.000140025
-3.90011e-05
0.000352371
-7.98143e-05
0.000510427
-0.000129792
0.000621227
-0.000185967
0.000694777
-0.000246174
0.000741783
-0.000308989
0.000771848
-0.000373592
0.000792437
-0.000439583
0.000808624
-0.000506821
0.000823421
-0.000575307
0.000838386
-0.000645104
0.000854223
-0.000716303
0.000871209
-0.000789005
0.000889446
0.000908978
-1.08409e-05
0.000150866
-3.84266e-05
0.000379957
-7.87504e-05
0.000550751
-0.000128217
0.000670694
-0.000183902
0.000750462
-0.000243649
0.000801531
-0.000306036
0.000834234
-0.00037023
0.000856632
-0.000435825
0.000874219
-0.000502672
0.000890268