/*--------------------------------*- C++ -*----------------------------------*\
  =========                 |
  \\      /  F ield         | OpenFOAM: The Open Source CFD Toolbox
   \\    /   O peration     | Website:  https://openfoam.org
    \\  /    A nd           | Version:  7
     \\/     M anipulation  |
\*---------------------------------------------------------------------------*/
FoamFile
{
    version     2.0;
    format      ascii;
    class       surfaceScalarField;
    location    "100";
    object      phi;
}
// * * * * * * * * * * * * * * * * * * * * * * * * * * * * * * * * * * * * * //

dimensions      [0 3 -1 0 0 0 0];

internalField   nonuniform List<scalar> 
14029
(
0.00043429
0.000429058
-0.000549818
0.000551826
0.00227337
-0.00239091
0.000664703
0.00405017
-0.00416305
0.000765926
0.00553426
-0.00563549
0.000847658
0.00659124
-0.00667297
0.000905941
0.00722203
-0.00728031
0.00094098
0.00751967
-0.00755471
0.000955257
0.00760012
-0.0076144
0.00095005
0.00757368
-0.00756847
0.000924012
0.00755298
-0.00752694
0.000878854
0.00761329
-0.00756813
0.000828192
0.00766586
-0.00761519
0.000797042
0.00738566
-0.00735451
0.000806491
0.00637793
-0.00638738
0.000859156
0.00449691
-0.00454957
0.000942302
0.00197112
-0.00205426
0.00103879
-0.000756825
0.00066034
0.00113269
-0.00324627
0.00315237
0.00121199
-0.00520122
0.00512191
0.00127046
-0.00652321
0.00646474
0.00130692
-0.00728106
0.0072446
0.00132359
-0.00763775
0.00762109
0.00132518
-0.00775603
0.00775444
0.00131611
-0.00774392
0.00775299
0.00129643
-0.0077046
0.00772428
0.00126269
-0.00777534
0.00780907
0.00121469
-0.00800239
0.00805039
0.00116095
-0.00816345
0.0082172
0.0011163
-0.00779709
0.00784174
-0.00649624
0.00651902
0.000402476
0.000303327
0.000525609
0.00215024
0.000644246
0.00393153
0.000751154
0.00542736
0.000838218
0.00650417
0.000901207
0.00715904
0.000940174
0.00748071
0.000957545
0.00758275
0.000954555
0.00757667
0.000930116
0.00757742
0.000886703
0.0076567
0.000838666
0.00771389
0.000810766
0.00741356
0.000822668
0.00636603
0.000875725
0.00444385
0.000957145
0.0018897
0.00105049
-0.000850167
0.00114058
-0.00333636
0.001216
-0.00527663
0.00127093
-0.00657814
0.00130447
-0.0073146
0.00131883
-0.00765211
0.0013186
-0.0077558
0.00130811
-0.00773343
0.00128734
-0.00768382
0.00125266
-0.00774065
0.00120372
-0.00795346
0.00114917
-0.0081089
0.00110434
-0.00775226
-0.00647439
0.000370788
0.000172839
0.000499375
0.00202165
0.000623672
0.00380724
0.000736198
0.00531483
0.000828556
0.00641182
0.000896258
0.00709134
0.000939195
0.00743777
0.000959718
0.00756222
0.00095902
0.00757737
0.000936305
0.00760013
0.000894811
0.0076982
0.000849549
0.00775915
0.000824905
0.00743821
0.000839107
0.00635183
0.000892341
0.00439062
0.000971851
0.00181018
0.00106193
-0.000940242
0.00114815
-0.00342258
0.00121966
-0.00534815
0.00127107
-0.00662955
0.00130172
-0.00734525
0.00131384
-0.00766423
0.00131184
-0.0077538
0.00129999
-0.00772158
0.00127818
-0.00766202
0.00124264
-0.00770511
0.00119283
-0.00790365
0.00113753
-0.0080536
0.0010925
-0.00770723
-0.0064534
0.000339323
3.7836e-05
0.000473187
0.00188779
0.000603019
0.0036774
0.000721074
0.00519677
0.000818679
0.00631421
0.000891092
0.00701892
0.000938037
0.00739082
0.000961764
0.0075385
0.000963434
0.0075757
0.00094257
0.00762099
0.000903167
0.0077376
0.000860815
0.00780151
0.000839423
0.0074596
0.000855769
0.00633548
0.000908974
0.00433741
0.000986404
0.00173276
0.0010731
-0.00102694
0.00115539
-0.00350487
0.00122298
-0.00541574
0.00127089
-0.00667746
0.0012987
-0.00737306
0.00130861
-0.00767414
0.0013049
-0.00775009
0.00129173
-0.00770841
0.00126897
-0.00763925
0.00123264
-0.00766877
0.00118205
-0.00785307
0.00112603
-0.00799758
0.00108079
-0.00766199
-0.00643321
0.00030817
-0.000101411
0.000447105
0.00174885
0.000582322
0.00354219
0.000705803
0.00507329
0.000808596
0.00621142
0.00088571
0.00694181
0.000936691
0.00733984
0.000963674
0.00751151
0.000967786
0.00757159
0.000948901
0.00763988
0.000911759
0.00777474
0.000872439
0.00784083
0.000854281
0.00747776
0.000872614
0.00631715
0.000925593
0.00428444
0.00100078
0.00165757
0.00108399
-0.00111015
0.0011623
-0.00358318
0.00122597
-0.00547942
0.0012704
-0.00672188
0.00129539
-0.00739805
0.00130317
-0.00768192
0.0012978
-0.00774472
0.00128337
-0.00769398
0.0012597
-0.00761558
0.00122266
-0.00763173
0.00117136
-0.00780177
0.00111468
-0.0079409
0.00106922
-0.00761653
-0.00641374
0.000277403
-0.000244574
0.00042119
0.00160507
0.000561618
0.00340176
0.000690403
0.00494451
0.000798312
0.00610351
0.000880109
0.00686001
0.000935149
0.0072848
0.000965433
0.00748123
0.000972064
0.00756495
0.000955287
0.00765666
0.000920567
0.00780946
0.000884393
0.007877
0.000869439
0.00749271
0.000889602
0.00629698
0.000942168
0.00423187
0.00101497
0.00158477
0.0010946
-0.00118978
0.00116888
-0.00365746
0.00122863
-0.00553916
0.00126959
-0.00676285
0.00129183
-0.00742029
0.00129751
-0.0076876
0.00129054
-0.00773775
0.0012749
-0.00767834
0.00125038
-0.00759107
0.00121272
-0.00759406
0.00116079
-0.00774985
0.00110349
-0.00788359
0.00105778
-0.00757082
-0.00639492
0.000247138
-0.000391365
0.000395501
0.0014567
0.000540942
0.00325632
0.000674892
0.00481056
0.000787834
0.00599057
0.000874286
0.00677356
0.000933403
0.00722569
0.00096703
0.0074476
0.000976255
0.00755573
0.000961714
0.0076712
0.000929574
0.0078416
0.000896643
0.00790993
0.000884855
0.0075045
0.000906691
0.00627515
0.000958667
0.00417989
0.00102894
0.00151449
0.00110492
-0.00126575
0.00117514
-0.00372768
0.00123096
-0.00559498
0.00126849
-0.00680038
0.001288
-0.00743979
0.00129165
-0.00769125
0.00128313
-0.00772924
0.00126632
-0.00766153
0.00124103
-0.00756578
0.00120281
-0.00755584
0.00115034
-0.00769738
0.00109246
-0.00782572
0.0010465
-0.00752486
-0.00637668
0.00021744
-0.000541461
0.000370094
0.00130405
0.000520328
0.00310609
0.000659288
0.0046716
0.000777166
0.00587269
0.000868239
0.00668249
0.000931442
0.00716248
0.00096845
0.00741059
0.000980342
0.00754384
0.000968166
0.00768337
0.000938756
0.00787101
0.000909158
0.00793953
0.000900488
0.00751317
0.000923843
0.00625179
0.000975061
0.00412868
0.00104269
0.00144686
0.00111493
-0.00133799
0.00118106
-0.00379381
0.00123296
-0.00564688
0.00126709
-0.00683452
0.00128392
-0.00745662
0.00128559
-0.00769292
0.00127558
-0.00771923
0.00125766
-0.00764361
0.00123163
-0.00753975
0.00119294
-0.00751715
0.00114
-0.00764444
0.0010816
-0.00776732
0.00103537
-0.00747862
-0.00635894
0.000188379
-0.000694555
0.000345023
0.0011474
0.000499809
0.0029513
0.000643607
0.0045278
0.000766315
0.00574998
0.000861964
0.00658684
0.000929256
0.00709519
0.000969677
0.00737017
0.000984312
0.0075292
0.000974625
0.00769306
0.00094809
0.00789755
0.0009219
0.00796572
0.000916292
0.00751878
0.000941016
0.00622707
0.00099132
0.00407837
0.00105619
0.00138199
0.00112463
-0.00140644
0.00118665
-0.00385583
0.00123464
-0.00569487
0.0012654
-0.00686528
0.00127959
-0.00747081
0.00127933
-0.00769265
0.00126789
-0.00770778
0.0012489
-0.00762462
0.0012222
-0.00751306
0.00118311
-0.00747806
0.00112979
-0.00759111
0.00107091
-0.00770844
0.00102439
-0.0074321
-0.00634163
0.00016002
-0.000850779
0.000320339
0.000987085
0.000479417
0.00279222
0.000627865
0.00437935
0.000755285
0.00562256
0.000855457
0.00648667
0.000926832
0.00702382
0.000970696
0.00732631
0.000988145
0.00751175
0.000981074
0.00770013
0.000957549
0.00792107
0.000934832
0.00798844
0.000932225
0.00752138
0.00095817
0.00620113
0.00100741
0.00402913
0.00106942
0.00131998
0.00113402
-0.00147103
0.00119191
-0.00391372
0.001236
-0.00573896
0.00126343
-0.00689271
0.00127503
-0.00748241
0.00127289
-0.00769052
0.00126006
-0.00769495
0.00124006
-0.00760462
0.00121274
-0.00748574
0.00117333
-0.00743864
0.0011197
-0.00753748
0.00106039
-0.00764914
0.00101357
-0.00738528
-0.00632465
0.000132432
-0.00100879
0.000296088
0.000823428
0.000459181
0.00262913
0.000612078
0.00422645
0.000744081
0.00549056
0.000848712
0.00638203
0.000924159
0.00694837
0.00097149
0.00727898
0.000991826
0.00749142
0.00098749
0.00770447
0.000967104
0.00794146
0.000947914
0.00800763
0.000948241
0.00752106
0.000975266
0.0061741
0.00102332
0.00398108
0.00108238
0.00126092
0.00114308
-0.00153174
0.00119683
-0.00396746
0.00123705
-0.00577918
0.00126118
-0.00691684
0.00127023
-0.00749146
0.00126626
-0.00768656
0.00125211
-0.00768079
0.00123113
-0.00758365
0.00120326
-0.00745787
0.00116359
-0.00739897
0.00110973
-0.00748362
0.00105005
-0.00758946
0.00100292
-0.00733814
-0.00630794
0.000105656
-0.00116818
0.000272313
0.000656771
0.000439129
0.00246231
0.000596261
0.00406932
0.000732705
0.00535411
0.000841725
0.00627302
0.000921223
0.00686887
0.000972043
0.00722816
0.000995334
0.00746813
0.000993853
0.00770595
0.000976726
0.00795858
0.000961106
0.00802325
0.000964295
0.00751787
0.000992265
0.00614613
0.001039
0.00393434
0.00109503
0.00120489
0.00115181
-0.00158851
0.00120141
-0.00401707
0.00123778
-0.00581555
0.00125865
-0.00693771
0.00126519
-0.007498
0.00125946
-0.00768082
0.00124403
-0.00766536
0.00122214
-0.00756175
0.00119374
-0.00742947
0.00115389
-0.00735913
0.00109989
-0.00742962
0.00103989
-0.00752946
0.000992427
-0.00729068
-0.00629141
7.97323e-05
-0.0013286
0.000249049
0.000487455
0.000419285
0.00229208
0.000580424
0.00390818
0.000721162
0.00521337
0.000834489
0.00615969
0.000918012
0.00678535
0.000972335
0.00717383
0.000998651
0.00744181
0.00100014
0.00770446
0.000986382
0.00797234
0.000974365
0.00803527
0.000980343
0.00751189
0.00100913
0.00611735
0.00105443
0.00388904
0.00110737
0.00115194
0.0011602
-0.00164133
0.00120566
-0.00406254
0.0012382
-0.00584809
0.00125585
-0.00695536
0.00125994
-0.00750209
0.00125248
-0.00767337
0.00123583
-0.00764871
0.00121306
-0.00753898
0.0011842
-0.00740061
0.00114424
-0.00731917
0.00109017
-0.00737554
0.0010299
-0.00746919
0.000982105
-0.00724288
-0.00627497
5.46865e-05
-0.00148952
0.000226328
0.000315813
0.00039967
0.00211873
0.000564581
0.00374327
0.000709453
0.0050685
0.000826998
0.00604214
0.00091451
0.00669784
0.00097235
0.007116
0.00100176
0.0074124
0.00100632
0.00769989
0.00099604
0.00798262
0.00098765
0.00804366
0.000996339
0.0075032
0.00102582
0.00608787
0.00106959
0.00384527
0.00111939
0.00110215
0.00116824
-0.00169019
0.00120957
-0.00410387
0.00123831
-0.00587682
0.00125279
-0.00696984
0.00125446
-0.00750376
0.00124534
-0.00766425
0.00122752
-0.0076309
0.00120392
-0.00751537
0.00117463
-0.00737133
0.00113463
-0.00727917
0.00108057
-0.00732148
0.00102009
-0.00740871
0.000971951
-0.00719474
-0.00625855
3.04962e-05
-0.00165027
0.00020418
0.00014213
0.000380306
0.00194261
0.000548742
0.00357484
0.000697579
0.00491967
0.000819244
0.00592048
0.000910704
0.00660638
0.000972068
0.00705463
0.00100463
0.00737984
0.00101238
0.00769214
0.00100567
0.00798934
0.00100092
0.0080484
0.00101224
0.00749188
0.00104229
0.00605782
0.00108444
0.00380312
0.00113105
0.00105554
0.00117593
-0.00173507
0.00121315
-0.00414109
0.00123812
-0.00590179
0.00124946
-0.00698118
0.00124877
-0.00750307
0.00123802
-0.0076535
0.00121909
-0.00761197
0.0011947
-0.00749098
0.00116504
-0.00734166
0.00112506
-0.00723919
0.00107109
-0.00726751
0.00101045
-0.00734807
0.000961965
-0.00714626
-0.00624208
6.79898e-06
-0.00180967
0.000182625
-3.36961e-05
0.000361206
0.00176403
0.000532913
0.00340313
0.000685541
0.00476704
0.000811219
0.0057948
0.000906579
0.00651102
0.000971471
0.00698974
0.00100725
0.00734407
0.00101829
0.0076811
0.00101522
0.0079924
0.00101413
0.0080495
0.001028
0.00747801
0.00105852
0.0060273
0.00109897
0.00376266
0.00114236
0.00101215
0.00118327
-0.00177597
0.00121639
-0.00417421
0.00123762
-0.00592302
0.00124587
-0.00698943
0.00124286
-0.00750006
0.00123054
-0.00764118
0.00121055
-0.00759198
0.00118542
-0.00746585
0.00115542
-0.00731166
0.00111553
-0.0071993
0.00106172
-0.00721371
0.00100098
-0.00728733
0.000952147
-0.00709743
-0.00622546
-1.51639e-05
-0.00196767
0.000161648
-0.000210508
0.000342386
0.00158329
0.000517103
0.00322841
0.000673338
0.0046108
0.000802915
0.00566522
0.000902119
0.00641181
0.000970541
0.00692132
0.00100959
0.00730502
0.00102401
0.00766668
0.00102468
0.00799174
0.00102723
0.00804694
0.00104358
0.00746166
0.00107447
0.00599641
0.00111315
0.00372398
0.0011533
0.000972004
0.00119024
-0.00181291
0.00121929
-0.00420326
0.00123682
-0.00594055
0.00124203
-0.00699464
0.00123675
-0.00749478
0.0012229
-0.00762734
0.0012019
-0.00757099
0.00117607
-0.00744002
0.00114577
-0.00728136
0.00110602
-0.00715954
0.00105247
-0.00716015
0.000991679
-0.00722654
0.000942496
-0.00704824
-0.00620862
-3.53453e-05
-0.00212411
0.000141313
-0.000387166
0.000323856
0.00140075
0.000501315
0.00305095
0.00066097
0.00445115
0.000794323
0.00553187
0.00089731
0.00630883
0.000969258
0.00684937
0.00101164
0.00726264
0.00102953
0.00764879
0.00103399
0.00798727
0.00104019
0.00804075
0.00105893
0.00744291
0.0010901
0.00596525
0.00112696
0.00368711
0.00116385
0.000935114
0.00119684
-0.00184591
0.00122185
-0.00422826
0.00123572
-0.00595443
0.00123794
-0.00699686
0.00123042
-0.00748727
0.0012151
-0.00761202
0.00119315
-0.00754903
0.00116666
-0.00741353
0.0011361
-0.0072508
0.00109654
-0.00711999
0.00104331
-0.00710692
0.000982541
-0.00716577
0.000933011
-0.00699871
-0.00619149
-5.47093e-05
-0.00227772
0.000121636
-0.000563511
0.000305628
0.00121676
0.000485553
0.00287103
0.000648432
0.00428827
0.000785433
0.00539487
0.000892135
0.00620212
0.000967605
0.0067739
0.00101337
0.00721687
0.00103481
0.00762735
0.00104313
0.00797895
0.00105296
0.00803092
0.00107402
0.00742185
0.00110537
0.0059339
0.00114037
0.00365212
0.001174
0.000901481
0.00120307
-0.00187498
0.00122407
-0.00424925
0.00123432
-0.00596468
0.00123359
-0.00699613
0.0012239
-0.00747757
0.00120714
-0.00759526
0.00118428
-0.00752617
0.00115718
-0.00738644
0.00112639
-0.00722001
0.00108709
-0.00708068
0.00103425
-0.00705409
0.00097356
-0.00710508
0.00092369
-0.00694884
-0.00617401
-7.28932e-05
-0.00242737
0.000102629
-0.000739034
0.000287709
0.00103168
0.000469818
0.00268892
0.000635722
0.00412237
0.000776235
0.00525435
0.000886581
0.00609178
0.000965562
0.00669492
0.00101476
0.00716767
0.00103983
0.00760228
0.00105206
0.00796673
0.0010655
0.00801748
0.00108881
0.00739854
0.00112027
0.00590243
0.00115336
0.00361903
0.00118374
0.000871097
0.00120892
-0.00190016
0.00122595
-0.00426628
0.00123263
-0.00597136
0.001229
-0.0069925
0.00121717
-0.00746575
0.00119903
-0.00757711
0.0011753
-0.00750244
0.00114763
-0.00735877
0.00111665
-0.00718903
0.00107764
-0.00704168
0.00102528
-0.00700173
0.000964731
-0.00704453
0.00091453
-0.00689864
-0.0061561
-8.97119e-05
-0.00257193
8.43254e-05
-0.000913071
0.000270109
0.000845892
0.000454111
0.00250491
0.000622835
0.00395364
0.000766719
0.00511047
0.000880632
0.00597787
0.000963113
0.00661244
0.00101579
0.007115
0.00104457
0.0075735
0.00106074
0.00795056
0.00107777
0.00800045
0.00110325
0.00737306
0.00113476
0.00587092
0.00116591
0.00358788
0.00119306
0.000843945
0.00121439
-0.00192148
0.00122749
-0.00427937
0.00123064
-0.00597452
0.00122416
-0.00698602
0.00121025
-0.00745184
0.00119075
-0.00755761
0.00116622
-0.00747791
0.00113802
-0.00733057
0.00110687
-0.00715787
0.00106821
-0.00700302
0.0010164
-0.00694991
0.000956049
-0.00698418
0.000905527
-0.00684812
-0.00613769
-0.000105002
6.67636e-05
-0.00108484
0.000252835
0.000659821
0.000438432
0.00231932
0.000609765
0.00378231
0.000756874
0.00496336
0.000874273
0.00586047
0.000960239
0.00652647
0.00101644
0.0070588
0.00104898
0.00754095
0.00106914
0.0079304
0.00108973
0.00797986
0.00111731
0.00734549
0.0011488
0.00583942
0.00117801
0.00355867
0.00120195
0.000820001
0.00121947
-0.001939
0.00122869
-0.00428858
0.00122835
-0.00597418
0.00121908
-0.00697675
0.00120313
-0.00743589
0.00118233
-0.00753681
0.00115702
-0.0074526
0.00112834
-0.00730189
0.00109705
-0.00712658
0.00105878
-0.00696475
0.00100758
-0.00689872
0.000947505
-0.0069241
0.000896678
-0.0067973
-0.00611874
4.99916e-05
-0.00125342
0.000235902
0.000473911
0.000422781
0.00213244
0.000596507
0.00360859
0.000746691
0.00481318
0.000867492
0.00573967
0.000956926
0.00643704
0.00101668
0.00699904
0.00105305
0.00750458
0.00107722
0.00790623
0.00110134
0.00795574
0.00113095
0.00731587
0.00116238
0.005808
0.00118963
0.00353142
0.0012104
0.000799229
0.00122417
-0.00195277
0.00122955
-0.00429396
0.00122578
-0.00597042
0.00121376
-0.00696473
0.00119581
-0.00741794
0.00117374
-0.00751474
0.00114772
-0.00742658
0.00111859
-0.00727276
0.00108719
-0.00709518
0.00104934
-0.0069269
0.000998831
-0.00684821
0.000939092
-0.00686436
0.000887979
-0.00674618
-0.00609919
3.40641e-05
-0.00141774
0.000219337
0.000288638
0.000407163
0.00194461
0.000583055
0.00343269
0.00073616
0.00466007
0.000860274
0.00561555
0.000953157
0.00634415
0.00101651
0.00693569
0.00105676
0.00746434
0.00108496
0.00787802
0.00111257
0.00792813
0.00114415
0.0072843
0.00117547
0.00577668
0.00120076
0.00350612
0.00121841
0.000781587
0.00122847
-0.00196283
0.00123007
-0.00429556
0.00122291
-0.00596326
0.0012082
-0.00695001
0.00118831
-0.00739805
0.00116501
-0.00749144
0.0011383
-0.00739987
0.00110877
-0.00724323
0.00107728
-0.00706369
0.00103989
-0.00688951
0.000990135
-0.00679846
0.000930802
-0.00680503
0.000879425
-0.0066948
-0.00607898
1.90155e-05
-0.00157655
0.000203195
0.000104459
0.000391583
0.00175622
0.000569407
0.00325487
0.000725271
0.00450421
0.00085261
0.00548821
0.000948919
0.00624785
0.0010159
0.00686871
0.00106007
0.00742016
0.00109232
0.00784578
0.00112338
0.00789706
0.00115687
0.00725081
0.00118803
0.00574552
0.00121139
0.00348277
0.00122595
0.000767026
0.00123238
-0.00196925
0.00123025
-0.00429343
0.00121976
-0.00595277
0.0012024
-0.00693265
0.0011806
-0.00737626
0.00115612
-0.00746696
0.00112877
-0.00737252
0.00109887
-0.00721333
0.00106732
-0.00703214
0.00103042
-0.00685261
0.000981481
-0.00674952
0.000922627
-0.00674618
0.00087101
-0.00664319
-0.00605807
4.58708e-06
-0.00172806
0.000187505
-7.84589e-05
0.000376053
0.00156768
0.00055556
0.00307536
0.000714019
0.00434575
0.000844487
0.00535774
0.000944199
0.00614813
0.00101483
0.00679808
0.00106296
0.00737203
0.00109926
0.00780948
0.00113374
0.00786258
0.00116908
0.00721547
0.00120006
0.00571453
0.0012215
0.00346133
0.00123303
0.000755488
0.00123588
-0.0019721
0.00123009
-0.00428764
0.00121631
-0.00593899
0.00119636
-0.0069127
0.00117271
-0.00735261
0.00114707
-0.00744132
0.00111913
-0.00734458
0.0010889
-0.00718311
0.00105731
-0.00700054
0.00102092
-0.00681621
0.000972861
-0.00670146
0.000914557
-0.00668787
0.000862729
-0.00659136
-0.00603643
-7.85277e-06
-0.00187163
0.00017227
-0.000258582
0.000360602
0.00137934
0.000541518
0.00289445
0.000702399
0.00418487
0.0008359
0.00522424
0.000938987
0.00604505
0.00101329
0.00672377
0.00106542
0.00731991
0.00110576
0.00776914
0.00114362
0.00782472
0.00118075
0.00717834
0.00121153
0.00568375
0.00123107
0.00344179
0.00123965
0.000746909
0.001239
-0.00197145
0.00122959
-0.00427823
0.00121258
-0.00592198
0.00119008
-0.00689021
0.00116463
-0.00732715
0.00113787
-0.00741456
0.00110937
-0.00731607
0.00107886
-0.0071526
0.00104724
-0.00696893
0.00101138
-0.00678035
0.000964261
-0.00665434
0.000906582
-0.00663019
0.000854577
-0.00653935
-0.00601401
-1.75572e-05
-0.00200713
0.000157725
-0.000433864
0.000345263
0.00119181
0.000527289
0.00271242
0.000690409
0.00402175
0.000826842
0.00508781
0.000933274
0.00593861
0.00101127
0.00664578
0.00106741
0.00726377
0.0011118
0.00772475
0.00115298
0.00778354
0.00119185
0.00713947
0.00122242
0.00565319
0.0012401
0.0034241
0.00124579
0.000741218
0.00124171
-0.00196736
0.00122875
-0.00426528
0.00120856
-0.00590179
0.00118357
-0.00686522
0.00115635
-0.00729994
0.00112852
-0.00738672
0.00109949
-0.00728704
0.00106873
-0.00712184
0.00103711
-0.00693731
0.0010018
-0.00674504
0.000955671
-0.00660822
0.000898692
-0.00657321
0.000846546
-0.00648721
-0.00599078
-2.58953e-05
-0.00213285
0.000143941
-0.0006037
0.000330098
0.00100565
0.000512892
0.00252963
0.000678053
0.00385659
0.000817312
0.00494855
0.000927054
0.00582887
0.00100875
0.00656408
0.00106892
0.00720361
0.00111734
0.00767633
0.0011618
0.00773908
0.00120237
0.00709889
0.00123271
0.00562285
0.00124858
0.00340823
0.00125146
0.000738338
0.00124402
-0.00195992
0.00122758
-0.00424884
0.00120426
-0.00587847
0.00117683
-0.00683779
0.00114789
-0.007271
0.001119
-0.00735783
0.00108948
-0.00725752
0.00105851
-0.00709087
0.00102691
-0.00690571
0.000992164
-0.00671029
0.000947078
-0.00656313
0.000890876
-0.00651701
0.00083863
-0.00643496
-0.00596672
-3.23184e-05
-0.00224747
0.0001311
-0.000767118
0.000315181
0.000821567
0.000498353
0.00234645
0.000665342
0.0036896
0.00080731
0.00480658
0.000920323
0.00571586
0.00100573
0.00647867
0.00106994
0.0071394
0.00112236
0.00762391
0.00117006
0.00769139
0.00121229
0.00705667
0.00124239
0.00559275
0.0012565
0.00339412
0.00125665
0.000738186
0.00124593
-0.00194921
0.00122607
-0.00422897
0.00119967
-0.00585206
0.00116985
-0.00680797
0.00113924
-0.00724039
0.00110934
-0.00732793
0.00107935
-0.00722754
0.00104821
-0.00705973
0.00101665
-0.00687415
0.00098247
-0.00667611
0.00093847
-0.00651913
0.000883123
-0.00646166
0.000830823
-0.00638266
-0.00594181
-3.64849e-05
-0.00234985
0.000119403
-0.000923006
0.000300606
0.000640364
0.000483715
0.00216335
0.000652291
0.00352102
0.000796844
0.00466203
0.000913081
0.00559962
0.00100219
0.00638956
0.00107045
0.00707114
0.00112685
0.0075675
0.00117773
0.00764051
0.00122157
0.00701283
0.00125144
0.00556288
0.00126385
0.00338172
0.00126136
0.000740671
0.00124745
-0.0019353
0.00122422
-0.00420574
0.00119479
-0.00582264
0.00116263
-0.00677581
0.0011304
-0.00720815
0.00109951
-0.00729704
0.0010691
-0.00719713
0.00103782
-0.00702845
0.00100631
-0.00684264
0.000972707
-0.00664251
0.000929835
-0.00647626
0.000875421
-0.00640725
0.000823117
-0.00633036
-0.00591602
-3.81159e-05
-0.00243904
0.000109074
-0.0010702
0.000286496
0.000462942
0.000469034
0.00198081
0.000638927
0.00335113
0.000785924
0.00451503
0.000905331
0.00548021
0.000998138
0.00629675
0.00107043
0.00699886
0.00113078
0.00750714
0.00118479
0.0075865
0.00123021
0.00696741
0.00125986
0.00553322
0.00127062
0.00337095
0.0012656
0.000745701
0.00124857
-0.00191828
0.00122204
-0.00417921
0.00118964
-0.00579023
0.00115518
-0.00674136
0.00112136
-0.00717433
0.00108952
-0.0072652
0.00105871
-0.00716632
0.00102733
-0.00699707
0.000995897
-0.0068112
0.000962869
-0.00660948
0.000921159
-0.00643455
0.000867756
-0.00635385
0.000815506
-0.00627811
-0.00588935
-3.69731e-05
-0.00251436
0.000100361
-0.00120753
0.000273005
0.000290299
0.000454388
0.00179942
0.000625286
0.00318023
0.00077457
0.00436575
0.000897081
0.0053577
0.000993563
0.00620027
0.00106987
0.00692255
0.00113414
0.00744287
0.00119123
0.00752942
0.00123818
0.00692046
0.00126763
0.00550378
0.00127683
0.00336176
0.00126935
0.000753175
0.0012493
-0.00189822
0.00121953
-0.00414943
0.0011842
-0.0057549
0.0011475
-0.00670467
0.00111214
-0.00713897
0.00107938
-0.00723244
0.00104819
-0.00713514
0.00101674
-0.00696562
0.0009854
-0.00677986
0.000952948
-0.00657703
0.000912429
-0.00639403
0.000860117
-0.00630154
0.000807982
-0.00622597
0.000780417
-0.00586178
-0.00486432
-3.28689e-05
-0.00257538
9.35471e-05
-0.00133395
0.000260346
0.0001235
0.000439875
0.00161989
0.000611419
0.00300869
0.000762807
0.00421436
0.000888341
0.00523217
0.000988469
0.00610014
0.00106877
0.00684225
0.00113691
0.00737473
0.00119702
0.00746931
0.00124548
0.00687199
0.00127474
0.00547452
0.00128246
0.00335404
0.00127264
0.000762987
0.00124964
-0.00187522
0.00121668
-0.00411647
0.00117848
-0.0057167
0.00113959
-0.00666578
0.00110273
-0.00710212
0.00106907
-0.00719878
0.00103754
-0.0071036
0.00100605
-0.00693413
0.000974819
-0.00674863
0.000942937
-0.00654515
0.000903635
-0.00635473
0.00085249
-0.00625039
0.000800536
-0.00617402
0.000772074
-0.00583332
-0.00487992
-2.56869e-05
-0.00262196
8.88784e-05
-0.00144851
0.000248708
-3.63297e-05
0.000425612
0.00144299
0.000597389
0.00283691
0.000750669
0.00406108
0.000879131
0.00510371
0.00098286
0.00599641
0.00106712
0.00675799
0.00113908
0.00730277
0.00120216
0.00740622
0.0012521
0.00682205
0.00128119
0.00544542
0.00128751
0.00334773
0.00127547
0.00077503
0.0012496
-0.00184935
0.00121351
-0.00408039
0.00117248
-0.00567566
0.00113144
-0.00662474
0.00109313
-0.0070638
0.0010586
-0.00716426
0.00102674
-0.00707174
0.000995252
-0.00690264
0.000964149
-0.00671752
0.000932831
-0.00651383
0.000894762
-0.00631666
0.000844861
-0.00620049
0.000793162
-0.00612232
0.000763804
-0.00580396
-0.00489418
-1.54788e-05
-0.0026542
8.67078e-05
-0.0015507
0.000238204
-0.000187826
0.000411751
0.00126944
0.000583277
0.00266538
0.000738201
0.00390616
0.000869471
0.00497244
0.000976744
0.00588914
0.00106491
0.00666982
0.00114063
0.00722705
0.00120663
0.00734023
0.00125802
0.00677066
0.00128698
0.00541646
0.00129199
0.00334272
0.00127783
0.000789188
0.00124918
-0.0018207
0.00121001
-0.00404122
0.0011662
-0.00563185
0.00112306
-0.0065816
0.00108333
-0.00702408
0.00104797
-0.0071289
0.00101581
-0.00703957
0.00098434
-0.00687118
0.000953385
-0.00668657
0.000922622
-0.00648306
0.000885798
-0.00627983
0.000837214
-0.00615191
0.00078585
-0.00607095
0.000755604
-0.00577372
-0.00490703
-2.97626e-06
-0.00267192
8.70426e-05
-0.00164072
0.000229288
-0.000330071
0.000398458
0.00110027
0.000569183
0.00249466
0.000725456
0.00374989
0.000859391
0.0048385
0.000970134
0.00577839
0.00106216
0.0065778
0.00114157
0.00714764
0.00121042
0.00727138
0.00126323
0.00671785
0.0012921
0.00538759
0.00129591
0.0033389
0.00127976
0.000805343
0.00124839
-0.00178933
0.00120619
-0.00399903
0.00115964
-0.0055853
0.00111444
-0.0065364
0.00107335
-0.00698298
0.00103718
-0.00709273
0.00100472
-0.00700712
0.000973312
-0.00683976
0.000942524
-0.00665578
0.000912305
-0.00645285
0.000876733
-0.00624426
0.000829536
-0.00610471
0.000778591
-0.00602001
0.00074747
-0.0057426
-0.00491841
1.54001e-05
9.0165e-05
-0.00171548
0.000222133
-0.000462039
0.000385943
0.000936463
0.000555225
0.00232538
0.000712502
0.00359261
0.000848928
0.00470208
0.000963046
0.00566427
0.00105885
0.00648199
0.00114189
0.00706459
0.00121353
0.00719974
0.00126774
0.00666365
0.00129655
0.00535879
0.00129928
0.00333617
0.00128125
0.000823373
0.00124723
-0.00175531
0.00120205
-0.00395385
0.00115281
-0.00553605
0.0011056
-0.00648919
0.00106317
-0.00694055
0.00102622
-0.00705578
0.000993493
-0.00697439
0.000962162
-0.00680843
0.000931561
-0.00662518
0.000901875
-0.00642316
0.000867554
-0.00620994
0.000821812
-0.00605897
0.000771375
-0.00596957
0.0007394
-0.00571062
-0.00492828
9.6267e-05
-0.00177582
0.00021701
-0.000582782
0.000374429
0.000779044
0.000541546
0.00215826
0.00069942
0.00343474
0.000838124
0.00456337
0.000955502
0.0055469
0.00105501
0.00638249
0.00114159
0.00697801
0.00121596
0.00712537
0.00127154
0.00660807
0.00130033
0.00532999
0.00130211
0.00333439
0.00128233
0.000843155
0.00124573
-0.00171871
0.00119759
-0.00390571
0.0011457
-0.00548415
0.00109652
-0.00644001
0.0010528
-0.00689683
0.00101509
-0.00701808
0.000982112
-0.00694142
0.000950886
-0.00677721
0.000920494
-0.00659479
0.000891327
-0.00639399
0.00085825
-0.00617686
0.000814025
-0.00601474
0.000764193
-0.00591974
0.000731393
-0.00567782
-0.00493659
0.000105403
-0.00182239
0.000214165
-0.000691544
0.000364154
0.000629055
0.000528309
0.0019941
0.000686306
0.00327674
0.000827035
0.00442264
0.000947528
0.0054264
0.00105062
0.00627939
0.00114067
0.00688797
0.00121769
0.00704834
0.00127462
0.00655114
0.00130346
0.00530115
0.00130443
0.00333343
0.00128302
0.000864564
0.00124388
-0.00167958
0.00119282
-0.00385465
0.00113831
-0.00542964
0.0010872
-0.00638891
0.00104223
-0.00685186
0.0010038
-0.00697964
0.000970578
-0.0069082
0.00093948
-0.00674611
0.000909317
-0.00656463
0.000880656
-0.00636533
0.00084881
-0.00614502
0.00080616
-0.00597209
0.000757033
-0.00587061
0.000723445
-0.00564423
-0.00494328
0.000117515
-0.00185592
0.0002138
-0.000787829
0.000355367
0.000487488
0.000515702
0.00183377
0.000673277
0.00311916
0.000815724
0.0042802
0.000939157
0.00530297
0.00104573
0.00617282
0.00113912
0.00679457
0.00121874
0.00696873
0.00127699
0.0064929
0.00130595
0.00527218
0.00130626
0.00333312
0.00128335
0.000887475
0.00124171
-0.00163794
0.00118774
-0.00380068
0.00113065
-0.00537255
0.00107766
-0.00633592
0.00103147
-0.00680567
0.000992332
-0.0069405
0.000958888
-0.00687475
0.000927939
-0.00671516
0.000898028
-0.00653471
0.000869858
-0.00633716
0.000839226
-0.00611439
0.000798202
-0.00593107
0.000749883
-0.0058223
0.000715555
-0.00560991
-0.00494831
0.000132468
-0.0018773
0.000216061
-0.000871422
0.000348319
0.00035523
0.000503936
0.00167815
0.000660468
0.00296263
0.00080427
0.0041364
0.000930431
0.00517681
0.00104033
0.00606293
0.00113697
0.00669793
0.0012191
0.0068866
0.00127865
0.00643335
0.00130783
0.00524301
0.00130765
0.0033333
0.00128335
0.000911772
0.00123923
-0.00159382
0.00118235
-0.0037438
0.00112272
-0.00531291
0.00106788
-0.00628108
0.00102052
-0.00675831
0.000980699
-0.00690068
0.000947039
-0.0068411
0.00091626
-0.00668438
0.00088662
-0.00650507
0.000858929
-0.00630947
0.000829488
-0.00608495
0.000790134
-0.00589171
0.000742731
-0.00577489
0.00070772
-0.00557489
-0.00495163
0.000150048
-0.00188766
0.000221033
-0.000942407
0.000343248
0.000233015
0.000493242
0.00152816
0.000648041
0.00280783
0.000792768
0.00399167
0.000921403
0.00504817
0.00103446
0.00594987
0.00113423
0.00659816
0.00121878
0.00680204
0.00127962
0.0063725
0.00130912
0.00521351
0.00130866
0.00333377
0.00128308
0.000937351
0.00123645
-0.0015472
0.00117666
-0.00368401
0.00111451
-0.00525076
0.00105787
-0.00622445
0.00100937
-0.00670981
0.000968893
-0.00686021
0.000935029
-0.00680723
0.000904435
-0.00665379
0.000875091
-0.00647573
0.000847865
-0.00628224
0.000819587
-0.00605667
0.000781942
-0.00585407
0.000735564
-0.00572851
0.000699939
-0.00553927
-0.00495321
0.000169969
-0.00188826
0.000228726
-0.00100116
0.000340373
0.000121368
0.000483869
0.00138466
0.000636187
0.00265551
0.000781341
0.00384651
0.000912142
0.00491737
0.00102816
0.00583385
0.00113091
0.00649542
0.00121781
0.00671514
0.00127994
0.00631038
0.00130991
0.00518354
0.00130937
0.00333431
0.00128258
0.000964138
0.00123341
-0.00149802