/*--------------------------------*- C++ -*----------------------------------*\
  =========                 |
  \\      /  F ield         | OpenFOAM: The Open Source CFD Toolbox
   \\    /   O peration     | Website:  https://openfoam.org
    \\  /    A nd           | Version:  7
     \\/     M anipulation  |
\*---------------------------------------------------------------------------*/
FoamFile
{
    version     2.0;
    format      ascii;
    class       volScalarField;
    location    "40";
    object      p;
}
// * * * * * * * * * * * * * * * * * * * * * * * * * * * * * * * * * * * * * //

dimensions      [0 2 -2 0 0 0 0];

internalField   nonuniform List<scalar> 
4575
(
-0.115681
-0.10333
-0.0909406
-0.0787096
-0.0668334
-0.0554908
-0.044843
-0.0350114
-0.0260934
-0.0181388
-0.0111781
-0.00519163
-0.00015634
0.00399789
0.00732613
0.00992611
0.0118655
0.0132485
0.014139
0.0146358
0.0147902
0.0146866
0.0143644
0.0138877
-0.11574
-0.103371
-0.0909612
-0.0787125
-0.0668217
-0.0554685
-0.0448137
-0.03498
-0.0260638
-0.0181142
-0.0111607
-0.00518246
-0.000155773
0.00399017
0.00731265
0.00990782
0.0118442
0.013226
0.0141168
0.0146151
0.0147721
0.0146716
0.0143528
0.0138794
-0.115826
-0.103437
-0.0910077
-0.0787403
-0.0668336
-0.0554683
-0.0448058
-0.0349685
-0.0260527
-0.0181065
-0.0111585
-0.00518701
-0.000167216
0.00397251
0.00728948
0.00988091
0.0118151
0.0131966
0.0140884
0.0145891
0.0147492
0.0146524
0.0143375
0.0138679
-0.115939
-0.10353
-0.0910799
-0.078793
-0.0668695
-0.055491
-0.0448193
-0.0349771
-0.02606
-0.0181157
-0.0111718
-0.00520554
-0.000191259
0.00394348
0.0072563
0.00984512
0.0117783
0.0131602
0.014054
0.0145577
0.0147216
0.0146291
0.0143185
0.0138531
-0.116077
-0.103648
-0.0911774
-0.0788705
-0.0669292
-0.0555364
-0.0448543
-0.0350057
-0.026086
-0.018142
-0.0112006
-0.00523815
-0.000227988
0.00390302
0.00721307
0.00980044
0.0117336
0.013117
0.0140135
0.0145209
0.0146893
0.0146015
0.0142958
0.013835
-0.116241
-0.103792
-0.0912999
-0.0789724
-0.0670126
-0.0556044
-0.0449108
-0.0350545
-0.0261306
-0.0181855
-0.0112451
-0.0052849
-0.000277405
0.00385125
0.00715983
0.00974691
0.0116812
0.013067
0.013967
0.0144789
0.0146523
0.0145699
0.0142695
0.0138137
-0.116429
-0.10396
-0.0914469
-0.0790984
-0.0671193
-0.055695
-0.0449886
-0.0351233
-0.026194
-0.0182462
-0.0113053
-0.00534584
-0.000339548
0.00378815
0.00709654
0.00968453
0.0116209
0.0130101
0.0139145
0.0144315
0.0146106
0.0145341
0.0142394
0.0137891
-0.116642
-0.104152
-0.0916178
-0.0792479
-0.0672491
-0.0558077
-0.0450876
-0.0352122
-0.026276
-0.0183242
-0.0113813
-0.00542102
-0.000414461
0.00371369
0.00702319
0.00961328
0.0115529
0.0129463
0.013856
0.0143789
0.0145643
0.0144942
0.0142058
0.0137612
-0.116877
-0.104368
-0.091812
-0.0794206
-0.0674016
-0.0559425
-0.0452078
-0.035321
-0.0263767
-0.0184194
-0.011473
-0.00551048
-0.000502179
0.00362782
0.00693976
0.00953315
0.0114771
0.0128758
0.0137915
0.0143211
0.0145134
0.0144502
0.0141685
0.0137301
-0.117134
-0.104606
-0.0920288
-0.0796159
-0.0675762
-0.0560989
-0.0453488
-0.0354497
-0.026496
-0.0185318
-0.0115805
-0.00561422
-0.000602724
0.00353053
0.00684623
0.00944413
0.0113935
0.0127984
0.013721
0.0142579
0.0144578
0.014402
0.0141275
0.0136957
-0.104866
-0.0922676
-0.079833
-0.0677729
-0.0562767
-0.0455104
-0.035598
-0.0266337
-0.0186614
-0.0117037
-0.00573226
-0.000716105
0.00342181
0.00674258
0.00934621
0.011302
0.0127141
0.0136445
0.0141895
0.0143975
0.0143497
0.0140828
0.013658
-0.105146
-0.0925275
-0.0800716
-0.0679908
-0.0564755
-0.0456923
-0.0357657
-0.0267898
-0.0188081
-0.0118426
-0.00586456
-0.000842319
0.00330165
0.00662881
0.00923938
0.0112028
0.012623
0.0135619
0.0141158
0.0143326
0.0142933
0.0140344
0.013617
-0.105446
-0.0928077
-0.080331
-0.0682294
-0.0566948
-0.0458943
-0.0359527
-0.0269642
-0.0189717
-0.0119972
-0.0060111
-0.000981348
0.00317006
0.00650492
0.00912363
0.0110957
0.0125251
0.0134734
0.0140368
0.014263
0.0142327
0.0139823
0.0135726
-0.105766
-0.0931078
-0.0806105
-0.0684884
-0.0569343
-0.046116
-0.0361587
-0.0271565
-0.0191522
-0.0121674
-0.00617182
-0.00113316
0.00302705
0.00637091
0.00899897
0.0109808
0.0124202
0.0133788
0.0139524
0.0141887
0.014168
0.0139265
0.0135249
-0.106103
-0.0934267
-0.0809094
-0.0687671
-0.0571935
-0.0463571
-0.0363834
-0.0273666
-0.0193494
-0.0123529
-0.00634665
-0.00129771
0.00287265
0.0062268
0.00886539
0.010858
0.0123085
0.0132782
0.0138628
0.0141097
0.014099
0.013867
0.0134738
-0.106457
-0.0937636
-0.0812271
-0.0690649
-0.0574719
-0.0466171
-0.0366265
-0.0275944
-0.0195632
-0.0125539
-0.0065355
-0.00147492
0.00270691
0.00607262
0.00872292
0.0107275
0.0121899
0.0131715
0.0137678
0.0140259
0.0140259
0.0138036
0.0134194
-0.106828
-0.0941178
-0.0815629
-0.0693814
-0.0577691
-0.0468958
-0.0368878
-0.0278395
-0.0197933
-0.01277
-0.00673825
-0.00166473
0.00252989
0.0059084
0.00857157
0.0105891
0.0120644
0.0130588
0.0136674
0.0139374
0.0139484
0.0137365
0.0133615
-0.107214
-0.0944886
-0.0819161
-0.0697159
-0.0580846
-0.0471927
-0.0371668
-0.0281017
-0.0200395
-0.0130011
-0.00695478
-0.00186702
0.00234165
0.0057342
0.00841138
0.0104429
0.0119321
0.01294
0.0135617
0.0138442
0.0138668
0.0136656
0.0133002
-0.107614
-0.0948752
-0.0822861
-0.0700678
-0.0584179
-0.0475073
-0.0374633
-0.0283806
-0.0203017
-0.013247
-0.00718493
-0.00208169
0.00214229
0.00555008
0.0082424
0.0102889
0.0117929
0.0128152
0.0134506
0.0137462
0.0137809
0.0135909
0.0132355
-0.108029
-0.0952768
-0.0826722
-0.0704367
-0.0587685
-0.0478394
-0.0377769
-0.0286761
-0.0205795
-0.0135075
-0.00742854
-0.00230858
0.00193192
0.00535613
0.00806469
0.0101272
0.0116468
0.0126843
0.0133342
0.0136434
0.0136907
0.0135123
0.0131674
-0.108456
-0.0956927
-0.0830738
-0.0708219
-0.059136
-0.0481884
-0.0381072
-0.0289877
-0.0208726
-0.0137824
-0.0076854
-0.00254756
0.00171065
0.00515244
0.00787832
0.00995789
0.011494
0.0125474
0.0132124
0.0135359
0.0135963
0.01343
0.0130958
-0.108895
-0.0961223
-0.0834903
-0.0712228
-0.0595197
-0.0485539
-0.0384538
-0.0293152
-0.0211809
-0.0140714
-0.00795532
-0.00279844
0.00147864
0.00493912
0.00768337
0.00978093
0.0113344
0.0124046
0.0130853
0.0134236
0.0134977
0.0133439
0.0130209
-0.109346
-0.0965647
-0.083921
-0.071639
-0.0599193
-0.0489354
-0.0388163
-0.0296582
-0.0215039
-0.0143743
-0.00823805
-0.00306102
0.00123603
0.00471631
0.00747996
0.00959645
0.0111682
0.0122558
0.0129529
0.0133067
0.0133949
0.0132539
0.0129425
-0.109807
-0.0970195
-0.0843653
-0.0720699
-0.0603342
-0.0493325
-0.0391944
-0.0300162
-0.0218413
-0.0146908
-0.00853336
-0.00333511
0.000983024
0.00448415
0.0072682
0.00940454
0.0109953
0.0121011
0.0128153
0.0131851
0.0132878
0.0131602
0.0128607
-0.110278
-0.0974858
-0.0848227
-0.0725148
-0.0607639
-0.0497448
-0.0395875
-0.030389
-0.0221929
-0.0150205
-0.00884096
-0.00362045
0.0007198
0.00424281
0.00704822
0.00920532
0.010816
0.0119407
0.0126726
0.0130588
0.0131766
0.0130628
0.0127755
-0.110759
-0.0979631
-0.0852925
-0.0729733
-0.0612079
-0.0501717
-0.0399953
-0.0307761
-0.0225582
-0.0153632
-0.00916058
-0.00391681
0.000446577
0.00399247
0.00682018
0.00899889
0.0106302
0.0117745
0.0125247
0.012928
0.0130613
0.0129617
0.012687
-0.111248
-0.0984508
-0.0857741
-0.0734447
-0.0616657
-0.0506128
-0.0404173
-0.0311771
-0.0229368
-0.0157184
-0.00949191
-0.00422392
0.000163587
0.00373332
0.00658424
0.00878542
0.0104381
0.0116027
0.0123717
0.0127926
0.0129419
0.0128569
0.0125952
-0.111745
-0.0989482
-0.086267
-0.0739287
-0.0621367
-0.0510675
-0.040853
-0.0315915
-0.0233283
-0.0160859
-0.00983463
-0.00454149
-0.000128925
0.00346558
0.00634059
0.00856503
0.0102398
0.0114254
0.0122139
0.0126529
0.0128186
0.0127486
0.0125002
-0.112249
-0.0994548
-0.0867706
-0.0744245
-0.0626204
-0.0515354
-0.0413019
-0.032019
-0.0237325
-0.0164653
-0.0101884
-0.00486923
-0.000430696
0.00318947
0.00608941
0.00833792
0.0100355
0.0112427
0.0120512
0.0125088
0.0126913
0.0126367
0.012402
-0.112761
-0.09997
-0.0872844
-0.0749317
-0.0631164
-0.052016
-0.0417637
-0.0324591
-0.0241487
-0.0168561
-0.0105529
-0.00520682
-0.000741449
0.00290524
0.00583092
0.00810424
0.00982533
0.0110548
0.0118837
0.0123604
0.0125602
0.0125213
0.0123006
-0.113278
-0.100493
-0.0878077
-0.0754497
-0.063624
-0.0525088
-0.0422377
-0.0329113
-0.0245766
-0.017258
-0.0109277
-0.00555393
-0.00106089
0.00261315
0.00556535
0.00786421
0.00960945
0.0108617
0.0117117
0.0122079
0.0124253
0.0124026
0.0121963
-0.113801
-0.101024
-0.08834
-0.0759779
-0.0641427
-0.0530131
-0.0427235
-0.0333751
-0.0250158
-0.0176705
-0.0113124
-0.00591021
-0.00138871
0.00231347
0.00529293
0.00761803
0.00938804
0.0106636
0.0115352
0.0120514
0.0122869
0.0122806
0.0120889
-0.114328
-0.101561
-0.0888809
-0.0765159
-0.064672
-0.0535286
-0.0432206
-0.0338501
-0.0254658
-0.0180934
-0.0117068
-0.00627535
-0.00172462
0.00200645
0.00501389
0.00736589
0.00916128
0.0104608
0.0113543
0.011891
0.0121449
0.0121555
0.0119787
-0.114861
-0.102106
-0.0894302
-0.0770637
-0.065212
-0.0540551
-0.0437288
-0.0343361
-0.0259264
-0.0185263
-0.0121106
-0.00664915
-0.00206843
0.00169228
0.00472841
0.00710796
0.00892931
0.0102532
0.0111693
0.0117268
0.0119994
0.0120272
0.0118656
-0.115399
-0.102656
-0.0899872
-0.0776202
-0.0657615
-0.0545918
-0.0442474
-0.0348323
-0.0263969
-0.0189686
-0.0125231
-0.00703108
-0.00241968
0.00137135
0.00443681
0.00684452
0.00869237
0.0100412
0.0109802
0.0115589
0.0118507
0.0118959
0.0117499
-0.115936
-0.103208
-0.0905473
-0.0781812
-0.0663166
-0.0551347
-0.0447728
-0.0353356
-0.0268745
-0.0194178
-0.0129424
-0.0074194
-0.00277693
0.00104485
0.00414007
0.00657636
0.00845111
0.00982528
0.0107875
0.0113877
0.0116989
0.0117618
0.0116315
-0.116469
-0.103759
-0.0911076
-0.078744
-0.0668749
-0.0556819
-0.0453032
-0.0358443
-0.0273578
-0.0198728
-0.0133673
-0.00781301
-0.00313915
0.000713718
0.00383904
0.00630425
0.00820619
0.00960596
0.0105917
0.0112137
0.0115445
0.0116253
0.011511
-0.11703
-0.104339
-0.0916989
-0.0793382
-0.067464
-0.0562588
-0.0458615
-0.0363787
-0.0278642
-0.0203482
-0.0138099
-0.00822198
-0.00351444
0.000371572
0.00352879
0.00602445
0.00795489
0.00938132
0.0103914
0.0110359
0.0113869
0.0114862
0.0113881
-0.117675
-0.105005
-0.0923748
-0.0800145
-0.0681313
-0.0569086
-0.0464867
-0.0369735
-0.0284244
-0.020871
-0.0142937
-0.00866623
-0.00391973
4.15861e-06
0.00319742
0.00572713
0.00768913
0.00914484
0.0101815
0.0108503
0.011223
0.0113419
0.0112612
-0.118211
-0.105559
-0.0929421
-0.0805873
-0.0687028
-0.0574722
-0.0470364
-0.0375042
-0.0289318
-0.0213516
-0.0147451
-0.00908679
-0.00430879
-0.000353141
0.0028712
0.0054312
0.00742188
0.00890491
0.00996671
0.0106591
0.011053
0.0111915
0.0111282
-0.105888
-0.0933164
-0.081008
-0.0691688
-0.0579799
-0.0475803
-0.0380766
-0.0295246
-0.0219551
-0.0153508
-0.00968534
-0.00489308
-0.00091586
0.00233475
0.00492575
0.00694935
0.00846761
0.00956426
0.0102919
0.0107193
0.0108901
0.0108567
-0.105733
-0.0933353
-0.0812
-0.0695257
-0.0584874
-0.0482196
-0.0388252
-0.0303588
-0.0228503
-0.0162842
-0.0106351
-0.00584115
-0.001846
0.00143437
0.00406544
0.00613512
0.00770486
0.00885444
0.00963684
0.0101175
0.0103411
0.0103575
-0.105459
-0.0932619
-0.0813238
-0.0698368
-0.0589692
-0.0488509
-0.0395807
-0.0312123
-0.0237746
-0.0172543
-0.0116271
-0.00683534
-0.00282478
0.000484158
0.00315494
0.0052712
0.00689338
0.00809742
0.00893632
0.00947247
0.00975098
0.00981976
-0.105127
-0.0931531
-0.0814332
-0.0701515
-0.0594696
-0.0495124
-0.0403754
-0.0321112
-0.0247484
-0.0182761
-0.0126719
-0.00788216
-0.00385523
-0.000516188
0.00219624
0.00436128
0.00603826
0.00729925
0.00819715
0.00879135
0.00912732
0.00925095
-0.104708
-0.0929838
-0.0815058
-0.0704499
-0.0599707
-0.0501886
-0.0411955
-0.0330437
-0.0257616
-0.0193413
-0.0137624
-0.00897571
-0.00493259
-0.0015629
0.00119221
0.00340749
0.00514096
0.00646087
0.00741981
0.00807427
0.00846991
0.0086507
-0.104194
-0.0927458
-0.0815324
-0.0707219
-0.0604619
-0.0508682
-0.0420297
-0.0339985
-0.0268035
-0.0204396
-0.0148891
-0.0101075
-0.00604935
-0.0026494
0.000148556
0.00241472
0.00420564
0.00558579
0.00660723
0.00732367
0.00778077
0.00802066
-0.10359
-0.0924402
-0.0815115
-0.0709635
-0.0609369
-0.0515435
-0.0428693
-0.0349664
-0.0278644
-0.0215616
-0.016043
-0.011269
-0.00719746
-0.00376829
-0.000928001
0.00138907
0.00323776
0.0046789
0.00576376
0.00654344
0.00706333
0.00736385
-0.102901
-0.0920696
-0.0814422
-0.0711708
-0.0613899
-0.0522068
-0.0437054
-0.0359377
-0.0289344
-0.0226974
-0.0172145
-0.0124511
-0.00836858
-0.00491185
-0.00203042
0.000336911
0.00224308
0.00374537
0.00489404
0.00573768
0.00632126
0.00668353
-0.102137
-0.0916378
-0.0813244
-0.0713409
-0.061815
-0.0528506
-0.044529
-0.0369028
-0.0300039
-0.0238373
-0.0183943
-0.013645
-0.00955433
-0.00607238
-0.00315165
-0.000735352
0.00122737
0.00279039
0.00400269
0.00491054
0.0055582
0.00598292
-0.101307
-0.09115
-0.0811594
-0.0714712
-0.0622075
-0.0534681
-0.0453323
-0.0378531
-0.0310636
-0.0249723
-0.0195735
-0.0148421
-0.0107468
-0.00724254
-0.00428496
-0.00182159
0.000196174
0.00181893
0.0030942
0.00406598
0.00477772
0.00526516
-0.100421
-0.0906117
-0.0809488
-0.0715606
-0.0625635
-0.0540536
-0.0461083
-0.0387808
-0.0321056
-0.0260941
-0.0207441
-0.0160348
-0.0119388
-0.0084156
-0.00542417
-0.00291614
-0.00084536
0.000835655
0.00217274
0.00320776
0.00398314
0.0045332
-0.0994882
-0.0900285
-0.0806946
-0.0716084
-0.0628801
-0.0546027
-0.0468514
-0.0396797
-0.033123
-0.027196
-0.0218993
-0.0172166
-0.013124
-0.00958568
-0.00656379
-0.00401397
-0.00189262
-0.000155267
0.00124208
0.00233926
0.00317748
0.00378974
-0.0985174
-0.0894052
-0.0803992
-0.0716144
-0.0631556
-0.0551121
-0.0475573
-0.0405446
-0.0341105
-0.0282723
-0.0230335
-0.0183819
-0.0142971
-0.0107477
-0.00769909
-0.0051107
-0.0029416
-0.00115017
0.00030555
0.00146347
0.00236344
0.00303718
-0.0975149
-0.088746
-0.0800646
-0.071579
-0.0633887
-0.0555796
-0.0482229
-0.0413719
-0.0350639
-0.0293185
-0.0241421
-0.0195262
-0.0154538
-0.0118976
-0.00882613
-0.00620264
-0.00398886
-0.00214593
-0.000633986
0.000582986
0.00154335
0.0022776
-0.0964859
-0.0880544
-0.0796927
-0.0715028
-0.063579
-0.0560037
-0.048846
-0.0421588
-0.03598
-0.0303314
-0.0252217
-0.020646
-0.0165905
-0.0130317
-0.00994162
-0.00728669
-0.00503152
-0.00313986
-0.00157408
-0.000299972
0.000719225
0.00151281
-0.0954341
-0.087333
-0.0792852
-0.0713865
-0.0637265
-0.0563838
-0.0494254
-0.0429036
-0.0368568
-0.0313084
-0.0262696
-0.0217384
-0.0177044
-0.0141475
-0.0110429
-0.00836028
-0.00606713
-0.00412969
-0.00251263
-0.00118349
-0.000107203
0.000744367
-0.0943621
-0.0865838
-0.0788435
-0.0712312
-0.0638315
-0.0567196
-0.0499604
-0.0436051
-0.0376927
-0.0322478
-0.0272837
-0.0228014
-0.0187932
-0.0152426
-0.0121276
-0.00942125
-0.00709363
-0.0051135
-0.00344783
-0.0020659
-0.000934413
-2.63501e-05
-0.0932722
-0.0858088
-0.0783691
-0.0710377
-0.0638945
-0.0570114
-0.0504506
-0.0442628
-0.0384867
-0.0331483
-0.0282626
-0.0238333
-0.0198552
-0.0163151
-0.013194
-0.0104677
-0.00810923
-0.00608958
-0.0043781
-0.00294574
-0.00176106
-0.000798123
-0.092166
-0.0850093
-0.0778633
-0.0708072
-0.0639164
-0.0572594
-0.0508963
-0.0448763
-0.0392382
-0.034009
-0.0292051
-0.0248326
-0.0208889
-0.0173636
-0.0142404
-0.0114981
-0.00911235
-0.00705641
-0.00530199
-0.00382168
-0.00258591
-0.00156983
-0.0910449
-0.0841869
-0.0773275
-0.0705408
-0.0638981
-0.0574645
-0.0512977
-0.0454457
-0.039947
-0.0348293
-0.0301104
-0.0257984
-0.021893
-0.0183865
-0.0152654
-0.012511
-0.0101016
-0.00801262
-0.00621819
-0.00469247
-0.00340781
-0.00234043
-0.0899106
-0.083343
-0.0767629
-0.0702398
-0.0638407
-0.0576274
-0.0516553
-0.0459712
-0.0406129
-0.0356088
-0.0309778
-0.0267297
-0.0228664
-0.0193828
-0.0162677
-0.013505
-0.0110755
-0.00895689
-0.00712544
-0.00555693
-0.00422566
-0.00310891
-0.0887642
-0.082479
-0.0761711
-0.0699054
-0.0637452
-0.0577489
-0.0519698
-0.046453
-0.041236
-0.0363473
-0.0318067
-0.0276258
-0.0238083
-0.0203513
-0.0172461
-0.0144789
-0.012033
-0.00988799
-0.00802253
-0.00641393
-0.00503839
-0.00387427
-0.0876074
-0.0815964
-0.0755534
-0.069539
-0.0636128
-0.0578302
-0.0522419
-0.0468917
-0.0418164
-0.0370446
-0.0325968
-0.0284861
-0.0247178
-0.0212911
-0.0181995
-0.0154316
-0.0129727
-0.0108047
-0.00890832
-0.00726234
-0.00584495
-0.00463554
-0.0864416
-0.0806967
-0.0749113
-0.0691421
-0.063445
-0.0578723
-0.0524725
-0.0472879
-0.0423545
-0.0377007
-0.0333479
-0.02931
-0.0255942
-0.0222013
-0.019127
-0.0163619
-0.0138937
-0.011706
-0.00978166
-0.00810108
-0.0066443
-0.00539175
-0.0852682
-0.0797815
-0.0742465
-0.0687162
-0.063243
-0.0578764
-0.0526626
-0.0476423
-0.0428506
-0.0383159
-0.0340598
-0.0300973
-0.0264369
-0.0230812
-0.0200277
-0.0172689
-0.0147948
-0.0125906
-0.0106415
-0.00892908
-0.00743539
-0.00614192
-0.0840889
-0.0788524
-0.0735606
-0.0682628
-0.0630083
-0.0578438
-0.0528132
-0.0479557
-0.0433054
-0.0388904
-0.0347325
-0.0308476
-0.0272454
-0.02393
-0.0209006
-0.0181517
-0.0156749
-0.0134576
-0.0114866
-0.00974528
-0.00821723
-0.00688509
-0.0829052
-0.077911
-0.0728552
-0.0677836
-0.0627424
-0.0577759
-0.0529255
-0.0482291
-0.0437195
-0.0394245
-0.0353661
-0.0315608
-0.0280194
-0.0247471
-0.0217451
-0.0190092
-0.0165332
-0.014306
-0.0123162
-0.0105486
-0.00898878
-0.00762028
-0.0817188
-0.0769591
-0.072132
-0.0672802
-0.062447
-0.057674
-0.0530008
-0.0484633
-0.0440936
-0.0399187
-0.0359609
-0.0322369
-0.0287585
-0.0255322
-0.0225604
-0.0198409
-0.0173687
-0.0151347
-0.0131291
-0.0113382
-0.00974908
-0.00834655
-0.0805313
-0.0759984
-0.0713928
-0.0667544
-0.0621237
-0.0575399
-0.0530404
-0.0486597
-0.0444286
-0.0403737
-0.0365171
-0.0328759
-0.0294625
-0.0262847
-0.0233461
-0.0206458
-0.0181807
-0.0159428
-0.0139244
-0.0121129
-0.0104971
-0.00906294
-0.0793446
-0.0750307
-0.0706393
-0.0662079
-0.0617742
-0.057375
-0.0530457
-0.0488193
-0.0447255
-0.0407902
-0.0370352
-0.033478
-0.0301315
-0.0270045
-0.0241017
-0.0214235
-0.0189683
-0.0167296
-0.0147012
-0.0128719
-0.011232
-0.00976852
-0.0781603
-0.0740577
-0.0698736
-0.0656427
-0.0614002
-0.0571809
-0.0530183
-0.0489435
-0.0449853
-0.0411689
-0.0375157
-0.0340434
-0.0307655
-0.0276912
-0.0248267
-0.0221733
-0.0197308
-0.0174942
-0.0154586
-0.0136142
-0.0119528
-0.0104624
-0.0769803
-0.0730814
-0.0690974
-0.0650605
-0.0610037
-0.0569595
-0.0529596
-0.0490337
-0.0452092
-0.0415107
-0.0379593
-0.0345726
-0.0313645
-0.028345
-0.0255208
-0.0228948
-0.0204677
-0.0182359
-0.0161958
-0.0143391
-0.0126586
-0.0111436
-0.0758064
-0.0721037
-0.0683127
-0.0644634
-0.0605865
-0.0567126
-0.0528714
-0.0490913
-0.0453985
-0.0418168
-0.0383668
-0.0350661
-0.0319289
-0.0289656
-0.026184
-0.0235876
-0.0211784
-0.0189541
-0.0169122
-0.0150456
-0.0133485
-0.0118113
-0.0746405
-0.0711265
-0.0675215
-0.0638533
-0.0601506
-0.0564419
-0.0527554
-0.0491178
-0.0455545
-0.0420881
-0.038739
-0.0355246
-0.032459
-0.0295534
-0.026816
-0.0242514
-0.0218625
-0.0196481
-0.0176069
-0.0157329
-0.0140218
-0.0124646
-0.0734845
-0.0701519
-0.0667259
-0.0632323
-0.0596979
-0.0561494
-0.0526133
-0.049115
-0.0456786
-0.042326
-0.0390769
-0.0359486
-0.0329553
-0.0301085
-0.0274169
-0.024886
-0.0225196
-0.0203174
-0.0182793
-0.0164005
-0.0146775
-0.0131028
-0.0723404
-0.0691818
-0.0659278
-0.0626024
-0.0592305
-0.0558371
-0.0524471
-0.0490846
-0.0457723
-0.0425316
-0.0393815
-0.036339
-0.0334183
-0.0306312
-0.0279868
-0.0254913
-0.0231494
-0.0209616
-0.018929
-0.0170475
-0.0153151
-0.0137249
-0.0122719
-0.0712101
-0.0682183
-0.0651294
-0.0619658
-0.0587505
-0.055507
-0.0522587
-0.0490282
-0.0458373
-0.0427064
-0.039654
-0.0366967
-0.0338487
-0.0311219
-0.0285259
-0.0260673
-0.0237517
-0.0215804
-0.0195552
-0.0176734
-0.0159337
-0.0143302
-0.0128591
-0.0700958
-0.0672635
-0.0643329
-0.0613246
-0.0582601
-0.0551612
-0.05205
-0.0489477
-0.0458752
-0.0428519
-0.0398956
-0.0370227
-0.0342472
-0.0315811
-0.0290343
-0.0266141
-0.0243262
-0.0221733
-0.0201577
-0.0182776
-0.0165326
-0.0149181
-0.0134307
-0.0689996
-0.0663197
-0.0635405
-0.0606811
-0.0577615
-0.0548019
-0.0518231
-0.0488451
-0.0458877
-0.0429695
-0.0401077
-0.0373181
-0.0346148
-0.0320095
-0.0295126
-0.0271317
-0.0248731
-0.0227401
-0.0207359
-0.0188595
-0.0171114
-0.0154877
-0.0139861
-0.0679235
-0.065389
-0.0627545
-0.0600376
-0.0572568
-0.0544312
-0.0515801
-0.0487224
-0.0458767
-0.0430609
-0.0402916
-0.0375841
-0.0349522
-0.0324078
-0.0299611
-0.0276204
-0.0253923
-0.0232807
-0.0212895
-0.0194187
-0.0176693
-0.0160383
-0.0145244
-0.0668698
-0.0644737
-0.0619771
-0.0593963
-0.0567485
-0.0540515
-0.0513232
-0.0485815
-0.0458441
-0.0431278
-0.0404488
-0.0378219
-0.0352605
-0.0327766
-0.0303804
-0.0280804
-0.0258838
-0.023795
-0.0218184
-0.0199547
-0.0182058
-0.0165694
-0.015045
-0.0658407
-0.063576
-0.0612107
-0.0587597
-0.0562389
-0.0536649
-0.0510545
-0.0484246
-0.0457917
-0.043172
-0.0405809
-0.0380328
-0.0355409
-0.0331168
-0.0307711
-0.0285123
-0.0263479
-0.0242829
-0.0223221
-0.0204672
-0.0187203
-0.0170803
-0.0155471
-0.0648385
-0.0626985
-0.0604577
-0.0581301
-0.0557304
-0.053274
-0.0507765
-0.0482538
-0.0457216
-0.0431953
-0.0406895
-0.0382183
-0.0357944
-0.0334294
-0.0311338
-0.0289163
-0.0267847
-0.0247444
-0.0228007
-0.0209557
-0.0192125
-0.0175704
-0.01603
-0.0638656
-0.0618434
-0.0597206
-0.0575101
-0.0552255
-0.052881
-0.0504913
-0.0480713
-0.0456359
-0.0431995
-0.0407763
-0.0383798
-0.0360223
-0.0337154
-0.0314694
-0.0292931
-0.0271945
-0.0251796
-0.0232538
-0.0214201
-0.0196818
-0.0180391
-0.0164931
-0.0629244
-0.0610133
-0.0590019
-0.0569022
-0.0547266
-0.0524884
-0.0502014
-0.0478795
-0.0455366
-0.0431866
-0.0408431
-0.0385188
-0.0362259
-0.0339757
-0.0317785
-0.0296431
-0.0275778
-0.0255886
-0.0236816
-0.02186
-0.0201279
-0.0184858
-0.0169356
-0.0620175
-0.0602107
-0.0583042
-0.0563089
-0.0542364
-0.0520989
-0.0499093
-0.0476806
-0.045426
-0.0431587
-0.0408915
-0.0386369
-0.0364066
-0.0342116
-0.0320621
-0.0299671
-0.0279347
-0.0259715
-0.0240838
-0.0222752
-0.0205502
-0.0189101
-0.017357
-0.0611473
-0.0594383
-0.0576302
-0.055733
-0.0537575
-0.0517149
-0.0496174
-0.047477
-0.0453063
-0.0431178
-0.0409236
-0.0387358
-0.0365657
-0.0344241
-0.0323211
-0.0302656
-0.0282659
-0.0263287
-0.0244605
-0.0226656
-0.0209486
-0.0193113
-0.0177566
-0.0603166
-0.0586987
-0.0569826
-0.0551772
-0.0532925
-0.0513391
-0.0493282
-0.0472712
-0.0451798
-0.0430659
-0.0409411
-0.038817
-0.0367047
-0.0346145
-0.0325564
-0.0305393
-0.0285716
-0.0266602
-0.0248118
-0.0230308
-0.0213225
-0.019689
-0.0181337
-0.0595281
-0.0579949
-0.0563641
-0.0546442
-0.0528443
-0.0509743
-0.0490444
-0.0470655
-0.0450487
-0.0430052
-0.0409461
-0.0388825
-0.036825
-0.034784
-0.032769
-0.0307891
-0.0288525
-0.0269664
-0.0251375
-0.0233708
-0.0216717
-0.0200427
-0.0184876
-0.0587848
-0.0573296
-0.0557778
-0.054137
-0.0524157
-0.050623
-0.0487686
-0.0468626
-0.0449155
-0.0429378
-0.0409404
-0.0389337
-0.0369282
-0.0349338
-0.03296
-0.0310156
-0.029109
-0.0272474
-0.0254378
-0.0236854
-0.0219957
-0.0203718
-0.0188177
-0.0580895
-0.056706
-0.0552267
-0.0536586
-0.0520096
-0.0502882
-0.0485035
-0.0466649
-0.0447824
-0.0428661
-0.0409261
-0.0389726
-0.0370157
-0.0350651
-0.0331301
-0.0312195
-0.0293416
-0.0275036
-0.0257127
-0.0239743
-0.0222941
-0.0206757
-0.0191232
-0.0574457
-0.0561272
-0.0547137
-0.0532119
-0.051629
-0.0499728
-0.0482519
-0.0464751
-0.044652
-0.0427921
-0.0409051
-0.0390009
-0.0370891
-0.0351793
-0.0332806
-0.0314016
-0.0295507
-0.0277351
-0.0259621
-0.0242372
-0.0225665
-0.0209538
-0.0194035
-0.0568564
-0.0555964
-0.0542424
-0.0528003
-0.0512769
-0.0496796
-0.0480165
-0.0462958
-0.0445266
-0.042718
-0.0408794
-0.0390202
-0.0371498
-0.0352774
-0.0334122
-0.0315625
-0.0297367
-0.027942
-0.0261859
-0.024474
-0.0228125
-0.0212055
-0.0196576
-0.0563254
-0.0551172
-0.0538159
-0.0524269
-0.0509566
-0.0494118
-0.0478002
-0.0461296
-0.0444087
-0.0426461
-0.0408509
-0.0390322
-0.0371992
-0.0353608
-0.0335258
-0.0317028
-0.0298999
-0.0281245
-0.026384
-0.0246842
-0.0230314
-0.0214299
-0.0198847
-0.0558564
-0.0546934
-0.0534379
-0.0520952
-0.0506712
-0.0491724
-0.0476058
-0.0459793
-0.0443007
-0.0425786
-0.0408217
-0.0390387
-0.0372387
-0.0354303
-0.0336223
-0.031823
-0.0300407
-0.0282826
-0.0265561
-0.0248673
-0.0232225
-0.0216263
-0.0200837
-0.0554534
-0.0543286
-0.0531122
-0.0518089
-0.0504242
-0.0489645
-0.0474365
-0.0458474
-0.044205
-0.0425176
-0.0407934
-0.0390412
-0.0372695
-0.035487
-0.0337023
-0.0319236
-0.030159
-0.028416
-0.0267019
-0.0250228
-0.0233851
-0.0217937
-0.0202535
-0.0551207
-0.0540272
-0.0528426
-0.0515715
-0.0502192
-0.0487915
-0.047295
-0.0457366
-0.0441241
-0.0424651
-0.040768
-0.039041
-0.0372927
-0.0355317
-0.0337662
-0.0320046
-0.0302549
-0.0285245
-0.0268207
-0.0251497
-0.0235182
-0.0219308
-0.0203929
-0.0548631
-0.0537936
-0.0526335
-0.0513871
-0.0500596
-0.0486565
-0.0471843
-0.0456498
-0.0440601
-0.0424232
-0.0407469
-0.0390395
-0.0373094
-0.0355649
-0.0338145
-0.0320662
-0.0303281
-0.0286074
-0.0269117
-0.0252473
-0.0236205
-0.0220364
-0.0205004
-0.0546856
-0.0536326
-0.0524892
-0.0512598
-0.0499493
-0.0485631
-0.0471076
-0.0455893
-0.0440155
-0.0423936
-0.0407317
-0.0390378
-0.0373202
-0.0355872
-0.0338471
-0.032108
-0.0303779
-0.0286641
-0.026974
-0.025314
-0.0236906
-0.0221088
-0.0205741
-0.0545939
-0.0535493
-0.0524145
-0.0511939
-0.0498921
-0.0485147
-0.0470677
-0.0455579
-0.0439922
-0.0423782
-0.0407237
-0.0390367
-0.0373256
-0.0355985
-0.0338638
-0.0321294
-0.0304034
-0.0286932
-0.027006
-0.0253484
-0.0237268
-0.0221462
-0.0206122
-0.0555363
-0.0545862
-0.0535426
-0.0524089
-0.0511892
-0.0498885
-0.048512
-0.0470659
-0.0455569
-0.0439919
-0.0423784
-0.0407244
-0.0390378
-0.037327
-0.0356
-0.0338654
-0.032131
-0.0304049
-0.0286945
-0.0270072
-0.0253494
-0.0237276
-0.0221469
-0.0556362
-0.054678
-0.0536259
-0.0524836
-0.0512552
-0.0499457
-0.0485605
-0.0471059
-0.0455884
-0.0440153
-0.042394
-0.0407326
-0.039039
-0.0373217
-0.0355888
-0.0338488
-0.0321096
-0.0303793
-0.0286654
-0.0269751
-0.025315
-0.0236914
-0.0221095
-0.0558295
-0.0548554
-0.053787
-0.0526279
-0.0513826
-0.0500561
-0.0486541
-0.0471828
-0.0456491
-0.0440602
-0.0424238
-0.040748
-0.039041
-0.0373111
-0.0355667
-0.0338163
-0.0320679
-0.0303296
-0.0286088
-0.0269129
-0.0252482
-0.0236213
-0.0220371
-0.0561103
-0.0551129
-0.0540206
-0.0528371
-0.0515671
-0.0502159
-0.0487893
-0.0472937
-0.0457363
-0.0441245
-0.0424661
-0.0407694
-0.0390428
-0.0372947
-0.0355337
-0.0337682
-0.0320065
-0.0302565
-0.0285258
-0.0268218
-0.0251507
-0.0235189
-0.0219314
-0.0564732
-0.0554455
-0.0543219
-0.0531067
-0.0518047
-0.0504213
-0.0489627
-0.0474356
-0.0458475
-0.0442059
-0.0425191
-0.0407953
-0.0390434
-0.0372718
-0.0354893
-0.0337045
-0.0319256
-0.0301607
-0.0284174
-0.026703
-0.0250236
-0.0233858
-0.0217941
-0.0569132
-0.0558483
-0.0546866
-0.0534326
-0.0520913
-0.0506686
-0.049171
-0.0476056
-0.0459799
-0.0443022
-0.0425807
-0.0408242
-0.0390415
-0.0372415
-0.035433
-0.0336248
-0.0318252
-0.0300425
-0.028284
-0.0265572
-0.0248681
-0.0232231
-0.0216266
-0.0574259
-0.0563172
-0.0551105
-0.0538107
-0.0524232
-0.0509543
-0.0494109
-0.0478005
-0.046131
-0.0444109
-0.042649
-0.0408542
-0.0390356
-0.0372025
-0.0353639
-0.0335287
-0.0317052
-0.0299019
-0.028126
-0.026385
-0.0246848
-0.0230317
-0.02143
-0.0580071
-0.056848
-0.0555897
-0.0542374
-0.052797
-0.0512752
-0.0496794
-0.0480176
-0.0462981
-0.0445297
-0.0427217
-0.0408834
-0.0390243
-0.0371538
-0.0352812
-0.0334154
-0.0315652
-0.0297388
-0.0279435
-0.0261868
-0.0244745
-0.0228126
-0.0212054
-0.058653
-0.057437
-0.0561204
-0.054709
-0.0532091
-0.051628
-0.0499734
-0.0482539
-0.0464784
-0.0446562
-0.0427968
-0.0409101
-0.0390059
-0.0370939
-0.0351836
-0.0332843
-0.0314046
-0.0295529
-0.0277366
-0.0259629
-0.0242375
-0.0225664
-0.0209534
-0.05936
-0.0580807
-0.0566993
-0.0552222
-0.0536563
-0.0520094
-0.0502898
-0.0485067
-0.0466694
-0.0447879
-0.0428721
-0.0409323
-0.0389787
-0.0370214
-0.0350702
-0.0331344
-0.0312228
-0.0293439
-0.0275051
-0.0257134
-0.0239743
-0.0222936
-0.0206749
-0.0601247
-0.0587756
-0.057323
-0.0557737
-0.0541354
-0.0524164
-0.0506258
-0.0487732
-0.0468685
-0.0449224
-0.0429453
-0.040948
-0.038941
-0.0369349
-0.0349396
-0.0329647
-0.0310192
-0.0291115
-0.0272488
-0.0254383
-0.023685
-0.0219948
-0.0203706
-0.060944
-0.0595187
-0.0579883
-0.0563605
-0.0546434
-0.0528462
-0.0509784
-0.0490505
-0.0470731
-0.0450573
-0.0430143
-0.0409552
-0.0388911
-0.0368328
-0.0347906
-0.0327744
-0.030793
-0.0288551
-0.0269676
-0.0251376
-0.0233701
-0.0216703
-0.020041
-0.0618148
-0.0603068
-0.0586923
-0.0569795
-0.0551774
-0.0532957
-0.051345
-0.0493362
-0.0472808
-0.0451904
-0.0430769
-0.040952
-0.0388272
-0.0367137
-0.0346221
-0.0325624
-0.0305436
-0.0285742
-0.0266612
-0.0248114
-0.0230295
-0.0213205
-0.0196867
-0.0627343
-0.0611372
-0.0594321
-0.0576279
-0.0557344
-0.0537623
-0.0517227
-0.0496275
-0.0474889
-0.0453193
-0.043131
-0.0409365
-0.0387477
-0.0365761
-0.0344327
-0.0323277
-0.03027
-0.0282683
-0.0263293
-0.0244597
-0.0226636
-0.0209459
-0.0193083
-0.0636999
-0.062007
-0.0602047
-0.0583028
-0.0563117
-0.0542431
-0.052109
-0.049922
-0.0476951
-0.0454416
-0.0431745
-0.0409067
-0.0386507
-0.0364185
-0.0342213
-0.0320693
-0.0299718
-0.027937
-0.0259717
-0.0240823
-0.0222724
-0.0205466
-0.0189061
-0.0647087
-0.0629136
-0.0610077
-0.0590015
-0.0569066
-0.0547355
-0.0525012
-0.0502171
-0.0478971
-0.0455552
-0.0432053
-0.0408608
-0.0385348
-0.0362395
-0.0339866
-0.0317863
-0.029648
-0.0275798
-0.0255882
-0.0236792
-0.0218562
-0.0201232
-0.0184809
-0.0657584
-0.0638545
-0.0618382
-0.0597215
-0.0575166
-0.055237
-0.0528968
-0.0505104
-0.0480925
-0.045658
-0.0432214
-0.0407969
-0.0383981
-0.0360377
-0.0337274
-0.0314778
-0.029298
-0.0271962
-0.0251784
-0.0232504
-0.0214151
-0.019676
-0.018033
-0.0668466
-0.064827
-0.0626939
-0.0604601
-0.0581389
-0.055745
-0.0532934
-0.0507995
-0.048279
-0.0457477
-0.0432208
-0.0407133
-0.0382393
-0.0358118
-0.0334427
-0.0311429
-0.0289212
-0.0267858
-0.0247422
-0.022796
-0.0209494
-0.0192053
-0.0175631
-0.0679707
-0.0658287
-0.0635722
-0.0612148
-0.0587713
-0.0562571
-0.0536885
-0.0510821
-0.0484544
-0.0458223
-0.0432017
-0.0406083