/*--------------------------------*- C++ -*----------------------------------*\
  =========                 |
  \\      /  F ield         | OpenFOAM: The Open Source CFD Toolbox
   \\    /   O peration     | Website:  https://openfoam.org
    \\  /    A nd           | Version:  7
     \\/     M anipulation  |
\*---------------------------------------------------------------------------*/
FoamFile
{
    version     2.0;
    format      ascii;
    class       surfaceScalarField;
    location    "40";
    object      phi;
}
// * * * * * * * * * * * * * * * * * * * * * * * * * * * * * * * * * * * * * //

dimensions      [0 3 -1 0 0 0 0];

internalField   nonuniform List<scalar> 
8924
(
-0.000291537
-0.000104257
6.10775e-05
-0.00024401
-0.000118118
7.05911e-05
-0.000192458
-0.000126811
7.52586e-05
-0.000137296
-0.00012968
7.45185e-05
-7.90143e-05
-0.000126598
6.83165e-05
-1.8161e-05
-0.000117966
5.71123e-05
4.46837e-05
-0.000104675
4.18303e-05
0.000108926
-8.79744e-05
2.37321e-05
0.000173985
-6.93748e-05
4.31598e-06
0.000239304
-5.04654e-05
-1.48541e-05
0.000304372
-3.27742e-05
-3.22936e-05
0.000368734
-1.7631e-05
-4.67309e-05
0.000431985
-6.04646e-06
-5.72043e-05
0.000493801
1.31593e-06
-6.3132e-05
0.000553893
4.24143e-06
-6.43333e-05
0.000612065
2.8411e-06
-6.10134e-05
0.000668133
-2.34443e-06
-5.37231e-05
0.00072201
-1.05987e-05
-4.32787e-05
0.000773589
-2.0889e-05
-3.06901e-05
0.000822881
-3.22535e-05
-1.70385e-05
0.00086982
-4.35127e-05
-3.42579e-06
0.000914504
-5.38563e-05
9.17139e-06
0.000956881
-6.22691e-05
1.9893e-05
-6.83844e-05
2.8141e-05
-0.000287933
-0.000147405
-0.000240473
-0.000165578
-0.000189022
-0.000178262
-0.000133992
-0.000184711
-7.58635e-05
-0.000184726
-1.51774e-05
-0.000178652
4.74968e-05
-0.000167349
0.000111575
-0.000152052
0.000176484
-0.000134284
0.000241676
-0.000115657
0.000306641
-9.77395e-05
0.000370927
-8.19169e-05
0.000434127
-6.92465e-05
0.000495913
-6.04705e-05
0.000555991
-5.58368e-05
0.000614159
-5.53263e-05
0.000670223
-5.84089e-05
0.000724093
-6.44679e-05
0.000775653
-7.24493e-05
0.000824911
-8.15114e-05
0.000871797
-9.03993e-05
0.000916412
-9.84706e-05
0.0009587
-0.000104557
-0.000108524
-0.000281031
-0.000190541
-0.000233633
-0.000212976
-0.000182292
-0.000229602
-0.000127415
-0.000239588
-6.94755e-05
-0.000242665
-9.00457e-06
-0.000239123
5.34387e-05
-0.000229792
0.000117281
-0.000215895
0.000181959
-0.000198962
0.000246932
-0.00018063
0.000311698
-0.000162505
0.000375805
-0.000146024
0.000438847
-0.000132289
0.000500494
-0.000122118
0.000560448
-0.00011579
0.000618499
-0.000113377
0.000674449
-0.00011436
0.000728201
-0.00011822
0.000779636
-0.000123884
0.000828756
-0.000130631
0.000875491
-0.000137134
0.000919939
-0.000142918
0.000962046
-0.000146665
-0.000148473
-0.00027089
-0.000233681
-0.000223549
-0.000260316
-0.000172327
-0.000280825
-0.000117623
-0.000294292
-5.99075e-05
-0.000300381
3.01482e-07
-0.000299332
6.24546e-05
-0.000291946
0.000125991
-0.000279431
0.000190359
-0.00026333
0.000255025
-0.000245297
0.000319495
-0.000226975
0.000383322
-0.000209851
0.000446101
-0.000195068
0.000507501
-0.000183517
0.00056722
-0.000175509
0.000625044
-0.000171202
0.000680772
-0.000170087
0.000734299
-0.000171747
0.000785503
-0.000175088
0.000834384
-0.000179512
0.000880869
-0.000183619
0.000925055
-0.000187105
0.000966893
-0.000188503
-0.000188143
-0.000257595
-0.000276841
-0.000210309
-0.000307603
-0.000159213
-0.000331921
-0.000104705
-0.000348799
-4.72458e-05
-0.000357841
1.26551e-05
-0.000359233
7.44616e-05
-0.000353752
0.000137624
-0.000342594
0.000201604
-0.000327309
0.000265878
-0.000309571
0.000329959
-0.000291057
0.000393408
-0.000273299
0.000455821
-0.000257481
0.000516867
-0.000244564
0.000576244
-0.000234886
0.000633734
-0.000228692
0.000689133
-0.000225485
0.00074233
-0.000224945
0.000793202
-0.00022596
0.000841744
-0.000228054
0.000887884
-0.000229759
0.000931718
-0.000230939
0.000973198
-0.000229983
-0.000227454
-0.000241257
-0.000320032
-0.000194023
-0.000354837
-0.000143063
-0.00038288
-8.87724e-05
-0.00040309
-3.16029e-05
-0.00041501
2.79458e-05
-0.000418781
8.93501e-05
-0.000415156
0.000152074
-0.000405317
0.00021559
-0.000390825
0.000279389
-0.00037337
0.000342992
-0.00035466
0.000405966
-0.000336274
0.000467914
-0.000319429
0.000528505
-0.000305155
0.000587437
-0.000293817
0.00064449
-0.000285745
0.000699455
-0.000280451
0.000752223
-0.000277712
0.000802664
-0.000276401
0.000850772
-0.000276162
0.000896476
-0.000275462
0.000939871
-0.000274333
0.000980911
-0.000271024
-0.000266325
-0.000222008
-0.000363265
-0.000174827
-0.000402018
-0.000124016
-0.000433692
-6.99635e-05
-0.000457142
-1.31162e-05
-0.000471857
4.60372e-05
-0.000477935
0.000106986
-0.000476105
0.000169208
-0.000467539
0.00023219
-0.000453807
0.000295434
-0.000436614
0.000358474
-0.0004177
0.000420883
-0.000398683
0.00048227
-0.000380816
0.000542309
-0.000365193
0.000600696
-0.000352204
0.000657212
-0.000342261
0.000711648
-0.000334887
0.000763889
-0.000329953
0.000813806
-0.000326319
0.000861391
-0.000323747
0.000906573
-0.000320644
0.000949445
-0.000317206
0.000989968
-0.000311546
-0.000304683
-0.000200003
-0.000406544
-0.000152879
-0.000449142
-0.000102228
-0.000484342
-4.84379e-05
-0.000510933
8.05506e-06
-0.00052835
6.6771e-05
-0.000536651
0.000127213
-0.000536548
0.000188874
-0.000529199
0.000251253
-0.000516187
0.000313868
-0.000499229
0.000376264
-0.000480095
0.000438022
-0.000460441
0.000498759
-0.000441553
0.000558153
-0.000424586
0.000615903
-0.000409955
0.000671789
-0.000398148
0.000725603
-0.000388701
0.000777227
-0.000381577
0.000826533
-0.000375625
0.00087351
-0.000370725
0.000918089
-0.000365222
0.000960363
-0.00035948
0.00100029
-0.000351478
-0.000342459
-0.000175413
-0.000449871
-0.000128353
-0.000496201
-7.78792e-05
-0.000534816
-2.4374e-05
-0.000564438
3.17314e-05
-0.000584456
8.99699e-05
-0.000594889
0.000149857
-0.000596435
0.000210899
-0.000590242
0.000272613
-0.000577901
0.000334528
-0.000561144
0.000396203
-0.00054177
0.00045723
-0.000521468
0.000517234
-0.000501557
0.000575896
-0.000483248
0.000632922
-0.00046698
0.000688092
-0.000453318
0.000741198
-0.000441806
0.000792122
-0.000432501
0.000840736
-0.000424239
0.000887028
-0.000417017
0.000930929
-0.000409123
0.000972534
-0.000401085
0.00101181
-0.000390752
-0.000379589
-0.000148425
-0.000101441
-0.000543186
-5.1161e-05
-0.000585096
2.03816e-06
-0.000617637
5.77192e-05
-0.000640137
0.00011544
-0.00065261
0.000174726
-0.00065572
0.000235096
-0.000650612
0.000296084
-0.000638889
0.000357235
-0.000622295
0.000418119
-0.000602654
0.00047834
-0.00058169
0.000537534
-0.000560751
0.000595386
-0.000541101
0.000651608
-0.000523202
0.000705981
-0.000507691
0.0007583
-0.000494126
0.000808448
-0.000482648
0.000856296
-0.000472086
0.000901831
-0.000462553
0.000944989
-0.00045228
0.000985861
-0.000441957
0.00102442
-0.000429308
-0.000416017
-7.23435e-05
-0.000590081
-2.2279e-05
-0.00063516
3.05771e-05
-0.000670493
8.58105e-05
-0.00069537
0.000142975
-0.000709775
0.000201614
-0.000714359
0.000261264
-0.000710262
0.000321471
-0.000699096
0.000381796
-0.00068262
0.000441825
-0.000662682
0.000501173
-0.000641039
0.000559485
-0.000619063
0.000616456
-0.000598071
0.000671801
-0.000578547
0.000725306
-0.000561196
0.000776768
-0.000545587
0.000826069
-0.00053195
0.000873085
-0.000519102
0.000917802
-0.00050727
0.000960155
-0.000494633
0.00100024
-0.00048204
0.00103802
-0.000467095
-0.000451693
-4.12739e-05
-0.000636867
8.55314e-06
-0.000684987
6.10403e-05
-0.00072298
0.000115788
-0.000750118
0.000172359
-0.000766346
0.000230309
-0.000772309
0.00028919
-0.000769143
0.000348565
-0.000758471
0.000408011
-0.000742065
0.000467126
-0.000721798
0.00052554
-0.000699452
0.000582907
-0.000676431
0.000638931
-0.000654095
0.000693335
-0.000632951
0.000745907
-0.000613768
0.000796449
-0.000596129
0.000844844
-0.000580345
0.000890969
-0.000565227
0.000934811
-0.000551112
0.000976309
-0.000536131
0.00101555
-0.000521285
0.00105252
-0.000504066
-0.000486575
-8.44574e-06
-0.000683525
4.11073e-05
-0.00073454
9.32001e-05
-0.000775073
0.000147429
-0.000804346
0.000203368
-0.000822286
0.000260589
-0.00082953
0.000318658
-0.000827211
0.000377155
-0.000816968
0.00043567
-0.00080058
0.00049382
-0.000779947
0.000551244
-0.000756877
0.000607612
-0.000732798
0.000662632
-0.000709115
0.000716037
-0.000686357
0.000767621
-0.000665352
0.000817187
-0.000645696
0.000864623
-0.000627781
0.000909808
-0.000610412
0.000952728
-0.000594032
0.000993325
-0.000576728
0.00103169
-0.000559652
0.00106781
-0.000540183
-0.000520628
2.59075e-05
-0.000730016
7.51665e-05
-0.000783799
0.00012683
-0.000826737
0.000180505
-0.000858021
0.000235777
-0.000877558
0.00029223
-0.000885983
0.000349446
-0.000884428
0.000407022
-0.000874543
0.000464563
-0.000858121
0.0005217
-0.000837084
0.000578088
-0.000813265
0.000633406
-0.000788116
0.000687373
-0.000763083
0.000739732
-0.000738715
0.000790278
-0.000715898
0.000838823
-0.000694241
0.000885255
-0.000674213
0.000929457
-0.000654613
0.000971416
-0.000635992
0.00101108
-0.000616389
0.00104853
-0.000597106
0.00108376
-0.000575416
-0.000553823
6.15741e-05
-0.000776312
0.000110504
-0.000832729
0.000161704
-0.000877937
0.000214789
-0.000911106
0.000269357
-0.000932127
0.000325006
-0.000941632
0.000381332
-0.000940754
0.000437948
-0.000931158
0.000494475
-0.000914648
0.000550559
-0.000893168
0.000605869
-0.000868575
0.000660096
-0.000842343
0.000712969
-0.000815957
0.000764239
-0.000789984
0.000813708
-0.000765367
0.000861194
-0.000741727
0.000906586
-0.000719605
0.000949771
-0.000697799
0.000990738
-0.000676959
0.00102943
-0.000655085
0.00106595
-0.000633622
0.00110028
-0.000609741
-0.000586139
9.83326e-05
-0.000822382
0.000146895
-0.000881292
0.000197595
-0.000928636
0.000250055
-0.000963566
0.000303884
-0.000985956
0.000358694
-0.000996442
0.000414095
-0.000996155
0.000469716
-0.000986779
0.000525194
-0.000970127
0.000580191
-0.000948165
0.000634388
-0.000922772
0.000687489
-0.000895445
0.000739234
-0.000867702
0.000789382
-0.000840132
0.000837742
-0.000813727
0.000884137
-0.000788122
0.00092846
-0.000763928
0.000970603
-0.000739942
0.00101056
-0.000716911
0.00104827
-0.000692796
0.00108383
-0.000669182
0.00111723
-0.000643144
-0.000617564
0.000135966
-0.000868183
0.000184123
-0.000929448
0.000234284
-0.000978797
0.000286081
-0.00101536
0.000339137
-0.00103901
0.000393073
-0.00105038
0.000447518
-0.0010506
0.000502113
-0.00104137
0.000556513
-0.00102453
0.000610392
-0.00100204
0.000663447
-0.000975826
0.000715395
-0.000947392
0.000765984
-0.000918291
0.000814984
-0.000889132
0.00086221
-0.000860953
0.000907492
-0.000833404
0.000950727
-0.000807163
0.000991809
-0.000781024
0.00103073
-0.000755831
0.00106744
-0.000729508
0.00110203
-0.000703775
0.00113451
-0.000675615
-0.00064809
0.000174264
-0.000913672
0.000221972
-0.000977156
0.000271554
-0.00102838
0.000322653
-0.00106646
0.0003749
-0.00109126
0.000427932
-0.00110341
0.00048139
-0.00110406
0.000534932
-0.00109492
0.000588227
-0.00107782
0.000640966
-0.00105478
0.000692856
-0.00102772
0.000743628
-0.000998165
0.000793042
-0.000967704
0.000840874
-0.000936965
0.000886949
-0.000907027
0.000931103
-0.000877558
0.000973235
-0.000849295
0.00101325
-0.000821035
0.00105113
-0.000793712
0.00108683
-0.000765216
0.00112046
-0.000737397
0.00115199
-0.000707152
-0.000677716
0.000213023
-0.0009588
0.000260237
-0.00102437
0.000309199
-0.00107734
0.000359561
-0.00111682
0.000410965
-0.00114266
0.000463062
-0.00115551
0.000515507
-0.0011565
0.000567973
-0.00114738
0.000620142
-0.00112999
0.000671721
-0.00110636
0.000722429
-0.00107842
0.00077201
-0.00104775
0.000820233
-0.00101593
0.000866886
-0.000983618
0.000911799
-0.00095194
0.000954816
-0.000920574
0.000995839
-0.000890319
0.00103477
-0.00085997
0.00107161
-0.000830551
0.00110632
-0.000799919
0.00113897
-0.00077005
0.00116958
-0.000737761
-0.00070645
0.000252046
-0.00100352
0.00029872
-0.00107104
0.00034702
-0.00112564
0.000396607
-0.00116641
0.000447135
-0.00119319
0.000498269
-0.00120664
0.000549676
-0.00120791
0.000601044
-0.00119875
0.000652071
-0.00118102
0.000702474
-0.00115677
0.000751988
-0.00112794
0.000800367
-0.00109613
0.000847392
-0.00106295
0.00089286
-0.00102909
0.000936607
-0.000995688
0.000978484
-0.000962452
0.0010184
-0.000930234
0.00105626
-0.000897832
0.00109206
-0.000866353
0.00112577
-0.000833625
0.00115746
-0.000801745
0.00118715
-0.000767451
-0.000734303
0.000291148
-0.00104777
0.000337233
-0.00111713
0.000384828
-0.00117324
0.000433601
-0.00121518
0.000483222
-0.00124281
0.000533364
-0.00125678
0.000583712
-0.00125826
0.000633965
-0.001249
0.000683835
-0.00123089
0.000733053
-0.00120598
0.000781365
-0.00117625
0.000828538
-0.0011433
0.000874362
-0.00110878
0.000918644
-0.00107337
0.000961227
-0.00103827
0.00100197
-0.00100319
0.00104078
-0.000969047
0.00107758
-0.000934628
0.00111235
-0.000901128
0.00114507
-0.000866346
0.00117582
-0.000832493
0.00120461
-0.000796239
-0.000761292
0.00033015
-0.00109151
0.000375598
-0.00116258
0.000422442
-0.00122008
0.000470366
-0.00126311
0.000519046
-0.00129149
0.000568173
-0.00130591
0.000617442
-0.00130753
0.000666565
-0.00129813
0.000715268
-0.00127959
0.000763294
-0.00125401
0.000810402
-0.00122336
0.00085637
-0.00118927
0.000900995
-0.0011534
0.000944096
-0.00111647
0.000985522
-0.0010797
0.00102514
-0.00104281
0.00106286
-0.00100677
0.00109861
-0.000970373
0.00113237
-0.000934893
0.00116412
-0.000898099
0.00119395
-0.000862317
0.00122185
-0.000824145
-0.00078744
0.000368886
-0.00113467
0.000413645
-0.00120734
0.000459697
-0.00126613
0.000506732
-0.00131014
0.000554443
-0.0013392
0.000602531
-0.001354
0.000650703
-0.0013557
0.000698686
-0.00134611
0.000746215
-0.00132712
0.000793048
-0.00130084
0.000838952
-0.00126926
0.000883718
-0.00123403
0.000927153
-0.00119683
0.000969083
-0.0011584
0.00100936
-0.00111998
0.00104787
-0.00108131
0.00108452
-0.00104342
0.00111923
-0.00100509
0.001152
-0.000967667
0.00118281
-0.000928907
0.00121173
-0.000891238
0.00123878
-0.000851195
-0.000812772
0.000407198
-0.00117721
0.000451218
-0.00125136
0.000496432
-0.00131135
0.000542544
-0.00135626
0.000589257
-0.00138592
0.000636284
-0.00140102
0.000683345
-0.00140276
0.000730178
-0.00139294
0.000776531
-0.00137347
0.000822172
-0.00134648
0.000866878
-0.00131397
0.000910452
-0.00127761
0.000952707
-0.00123909
0.00099348
-0.00119917
0.00103263
-0.00115913
0.00107004
-0.00111873
0.00110564
-0.00107901
0.00113934
-0.00103879
0.00117115
-0.000999475
0.00120104
-0.000958797
0.00122909
-0.000919285
0.00125531
-0.000877418
-0.000837319
0.000444938
-0.00121905
0.000488169
-0.00129459
0.000532503
-0.00135568
0.000577657
-0.00140141
0.000623345
-0.0014316
0.000669292
-0.00144697
0.00071523
-0.0014487
0.000760908
-0.00143862
0.000806085
-0.00141865
0.000850538
-0.00139094
0.000894056
-0.00135749
0.000936449
-0.00132
0.00097754
-0.00128018
0.00101717
-0.00123881
0.00105522
-0.00119718
0.00109156
-0.00115507
0.00112613
-0.00111358
0.00115885
-0.00107151
0.00118972
-0.00103035
0.00121872
-0.000987798
0.00124592
-0.00094649
0.00127135
-0.000902847
-0.000861115
0.000481968
-0.00126015
0.00052436
-0.00133698
0.000567773
-0.0013991
0.000611936
-0.00144557
0.000656575
-0.00147624
0.000701426
-0.00149182
0.000746231
-0.0014935
0.000790752
-0.00148314
0.000834755
-0.00146265
0.000878029
-0.00143421
0.000920371
-0.00139983
0.0009616
-0.00136123
0.00100155
-0.00132013
0.00104006
-0.00127732
0.00107703
-0.00123414
0.00111232
-0.00119037
0.00114589
-0.00114714
0.00117765
-0.00110327
0.00120762
-0.00106031
0.00123577
-0.00101594
0.00126216
-0.000972887
0.00128683
-0.000927517
-0.000884196
0.000518159
-0.00130045
0.000559664
-0.00137848
0.000602117
-0.00144155
0.000645258
-0.00148871
0.000688825
-0.00151981
0.000732566
-0.00153556
0.000776233
-0.00153717
0.000819597
-0.00152651
0.000862433
-0.00150549
0.000904539
-0.00147632
0.00094572
-0.00144101
0.000985804
-0.00140131
0.00102463
-0.00135895
0.00106206
-0.00131475
0.00109796
-0.00127005
0.00113225
-0.00122465
0.00116484
-0.00117974
0.00119568
-0.00113412
0.00122478
-0.00108941
0.00125211
-0.00104327
0.00127773
-0.000998513
0.00130168
-0.000951467
-0.0009066
0.000553391
-0.00133989
0.000593963
-0.00141906
0.000635419
-0.001483
0.00067751
-0.0015308
0.000719987
-0.00156229
0.000762607
-0.00157818
0.000805133
-0.0015797
0.000847342
-0.00156871
0.00088902
-0.00154716
0.000929973
-0.00151727
0.000970013
-0.00148105
0.00100898
-0.00144027
0.0010467
-0.00139668
0.00108307
-0.00135111
0.00111795
-0.00130493
0.00115125
-0.00125795
0.00118291
-0.0012114
0.00121287
-0.00116408
0.00124113
-0.00111767
0.00126767
-0.00106981
0.00129257
-0.00102341
0.00131584
-0.000974736
-0.00092837
0.000587554
-0.00137843
0.00062715
-0.00145865
0.000667574
-0.00152343
0.000708591
-0.00157182
0.000749961
-0.00160366
0.000791452
-0.00161967
0.000832836
-0.00162108
0.000873898
-0.00160978
0.000914432
-0.0015877
0.000954249
-0.00155709
0.000993169
-0.00151997
0.00103103
-0.00147814
0.00106769
-0.00143334
0.00110302
-0.00138644
0.00113691
-0.00133881
0.00116926
-0.0012903
0.00120002
-0.00124216
0.00122914
-0.00119319
0.0012566
-0.00114513
0.0012824
-0.00109562
0.00130661
-0.00104761
0.00132924
-0.000997365
-0.000949546
0.000620545
-0.00141601
0.000659125
-0.00149723
0.000698487
-0.00156279
0.000738408
-0.00161174
0.000778659
-0.00164391
0.000819017
-0.00166003
0.000859262
-0.00166132
0.000899187
-0.0016497
0.00093859
-0.0016271
0.000977292
-0.00159579
0.00101512
-0.0015578
0.00105191
-0.00151493
0.00108753
-0.00146897
0.00112186
-0.00142077
0.00115479
-0.00137174
0.00118624
-0.00132175
0.00121614
-0.00127206
0.00124444
-0.00122149
0.00127115
-0.00117184
0.00129625
-0.00112072
0.00131981
-0.00107117
0.00134184
-0.0010194
-0.000970173
0.000652271
-0.00145258
0.000689798
-0.00153476
0.000728071
-0.00160106
0.000766878
-0.00165055
0.000806001
-0.00168303
0.000845226
-0.00169926
0.000884338
-0.00170044
0.000923138
-0.0016885
0.00096143
-0.00166539
0.000999039
-0.0016334
0.0010358
-0.00159455
0.00107155
-0.00155069
0.00110617
-0.00150358
0.00113953
-0.00145413
0.00117154
-0.00140375
0.00120211
-0.00135232
0.00123119
-0.00130113
0.00125873
-0.00124903
0.00128472
-0.00119784
0.00130917
-0.00114516
0.00133212
-0.00109412
0.0013536
-0.00104088
-0.000990294
0.000682645
-0.00148811
0.000719087
-0.0015712
0.000756249
-0.00163823
0.000793929
-0.00168823
0.000831919
-0.00172102
0.000870013
-0.00173735
0.000908002
-0.00173843
0.000945694
-0.00172619
0.000982896
-0.0017026
0.00101944
-0.00166994
0.00105515
-0.00163027
0.0010899
-0.00158544
0.00112355
-0.00153723
0.00115599
-0.00148657
0.00118711
-0.00143488
0.00121685
-0.00138205
0.00124515
-0.00132943
0.00127196
-0.00127584
0.00129728
-0.00122316
0.00132111
-0.00116899
0.0013435
-0.00111651
0.00136447
-0.00106185
-0.00100995
0.00071159
-0.00152255
0.000746919
-0.00160653
0.000782951
-0.00167426
0.000819496
-0.00172477
0.000856352
-0.00175788
0.000893322
-0.00177432
0.000930202
-0.00177531
0.000966803
-0.00176279
0.00100294
-0.00173873
0.00103844
-0.00170544
0.00107315
-0.00166498
0.00110693
-0.00161922
0.00113965
-0.00156995
0.00117119
-0.00151812
0.00120147
-0.00146516
0.00123042
-0.001411
0.00125798
-0.00135699
0.0012841
-0.00130196
0.0013088
-0.00124786
0.00133206
-0.00119225
0.00135393
-0.00113838
0.00137444
-0.00108236
-0.0010292
0.000739034
-0.00155588
0.000773228
-0.00164072
0.000808118
-0.00170915
0.000843522
-0.00176018
0.000879249
-0.0017936
0.000915105
-0.00181018
0.000950893
-0.00181109
0.000986427
-0.00179833
0.00102152
-0.00177383
0.00105602
-0.00173994
0.00108975
-0.00169871
0.0011226
-0.00165206
0.00115442
-0.00160177
0.00118511
-0.00154881
0.00121459
-0.00149464
0.00124279
-0.00143919
0.00126965
-0.00138385
0.00129513
-0.00132745
0.00131925
-0.00127197
0.00134198
-0.00121498
0.00136338
-0.00115977
0.00138346
-0.00110245
-0.00104807
0.000764916
-0.00158806
0.000797958
-0.00167377
0.000831698
-0.00174289
0.000865962
-0.00179444
0.000900567
-0.00182821
0.000935324
-0.00184493
0.00097004
-0.00184581
0.00100453
-0.00183282
0.00103862
-0.00180792
0.00107214
-0.00177346
0.00110494
-0.00173151
0.00113688
-0.001684
0.00116784
-0.00163273
0.00119773
-0.0015787
0.00122645
-0.00152337
0.00125394
-0.00146668
0.00128015
-0.00141006
0.00130504
-0.00135233
0.00132861
-0.00129554
0.00135086
-0.00123723
0.00137182
-0.00118074
0.00139154
-0.00112216
-0.00106662
0.000789184
-0.00161909
0.000821064
-0.00170565
0.000853651
-0.00177547
0.000886781
-0.00182757
0.000920276
-0.0018617
0.000953951
-0.00187861
0.000987618
-0.00187948
0.00102109
-0.0018663
0.0010542
-0.00184102
0.00108678
-0.00180604
0.00111868
-0.00176341
0.00114976
-0.00171509
0.00117991
-0.00166288
0.00120903
-0.00160782
0.00123704
-0.00155137
0.00126386
-0.0014935
0.00128946
-0.00143566
0.00131379
-0.00137667
0.00133687
-0.00131862
0.00135867
-0.00125904
0.00137926
-0.00120132
0.00139864
-0.00114155
-0.00108488
0.000811785
-0.00164894
0.000842497
-0.00173636
0.000873934
-0.00180691
0.00090594
-0.00185958
0.000938341
-0.0018941
0.000970958
-0.00191122
0.0010036
-0.00191212
0.0010361
-0.00189879
0.00106826
-0.00187319
0.00109993
-0.00183771
0.00113097
-0.00179444
0.00116124
-0.00174535
0.00119061
-0.00169226
0.00121901
-0.00163621
0.00124634
-0.0015787
0.00127254
-0.0015197
0.00129757
-0.00146069
0.0013214
-0.00140049
0.00134402
-0.00134124
0.00136543
-0.00128045
0.00138567
-0.00122156
0.00140476
-0.00116064
-0.0011029
0.000832631
-0.0016776
0.000862177
-0.0017659
0.000892474
-0.00183721
0.000923374
-0.00189048
0.000954707
-0.00192544
0.000986294
-0.00194281
0.00101795
-0.00194378
0.0010495
-0.00193034
0.00108076
-0.00190445
0.00111157
-0.00186853
0.00114179
-0.00182466
0.00117128
-0.00177485
0.00119993
-0.00172091
0.00122765
-0.00166393
0.00125435
-0.00160541
0.00127997
-0.00154532
0.00130449
-0.0014852
0.00132785
-0.00142385
0.00135006
-0.00136345
0.00137112
-0.00130151
0.00139106
-0.0012415
0.0014099
-0.00117948
-0.00112072
0.0008517
-0.00170508
0.000880089
-0.00179429
0.000909264
-0.00186638
0.00093908
-0.0019203
0.000969371
-0.00195573
0.000999961
-0.0019734
0.00103066
-0.00197448
0.0010613
-0.00196097
0.0010917
-0.00193484
0.00112169
-0.00189852
0.00115113
-0.0018541
0.0011799
-0.00180361
0.00120787
-0.00174888
0.00123495
-0.00169101
0.00126107
-0.00163153
0.00128616
-0.00157042
0.0013102
-0.00150924
0.00133314
-0.00144679
0.00135498
-0.0013853
0.00137573
-0.00132226
0.00139541
-0.00126118
0.00141406
-0.00119813
-0.00113838
0.000869183
0.000896418
-0.00182153
0.000924474
-0.00189444
0.000953211
-0.00194903
0.000982466
-0.00198498
0.00101207
-0.002003
0.00104183
-0.00200424
0.00107157
-0.00199072
0.00110112
-0.00196439
0.00113032
-0.00192772
0.00115902
-0.0018828
0.00118709
-0.00183168
0.00121441
-0.0017762
0.0012409
-0.0017175
0.00126648
-0.0016571
0.00129108
-0.00159502
0.00131468
-0.00153284
0.00133725
-0.00146936
0.00135877
-0.00140682
0.00137925
-0.00134274
0.00139872
-0.00128065
0.0014172
-0.00121661
-0.00115594
0.00388862
-0.00191042
0.00397606
-0.00198188
0.00406174
-0.00203472
0.00414546
-0.0020687
0.00422702
-0.00208457
0.00430632
-0.00208354
0.00438322
-0.00206762
0.00445765
-0.00203882
0.00452948
-0.00199955
0.00459864
-0.00195195
0.00466496
-0.001898
0.00472836
-0.00183961
0.00478868
-0.00177781
0.00484584
-0.00171426
0.00489967
-0.00164886
0.00495019
-0.00158336
0.00499727
-0.00151643
0.00504098
-0.00145054
0.00508132
-0.00138308
0.00511841
-0.00131774
0.00515235
-0.00125055
-0.00118693
0.00435815
-0.00198781
0.00443383
-0.00205755
0.00450756
-0.00210845
0.00457923
-0.00214037
0.00464875
-0.00215408
0.00471609
-0.00215088
0.0047812
-0.00213274
0.00484409
-0.00210171
0.00490469
-0.00206015
0.00496297
-0.00201023
0.00501882
-0.00195385
0.00507219
-0.00189298
0.00512293
-0.00182855
0.005171
-0.00176234
0.00521625
-0.00169411
0.0052587
-0.0016258
0.00529822
-0.00155596
0.00533491
-0.00148722
0.00536872
-0.00141689
0.00539979
-0.0013488
0.00542819
-0.00127895
-0.00121282
0.00484691
-0.00205135
0.00490855
-0.00211918
0.00496815
-0.00216805
0.0050257
-0.00219792
0.00508123
-0.00220961
0.00513481
-0.00220446
0.00518648
-0.00218441
0.00523631
-0.00215154
0.00528429
-0.00210814
0.00533046
-0.00205639
0.00537473
-0.00199812
0.00541707
-0.00193532
0.00545736
-0.00186885
0.00549559
-0.00180056
0.00553159
-0.00173011
0.0055654
-0.00165962
0.00559691
-0.00158746
0.00562616
-0.00151647
0.00565315
-0.00144389
0.00567795
-0.0013736
0.00570063
-0.00130164
-0.00123349
0.005341
-0.00209912
0.00538684
-0.00216502
0.00543074
-0.00221195
0.00547281
-0.00223999
0.00551316
-0.00224997
0.00555197
-0.00224326
0.00558934
-0.00222178
0.00562541
-0.00218761
0.00566021
-0.00214294
0.0056938
-0.00208998
0.00572612
-0.00203044
0.00575715
-0.00196635
0.00578678
-0.00189848
0.005815
-0.00182878
0.00584165
-0.00175676
0.00586675
-0.00168472
0.00589019
-0.0016109
0.00591201
-0.00153829
0.00593219
-0.00146407
0.00595076
-0.00139216
0.00596779
-0.00131867
-0.00124902
0.0058282
-0.00212985
0.00585718
-0.00219399
0.00588452
-0.00223929
0.00591043
-0.0022659
0.00593512
-0.00227466
0.00595883
-0.00226697
0.00598174
-0.00224468
0.00600399
-0.00220987
0.00602567
-0.00216462
0.00604681
-0.00211112
0.00606739
-0.00205102
0.00608737
-0.00198633
0.00610664
-0.00191775
0.00612516
-0.0018473
0.00614279
-0.00177438
0.00615952
-0.00170145
0.00617523
-0.00162662
0.00618994
-0.00155299
0.00620362
-0.00147775
0.00621625
-0.0014048
0.00622791
-0.00133033
-0.0012597
0.00629779
-0.00214314
0.00630968
-0.00220588
0.0063204
-0.00225001
0.00633025
-0.00227575
0.00633951
-0.00228392
0.00634847
-0.00227593
0.00635735
-0.00225356
0.00636631
-0.00221883
0.00637544
-0.00217375
0.00638478
-0.00212046
0.00639427
-0.00206051
0.00640387
-0.00199594
0.00641345
-0.00192733
0.00642296
-0.00185681
0.00643222
-0.00178364
0.00644121
-0.00171044
0.0064498
-0.00163521
0.00645796
-0.00156116
0.00646568
-0.00148547
0.00647289
-0.001412
0.00647964
-0.00133709
-0.00126594
0.00674087
-0.00213957
0.00673637
-0.00220138
0.00673125
-0.0022449
0.0067259
-0.00227039
0.00672065
-0.00227868
0.00671583
-0.00227111
0.00671168
-0.00224941
0.00670837
-0.00221552
0.00670598
-0.00217135
0.00670452
-0.002119
0.00670393
-0.00205991
0.00670413
-0.00199615
0.00670498
-0.00192817
0.00670638
-0.00185821
0.00670815
-0.00178542
0.00671024
-0.00171252
0.0067125
-0.00163747
0.00671486
-0.00156352
0.0067173
-0.00148791
0.0067197
-0.00141441
0.00672213
-0.00133951
-0.00126828
0.00715092
-0.00212069
0.00713157
-0.00218203
0.00711218
-0.0022255
0.00709317
-0.00225138
0.00707495
-0.00226046
0.00705785
-0.00225402
0.00704213
-0.0022337
0.00702796
-0.00220135
0.0070154
-0.00215879
0.00700445
-0.00210805
0.00699502
-0.00205048
0.00698701
-0.00198814
0.00698024
-0.0019214
0.00697461
-0.00185258
0.0069699
-0.0017807
0.00696601
-0.00170864
0.00696282
-0.00163427
0.00696019
-0.00156089
0.0069581
-0.00148582
0.00695639
-0.00141271
0.00695512
-0.00133824
-0.00126728
0.00752436
-0.00208875
0.00749237
-0.00215004
0.00746083
-0.00219396
0.00743022
-0.00222077
0.00740098
-0.00223122
0.00737347
-0.00222651
0.00734795
-0.00220818
0.00732459
-0.00217798
0.00730343
-0.00213763
0.00728445
-0.00208907
0.00726756
-0.00203359
0.00725263
-0.00197321
0.00723945
-0.00190823
0.0072279
-0.00184102
0.00721774
-0.00177055
0.00720886
-0.00169975
0.00720109
-0.00162651
0.00719429
-0.00155409
0.00718843
-0.00147995
0.0071833
-0.00140758
0.00717895
-0.00133388
-0.00126352
0.00786073
-0.00204643
0.00781866
-0.00210797
0.00777741
-0.00215271
0.00773751
-0.00218087
0.00769943
-0.00219314
0.00766355
-0.00219063
0.00763013
-0.00217476
0.00759933
-0.00214718
0.0075712
-0.0021095
0.00754571
-0.00206359
0.00752275
-0.00201063
0.00750218
-0.00195264
0.00748378
-0.00188983
0.00746741
-0.00182464
0.00745281
-0.00175595
0.00743985
-0.00168679
0.00742836
-0.00161502
0.00741817
-0.0015439
0.00740923
-0.001471
0.00740132
-0.00139967
0.00739447
-0.00132703
-0.00125752
0.00816247
-0.00199649
0.00811295
-0.00205845
0.00806446
-0.00210422
0.00801758
-0.00213399
0.00797281
-0.00214837
0.00793054
-0.00214836
0.00789106
-0.00213527
0.00785452
-0.00211064
0.00782099
-0.00207597
0.00779042
-0.00203302
0.0077627
-0.00198291
0.00773769
-0.00192763
0.00771517
-0.0018673
0.00769497
-0.00180444
0.00767685
-0.00173783
0.00766064
-0.00167059
0.00764619
-0.00160057
0.00763329
-0.001531
0.00762189
-0.0014596
0.00761175
-0.00138954
0.0076029
-0.00131818
-0.00124972
0.0084343
-0.00194141
0.00837968
-0.00200383
0.00832619
-0.00205073
0.00827442
-0.00208223
0.00822491
-0.00209886
0.00817806
-0.00210151
0.00813416
-0.00209138
0.0080934
-0.00206988
0.00805584
-0.00203841
0.00802145
-0.00199863
0.00799012
-0.00195158
0.00796171
-0.00189922
0.007936
-0.0018416
0.00791284
-0.00178127
0.00789197
-0.00171697
0.00787323
-0.00165185
0.00785645
-0.00158379
0.00784141
-0.00151596
0.00782807
-0.00144626
0.00781617
-0.00137765
0.00780574
-0.00130774
-0.00124049
0.00868219
-0.00188325
0.00862445
-0.00194608
0.0085678
-0.00199408
0.00851288
-0.00202731
0.00846023
-0.00204621
0.00841027
-0.00205155
0.00836333
-0.00204444
0.00831959
-0.00202614
0.00827913
-0.00199795
0.00824195
-0.00196145
0.00820795
-0.00191757
0.00817699
-0.00186826
0.00814888
-0.00181349
0.00812344
-0.00175583
0.00810046
-0.00169398
0.00807974
-0.00163113
0.00806113
-0.00156518
0.00804442
-0.00149925
0.00802954
-0.00143139
0.00801625
-0.00136435
0.00800454
-0.00129604
-0.00123011
0.00891247
-0.00182355
0.00885307
-0.00188668
0.00879467
-0.00193568
0.00873791
-0.00197055
0.00868335
-0.00199165
0.00863143
-0.00199963
0.00858249
-0.0019955
0.00853672
-0.00198038
0.00849425
-0.00195548
0.00845507
-0.00192227
0.00841911
-0.00188162
0.00838626
-0.0018354
0.00835632
-0.00178356
0.00832914
-0.00172865
0.00830451
-0.00166936
0.00828225
-0.00160887
0.0082622
-0.00154513
0.00824415
-0.00148119
0.00822803
-0.00141527
0.0082136
-0.00134991
0.00820085
-0.00128329
-0.00121879
0.00913096
-0.00176335
0.00907091
-0.00182663
0.00901173
-0.0018765
0.00895406
-0.00191288
0.00889847
-0.00193605
0.0088454
-0.00194656
0.0087952
-0.0019453
0.00874811
-0.00193329
0.00870425
-0.00191162
0.00866364
-0.00188166
0.00862625
-0.00184422
0.00859196
-0.00180111
0.00856063