/*--------------------------------*- C++ -*----------------------------------*\
  =========                 |
  \\      /  F ield         | OpenFOAM: The Open Source CFD Toolbox
   \\    /   O peration     | Website:  https://openfoam.org
    \\  /    A nd           | Version:  7
     \\/     M anipulation  |
\*---------------------------------------------------------------------------*/
FoamFile
{
    version     2.0;
    format      ascii;
    class       volVectorField;
    location    "40";
    object      U;
}
// * * * * * * * * * * * * * * * * * * * * * * * * * * * * * * * * * * * * * //

dimensions      [0 1 -1 0 0 0 0];

internalField   nonuniform List<vector> 
4575
(
(-0.164194 -0.00423041 -6.92813e-23)
(-0.140579 -0.00474579 -1.73969e-23)
(-0.114714 -0.00499465 3.22332e-23)
(-0.0867823 -0.00496083 3.26891e-24)
(-0.0570193 -0.00465448 -1.54921e-23)
(-0.0256878 -0.00410989 5.42292e-23)
(0.00691317 -0.00338141 2.12876e-23)
(0.0404878 -0.00253624 3.27396e-24)
(0.074717 -0.00164792 7.42732e-24)
(0.10932 -0.000788355 -3.03232e-24)
(0.143996 -2.15295e-05 8.90837e-24)
(0.178515 0.000601743 5.98183e-25)
(0.212626 0.00104744 -3.47358e-25)
(0.246157 0.001299 3.82312e-24)
(0.278933 0.00135711 4.35664e-24)
(0.310825 0.00123921 5.26848e-25)
(0.341747 0.000974942 4.33155e-24)
(0.37159 0.000601278 7.62238e-24)
(0.400361 0.0001623 -8.82019e-24)
(0.427937 -0.000300828 8.3316e-24)
(0.454445 -0.000745352 -2.54762e-24)
(0.479682 -0.00114017 -3.18538e-24)
(0.503951 -0.00145486 -3.25969e-24)
(0.526884 -0.00167671 3.94182e-24)
(-0.16223 -0.00643972 -1.11804e-22)
(-0.138622 -0.00713667 -2.32277e-22)
(-0.112786 -0.00754417 9.20476e-23)
(-0.0849062 -0.00764265 -1.11906e-22)
(-0.0552128 -0.00743995 3.67832e-23)
(-0.0239644 -0.00696924 7.24434e-23)
(0.00854615 -0.00628524 -4.1147e-23)
(0.0420292 -0.00545533 2.2304e-23)
(0.0761715 -0.00455532 -8.96318e-24)
(0.110697 -0.00365959 1.36903e-23)
(0.14531 -0.00283521 1.17518e-23)
(0.179781 -0.00213655 -3.68113e-24)
(0.21386 -0.00160057 -7.46984e-25)
(0.247373 -0.00124794 4.13248e-24)
(0.280143 -0.00107992 -8.62423e-24)
(0.312038 -0.00108325 -1.0046e-23)
(0.342966 -0.00122902 -7.74922e-24)
(0.372814 -0.00148432 -6.39253e-24)
(0.401587 -0.00180432 2.59784e-23)
(0.429157 -0.00215236 1.74618e-24)
(0.455647 -0.00248283 3.45659e-23)
(0.480858 -0.00277055 -6.29341e-24)
(0.505087 -0.00297948 1.35848e-23)
(0.527971 -0.00310481 3.20241e-23)
(-0.158523 -0.00864834 1.02939e-22)
(-0.134902 -0.00952467 1.01567e-22)
(-0.109083 -0.0100889 2.10515e-23)
(-0.0812496 -0.010318 1.36372e-22)
(-0.0516288 -0.010218 -2.14407e-22)
(-0.0204739 -0.00982051 4.87749e-23)
(0.0119281 -0.00918027 -6.42948e-23)
(0.0452944 -0.00836576 -3.52372e-23)
(0.0793182 -0.00745464 -6.98149e-23)
(0.11373 -0.00652364 4.1462e-23)
(0.148236 -0.00564281 -2.60435e-23)
(0.182612 -0.00486992 8.0434e-24)
(0.216609 -0.00424485 3.19171e-24)
(0.250052 -0.00379236 8.15142e-24)
(0.282761 -0.00351459 -2.27697e-23)
(0.314603 -0.00340371 1.74836e-23)
(0.34548 -0.00343099 -4.10428e-23)
(0.375278 -0.00356771 -2.84653e-23)
(0.403995 -0.00376839 -2.21054e-23)
(0.431505 -0.00400086 -8.6787e-25)
(0.457924 -0.00421672 -5.23405e-23)
(0.483056 -0.00439677 6.22783e-23)
(0.507195 -0.00449945 -1.2226e-23)
(0.52998 -0.00452786 -4.58239e-23)
(-0.153096 -0.0108576 -3.19067e-22)
(-0.129443 -0.0119105 2.62825e-22)
(-0.10363 -0.0126287 -3.04758e-22)
(-0.0758378 -0.0129863 -3.49844e-22)
(-0.0462923 -0.0129869 5.41002e-22)
(-0.0152412 -0.0126613 -3.31573e-22)
(0.0170346 -0.012064 1.16911e-22)
(0.0502596 -0.0112646 1.07811e-22)
(0.0841338 -0.0103426 -8.91908e-23)
(0.118394 -0.00937685 1.06644e-22)
(0.152753 -0.00844034 -1.63711e-23)
(0.186988 -0.00759409 2.25875e-23)
(0.220853 -0.00688071 1.31462e-24)
(0.254173 -0.00632886 -2.26481e-23)
(0.286767 -0.00594236 -4.7413e-24)
(0.3185 -0.00571768 1.98669e-23)
(0.349271 -0.00562671 5.23885e-23)
(0.378963 -0.00564487 6.79014e-23)
(0.40757 -0.00572604 1.30471e-23)
(0.434965 -0.0058426 -9.29905e-24)
(0.46126 -0.00594349 2.19661e-23)
(0.486262 -0.00601548 -7.58325e-23)
(0.51026 -0.00601159 7.34354e-24)
(0.532901 -0.00594284 -1.48887e-23)
(-0.145986 -0.013069 2.93822e-22)
(-0.122282 -0.014295 -1.33889e-22)
(-0.0964626 -0.0151639 1.98745e-23)
(-0.0687081 -0.0156468 4.97328e-23)
(-0.0392407 -0.0157456 -2.45161e-22)
(-0.00830363 -0.0154898 4.31881e-22)
(0.0238289 -0.0149342 1.11741e-22)
(0.0568886 -0.0141491 7.79162e-24)
(0.0905831 -0.0132159 6.37425e-23)
(0.124656 -0.0122156 -8.53992e-23)
(0.158826 -0.011224 6.17921e-24)
(0.192875 -0.010305 -2.15602e-23)
(0.226559 -0.0095041 1.87803e-24)
(0.259706 -0.00885354 3.046e-23)
(0.292132 -0.00835906 4.81129e-23)
(0.323703 -0.00802102 -8.20723e-23)
(0.354312 -0.00781213 -5.16502e-23)
(0.383844 -0.00771182 -1.42423e-23)
(0.412286 -0.00767343 -1.89002e-23)
(0.439513 -0.00767392 2.32362e-23)
(0.465633 -0.00765964 -8.22575e-23)
(0.490455 -0.00762338 5.82576e-23)
(0.514263 -0.00751281 -4.68439e-23)
(0.536713 -0.00734684 -5.34963e-23)
(-0.137237 -0.0152836 -3.17706e-22)
(-0.113466 -0.0166786 -4.76396e-22)
(-0.0876297 -0.0176943 3.71867e-23)
(-0.059909 -0.018299 2.91407e-22)
(-0.030523 -0.0184927 -2.6105e-23)
(0.000290046 -0.0183042 -7.2383e-23)
(0.0322624 -0.0177884 -3.08388e-22)
(0.0651335 -0.0170165 1.20733e-23)
(0.0986189 -0.0160714 1.49875e-23)
(0.13247 -0.0150365 -1.25717e-22)
(0.166411 -0.0139899 4.27349e-23)
(0.200231 -0.0129989 -1.51844e-25)
(0.233687 -0.012111 4.89666e-24)
(0.266611 -0.0113625 -3.4215e-23)
(0.298817 -0.0107606 -3.27974e-24)
(0.330173 -0.0103097 2.94047e-23)
(0.360567 -0.00998327 1.89129e-23)
(0.389886 -0.00976469 -7.72884e-23)
(0.418111 -0.00960685 -3.02298e-24)
(0.445119 -0.00949128 3.94259e-24)
(0.471013 -0.00936182 -3.49362e-23)
(0.495607 -0.00921727 1.33949e-22)
(0.519179 -0.00900009 3.73946e-23)
(0.541394 -0.00873703 1.26429e-22)
(-0.126902 -0.0175022 1.48891e-22)
(-0.10305 -0.0190616 1.32843e-22)
(-0.0771888 -0.0202196 2.6525e-22)
(-0.0494993 -0.0209419 -3.89997e-22)
(-0.0201986 -0.021227 8.93263e-22)
(0.0104801 -0.0211028 2.59984e-22)
(0.0422757 -0.0206244 -2.34517e-23)
(0.0749357 -0.0198639 -2.3019e-22)
(0.108184 -0.0189061 7.21396e-23)
(0.141779 -0.017836 1.0605e-22)
(0.175454 -0.0167346 6.39212e-23)
(0.209002 -0.0156717 -3.75513e-24)
(0.242185 -0.0146976 1.2359e-24)
(0.274838 -0.0138516 1.01747e-23)
(0.306774 -0.013143 -6.50438e-24)
(0.337864 -0.0125798 6.11655e-23)
(0.367992 -0.0121363 -6.0673e-24)
(0.397047 -0.0117997 3.1038e-23)
(0.425004 -0.0115227 6.49129e-23)
(0.451746 -0.0112912 -3.73186e-23)
(0.477365 -0.0110468 6.9393e-23)
(0.501685 -0.0107941 -1.27999e-22)
(0.524976 -0.0104706 -9.59381e-24)
(0.546914 -0.0101107 -1.1939e-22)
(-0.115046 -0.0197254 -2.93892e-22)
(-0.0911002 -0.0214441 -2.06871e-22)
(-0.0652068 -0.0227395 6.18116e-22)
(-0.0375474 -0.0235747 2.28719e-22)
(-0.00833657 -0.0239471 -7.08407e-22)
(0.0221973 -0.0238836 1.49441e-22)
(0.0537999 -0.02344 -2.44637e-23)
(0.0862268 -0.0226888 4.66164e-22)
(0.11921 -0.0217168 -5.64307e-22)
(0.152518 -0.020611 9.91536e-23)
(0.185889 -0.0194545 -8.10145e-23)
(0.219126 -0.01832 7.39836e-23)
(0.251992 -0.01726 7.38106e-24)
(0.284328 -0.0163172 -2.31455e-24)
(0.315947 -0.0155025 -1.11627e-23)
(0.346723 -0.0148275 5.23726e-24)
(0.376536 -0.0142674 -2.01662e-23)
(0.40528 -0.0138134 -1.48076e-23)
(0.432921 -0.0134176 -7.93626e-23)
(0.459349 -0.0130705 8.64988e-23)
(0.484648 -0.0127114 7.26149e-23)
(0.508652 -0.0123509 -2.22535e-23)
(0.531619 -0.0119215 1.87531e-22)
(0.55324 -0.0114653 -4.05528e-23)
(-0.101739 -0.0219537 7.97354e-22)
(-0.0776887 -0.0238261 3.40158e-22)
(-0.0517585 -0.0252533 -1.14661e-21)
(-0.0241295 -0.0261965 4.71253e-23)
(0.00498583 -0.0266516 -2.55907e-23)
(0.035364 -0.0266449 -2.99061e-22)
(0.0667572 -0.0262328 6.91091e-23)
(0.0989298 -0.0254887 -1.03313e-22)
(0.131622 -0.0245009 8.05758e-23)
(0.164612 -0.0233582 -2.54857e-22)
(0.197645 -0.0221462 9.2421e-23)
(0.230531 -0.0209401 -1.99171e-23)
(0.26304 -0.0197945 -4.84796e-24)
(0.295016 -0.0187555 9.66743e-24)
(0.326274 -0.0178353 -1.36171e-22)
(0.35669 -0.0170492 3.01886e-24)
(0.386142 -0.0163732 8.903e-23)
(0.414528 -0.0158023 -1.39321e-22)
(0.441809 -0.0152882 5.02999e-23)
(0.467879 -0.0148261 4.949e-23)
(0.492816 -0.0143529 -1.04498e-22)
(0.516463 -0.0138851 -2.4124e-23)
(0.539066 -0.0133503 -2.6289e-22)
(0.560334 -0.0127983 5.5386e-23)
(-0.0870552 -0.0241869 -1.21957e-21)
(-0.0628945 -0.026207 2.54679e-22)
(-0.0369249 -0.0277604 1.22418e-21)
(-0.00932848 -0.0288061 -3.97821e-22)
(0.0196844 -0.0293387 2.55883e-22)
(0.0498953 -0.0293847 9.45214e-23)
(0.0810631 -0.0290007 -5.1731e-23)
(0.11296 -0.0282609 -1.95522e-22)
(0.145337 -0.0272553 -8.26883e-23)
(0.177979 -0.0260747 2.14976e-22)
(0.210642 -0.0248066 3.82099e-23)
(0.243142 -0.0235288 2.81921e-23)
(0.275254 -0.0222979 -1.88163e-23)
(0.30683 -0.021163 -2.28713e-23)
(0.337684 -0.020138 5.65414e-23)
(0.367698 -0.0192416 -5.43512e-23)
(0.396747 -0.0184504 2.77635e-23)
(0.424732 -0.0177632 -1.77367e-22)
(0.45161 -0.0171316 2.46996e-22)
(0.477283 -0.016555 1.12992e-22)
(0.501819 -0.0159684 -1.75456e-23)
(0.52507 -0.0153939 2.69404e-23)
(0.547274 -0.0147546 8.08165e-23)
(0.568153 -0.0141077 6.03427e-23)
(-0.0468013 -0.0285863 7.07675e-22)
(-0.0207926 -0.0302597 2.44196e-22)
(0.00676721 -0.0314022 4.73707e-22)
(0.0356696 -0.032007 -6.32584e-22)
(0.0657009 -0.0321013 3.92193e-22)
(0.0966269 -0.0317414 -4.24004e-22)
(0.128229 -0.031003 4.35682e-23)
(0.160265 -0.0299776 1.08843e-22)
(0.192533 -0.0287575 -4.66905e-23)
(0.224794 -0.0274326 -3.60536e-23)
(0.256874 -0.0260828 -5.40154e-23)
(0.288554 -0.0247668 1.51183e-23)
(0.319692 -0.0235366 -7.47265e-24)
(0.350103 -0.0224074 1.29663e-23)
(0.379676 -0.0214013 9.64424e-23)
(0.408281 -0.0204958 1.5707e-23)
(0.435827 -0.0196932 2.79234e-24)
(0.462265 -0.0189449 -1.90153e-22)
(0.487502 -0.0182547 -2.15423e-22)
(0.5116 -0.0175555 -1.34708e-23)
(0.534422 -0.0168752 1.03071e-23)
(0.556193 -0.0161323 1.07874e-22)
(0.576654 -0.0153913 -3.42262e-23)
(-0.0294968 -0.0309631 -4.99703e-22)
(-0.00345166 -0.03275 4.12341e-22)
(0.0240652 -0.033983 -7.72882e-22)
(0.0528473 -0.0346549 -2.76651e-23)
(0.082686 -0.0347925 4.59041e-22)
(0.113354 -0.034453 3.20143e-24)
(0.144641 -0.0337128 8.90908e-23)
(0.176314 -0.0326652 2.33379e-23)
(0.208181 -0.0314041 2.35038e-22)
(0.240012 -0.0300214 -5.03489e-23)
(0.271641 -0.0285993 -3.53395e-23)
(0.302856 -0.0271984 -4.27653e-24)
(0.333521 -0.0258732 -7.67533e-24)
(0.363454 -0.0246406 5.45963e-23)
(0.392548 -0.0235256 3.15705e-23)
(0.420673 -0.0225066 1.29962e-23)
(0.447745 -0.0215896 2.48089e-22)
(0.473706 -0.0207256 -2.62417e-22)
(0.498475 -0.0199227 3.40132e-22)
(0.522102 -0.0191119 1.06043e-22)
(0.544464 -0.0183267 -9.30493e-23)
(0.565773 -0.0174813 9.49345e-23)
(0.585787 -0.0166473 -5.40295e-23)
(-0.011071 -0.0333362 1.74314e-22)
(0.015005 -0.0352298 6.1081e-22)
(0.0424704 -0.036547 -1.81433e-24)
(0.071121 -0.0372805 -4.90484e-22)
(0.100753 -0.0374564 3.98817e-22)
(0.131146 -0.0371331 -5.94493e-22)
(0.162098 -0.0363878 3.31967e-22)
(0.193387 -0.0353155 -3.99502e-22)
(0.224828 -0.0340117 7.40834e-23)
(0.256202 -0.0325704 2.10241e-22)
(0.287352 -0.0310756 -1.26476e-22)
(0.31807 -0.0295898 4.15858e-24)
(0.348231 -0.02817 2.88886e-23)
(0.377653 -0.0268347 -1.60074e-22)
(0.406236 -0.0256118 3.10854e-24)
(0.433849 -0.0244804 9.95888e-23)
(0.460414 -0.0234498 -9.35562e-23)
(0.485867 -0.0224712 -1.50143e-23)
(0.510137 -0.0215567 1.02202e-23)
(0.533265 -0.0206355 -1.32986e-22)
(0.555139 -0.0197466 1.4949e-22)
(0.57596 -0.0187999 -2.23775e-22)
(0.595502 -0.017874 1.64182e-23)
(0.00838499 -0.0357037 2.43533e-21)
(0.0344832 -0.0376972 -6.40132e-22)
(0.0618864 -0.0390927 8.37906e-23)
(0.0903923 -0.0398818 1.37284e-22)
(0.119803 -0.040091 -1.14983e-22)
(0.149903 -0.0397796 -6.81778e-22)
(0.180502 -0.0390258 -1.24804e-22)
(0.211384 -0.0379264 7.5229e-23)
(0.242377 -0.0365782 -1.72381e-22)
(0.273269 -0.035077 -2.47175e-22)
(0.303913 -0.033509 1.01478e-22)
(0.334108 -0.0319384 -1.99705e-24)
(0.363736 -0.0304247 -7.74123e-23)
(0.392617 -0.0289874 5.23356e-23)
(0.420661 -0.0276574 -2.01265e-23)
(0.447732 -0.0264147 -4.022e-23)
(0.47376 -0.0252718 9.27639e-23)
(0.498678 -0.0241799 -5.78864e-24)
(0.522422 -0.023155 -6.8083e-23)
(0.545025 -0.0221247 1.19516e-22)
(0.566388 -0.0211332 -1.43164e-22)
(0.586697 -0.0200865 1.16549e-22)
(0.605747 -0.0190701 -2.4866e-23)
(0.0287796 -0.0380638 -3.39824e-21)
(0.0548885 -0.0401507 -2.36424e-21)
(0.0822162 -0.0416178 1.41942e-21)
(0.110563 -0.0424567 4.79641e-22)
(0.139735 -0.0426942 -1.04005e-21)
(0.169526 -0.0423904 1.24298e-21)
(0.199752 -0.0416248 -3.10994e-23)
(0.230208 -0.0404955 2.10296e-22)
(0.26073 -0.039101 -9.02407e-23)
(0.291117 -0.0375391 4.27743e-23)
(0.321232 -0.0358975 1.8555e-23)
(0.350878 -0.0342421 1.59124e-23)
(0.379947 -0.0326348 4.01593e-23)
(0.408262 -0.0310963 6.92502e-23)
(0.435739 -0.0296603 -1.44258e-22)
(0.462242 -0.0283075 -1.26162e-22)
(0.48771 -0.0270536 -3.81268e-23)
(0.512068 -0.0258496 2.8994e-23)
(0.535263 -0.0247157 -3.15415e-22)
(0.557319 -0.0235777 -1.05172e-22)
(0.578151 -0.0224851 6.54992e-23)
(0.597929 -0.0213399 -1.24636e-22)
(0.616468 -0.0202342 8.9302e-23)
(0.050022 -0.0404145 7.02966e-22)
(0.0761272 -0.0425879 1.50687e-21)
(0.103364 -0.0441202 1.15497e-21)
(0.131535 -0.0450031 -1.41158e-22)
(0.160451 -0.0452638 4.92604e-22)
(0.189914 -0.0449634 -7.01301e-22)
(0.219749 -0.0441824 -4.66519e-22)
(0.249759 -0.0430208 4.44106e-22)
(0.279791 -0.0415783 -8.32418e-23)
(0.309652 -0.0399545 1.24429e-22)
(0.339214 -0.0382387 -1.54079e-22)
(0.368289 -0.0364988 3.25349e-23)
(0.396776 -0.0347983 2.75543e-23)
(0.424502 -0.0331596 -5.07915e-23)
(0.45139 -0.0316186 5.42453e-23)
(0.477303 -0.030157 1.3595e-22)
(0.502188 -0.0287934 -1.34872e-22)
(0.525965 -0.0274789 8.7264e-23)
(0.548593 -0.0262374 1.18594e-22)
(0.570083 -0.0249933 1.55883e-22)
(0.590366 -0.023801 -2.07257e-23)
(0.609597 -0.0225589 1.18025e-22)
(0.627611 -0.0213655 -1.30601e-22)
(0.0720231 -0.0427535 -9.17647e-22)
(0.0981073 -0.0450064 5.76348e-22)
(0.125235 -0.0465976 -3.84003e-22)
(0.153211 -0.0475188 -2.15461e-22)
(0.181854 -0.0477977 1.08132e-22)
(0.210971 -0.0474965 -9.8416e-22)
(0.240395 -0.0466968 7.53628e-23)
(0.269939 -0.0455003 2.69523e-22)
(0.299462 -0.0440079 -1.92708e-22)
(0.328777 -0.0423212 3.23388e-22)
(0.357768 -0.040531 -1.55224e-22)
(0.386252 -0.0387066 5.03652e-23)
(0.414137 -0.0369136 -5.18188e-23)
(0.441253 -0.0351756 5.48855e-24)
(0.467532 -0.0335307 -8.69365e-23)
(0.492836 -0.0319617 2.77643e-24)
(0.51712 -0.0304899 -2.09382e-23)
(0.5403 -0.0290665 1.34983e-22)
(0.562343 -0.027719 5.23913e-23)
(0.583253 -0.0263704 1.35495e-22)
(0.602973 -0.0250799 1.33275e-22)
(0.621645 -0.0237427 -7.20394e-23)
(0.639122 -0.022463 -2.20805e-22)
(0.0946959 -0.0450779 -3.73579e-23)
(0.120739 -0.0474036 -1.82063e-21)
(0.147737 -0.0490474 1.16799e-21)
(0.175499 -0.0500013 2.42013e-22)
(0.203849 -0.0502935 1.15777e-21)
(0.232599 -0.0499875 2.50052e-22)
(0.261594 -0.0491659 -6.61051e-22)
(0.290655 -0.047932 -1.78912e-22)
(0.31965 -0.0463881 -1.96162e-22)
(0.348402 -0.0446375 -9.29815e-23)
(0.376803 -0.0427725 1.83222e-23)
(0.404678 -0.0408639 -5.68415e-24)
(0.431944 -0.0389789 8.8903e-24)
(0.458433 -0.0371426 1.29772e-22)
(0.484087 -0.0353952 -1.99717e-24)
(0.508765 -0.0337202 4.70564e-24)
(0.532433 -0.0321418 1.97895e-22)
(0.555001 -0.0306112 -1.63928e-22)
(0.576446 -0.0291593 -1.31372e-22)
(0.596764 -0.027708 3.88705e-23)
(0.615911 -0.0263212 -2.42013e-23)
(0.634014 -0.0248904 -1.69396e-22)
(0.650946 -0.0235261 3.39315e-22)
(0.117956 -0.047385 -1.76575e-21)
(0.143935 -0.0497767 -3.55755e-22)
(0.170782 -0.0514671 -1.27782e-21)
(0.198308 -0.0524482 1.52897e-21)
(0.226343 -0.0527491 -1.96423e-22)
(0.254708 -0.0524342 -5.17319e-22)
(0.283255 -0.0515876 5.55529e-22)
(0.311815 -0.0503141 -2.55749e-22)
(0.340264 -0.0487173 2.19787e-22)
(0.368436 -0.0469019 3.77528e-22)
(0.396231 -0.0449618 -1.09532e-22)
(0.423482 -0.0429692 5.96875e-23)
(0.450113 -0.0409931 -2.8725e-23)
(0.475961 -0.0390595 3.15583e-23)
(0.500976 -0.0372109 -1.4327e-22)
(0.525016 -0.0354316 -3.22427e-23)
(0.548055 -0.0337482 -5.55583e-23)
(0.57 -0.0321121 7.68312e-24)
(0.590838 -0.0305578 8.47974e-23)
(0.610555 -0.0290056 5.6259e-23)
(0.629121 -0.0275241 -1.21323e-22)
(0.646648 -0.0260017 8.05682e-25)
(0.66303 -0.0245545 -4.07025e-23)
(0.141723 -0.0496714 7.28074e-22)
(0.167613 -0.0521228 2.41839e-21)
(0.194283 -0.0538538 -2.63979e-21)
(0.22155 -0.054857 1.11077e-21)
(0.249248 -0.055162 -9.09007e-22)
(0.277208 -0.0548348 3.40318e-22)
(0.305288 -0.0539603 -3.09551e-22)
(0.333329 -0.052645 9.07084e-22)
(0.361217 -0.0509937 -3.97774e-22)
(0.388793 -0.0491129 -4.46995e-22)
(0.415969 -0.0470975 2.47819e-23)
(0.442582 -0.0450214 4.30831e-23)
(0.468566 -0.0429549 -3.09953e-23)
(0.493761 -0.0409253 -4.78574e-23)
(0.518125 -0.0389769 3.30184e-23)
(0.541516 -0.0370948 2.08815e-23)
(0.563918 -0.0353083 1.74283e-22)
(0.585231 -0.0335687 -2.575e-23)
(0.605454 -0.0319137 -1.44033e-22)
(0.624564 -0.0302627 -8.3067e-23)
(0.642545 -0.0286883 -4.78008e-23)
(0.659493 -0.0270762 -1.08303e-22)
(0.675322 -0.0255478 -1.28824e-23)
(0.165919 -0.0519339 -7.45315e-22)
(0.191692 -0.0544387 9.9039e-22)
(0.218159 -0.0562047 -1.59731e-21)
(0.245142 -0.0572251 8.02055e-22)
(0.272481 -0.0575301 8.25152e-22)
(0.300014 -0.057187 8.01736e-22)
(0.327608 -0.0562819 -9.46755e-23)
(0.355114 -0.0549229 -7.51458e-22)
(0.382425 -0.053216 3.70237e-22)
(0.409393 -0.0512691 -1.08997e-22)
(0.435936 -0.0491785 -9.66846e-23)
(0.461899 -0.0470193 -1.05308e-23)
(0.487225 -0.0448634 2.28529e-23)
(0.511757 -0.0427391 1.39128e-22)
(0.535462 -0.0406924 -1.33275e-22)
(0.558197 -0.0387094 -9.56942e-23)
(0.579954 -0.0368216 4.68639e-23)
(0.60063 -0.0349804 1.12858e-23)
(0.620234 -0.0332268 2.62259e-22)
(0.638735 -0.0314789 -1.45679e-22)
(0.656127 -0.0298137 1.31838e-22)
(0.672495 -0.0281138 -5.93997e-23)
(0.68777 -0.026506 2.03665e-22)
(0.190469 -0.0541689 7.24006e-22)
(0.216095 -0.0567212 6.66226e-22)
(0.242332 -0.0585168 2.28142e-21)
(0.269005 -0.0595498 7.8308e-23)
(0.295962 -0.0598509 1.90011e-23)
(0.323047 -0.0594889 -1.02409e-21)
(0.350137 -0.0585509 7.03982e-22)
(0.37709 -0.0571465 1.122e-22)
(0.40381 -0.0553829 2.65381e-22)
(0.430156 -0.0533696 4.67193e-23)
(0.456056 -0.0512039 3.52268e-23)
(0.48136 -0.0489623 -2.7294e-23)
(0.506019 -0.0467178 -2.07399e-23)
(0.529881 -0.0445002 -4.74443e-23)
(0.552919 -0.0423569 1.77076e-22)
(0.574992 -0.0402749 3.60053e-23)
(0.596101 -0.0382876 -1.96119e-22)
(0.616137 -0.036347 5.225e-23)
(0.635119 -0.0344968 -6.13944e-23)
(0.653009 -0.0326542 -3.87451e-23)
(0.669813 -0.0309001 -3.92004e-22)
(0.685602 -0.0291145 3.41437e-22)
(0.700325 -0.0274291 2.72844e-23)
(0.215304 -0.0563729 -2.88759e-22)
(0.240752 -0.0589669 -3.61397e-22)
(0.266728 -0.0607873 1.73653e-21)
(0.293064 -0.0618285 -2.81226e-21)
(0.319614 -0.0621223 -6.24915e-22)
(0.34623 -0.0617385 -2.83875e-22)
(0.372797 -0.0607654 -5.89106e-22)
(0.399182 -0.0593143 -5.00954e-22)
(0.425298 -0.0574932 2.82215e-22)
(0.451011 -0.0554133 -3.9048e-22)
(0.476257 -0.0531727 1.6993e-22)
(0.500893 -0.0508495 -1.89137e-24)
(0.524879 -0.0485177 2.31854e-23)
(0.548065 -0.0462083 -3.51971e-23)
(0.570433 -0.0439701 -1.35397e-22)
(0.591841 -0.0417909 2.20842e-22)
(0.612298 -0.0397064 4.90357e-23)
(0.631694 -0.0376684 -1.73855e-23)
(0.650055 -0.0357238 8.18021e-23)
(0.667335 -0.0337886 1.45876e-22)
(0.683553 -0.0319476 7.08732e-23)
(0.698766 -0.0300784 -4.35644e-23)
(0.712941 -0.0283173 -2.39454e-22)
(0.240357 -0.0585421 1.55665e-22)
(0.265592 -0.0611726 8.91153e-22)
(0.291278 -0.0630131 -7.1459e-22)
(0.317248 -0.0640586 1.38211e-21)
(0.343367 -0.0643419 8.45824e-22)
(0.369493 -0.0639339 2.75805e-22)
(0.395519 -0.062924 5.45742e-22)
(0.421321 -0.061425 -5.23646e-22)
(0.446819 -0.0595459 -1.00988e-22)
(0.471888 -0.0573993 -3.23557e-22)
(0.496472 -0.0550844 7.96952e-23)
(0.520435 -0.0526805 -5.39953e-23)
(0.543742 -0.0502627 3.80683e-23)
(0.566248 -0.0478629 -7.62182e-23)
(0.587943 -0.0455317 1.80193e-22)
(0.608684 -0.0432574 1.31582e-24)
(0.62849 -0.0410777 -1.821e-22)
(0.647246 -0.0389447 1.83099e-22)
(0.664987 -0.0369078 -1.73825e-22)
(0.681661 -0.0348824 3.38594e-23)
(0.697298 -0.0329566 -2.58546e-22)
(0.711941 -0.0310059 4.40714e-22)
(0.725573 -0.029171 -2.79646e-22)
(0.265563 -0.0606728 3.77052e-21)
(0.290552 -0.0633348 -1.50046e-21)
(0.315915 -0.0651911 -2.21084e-21)
(0.341492 -0.0662376 -7.28455e-23)
(0.367155 -0.0665075 -1.34739e-22)
(0.392768 -0.0660733 -8.33025e-22)
(0.418236 -0.0650252 -1.54773e-22)
(0.44344 -0.0634774 -8.8017e-25)
(0.468309 -0.0615401 4.49866e-22)
(0.492725 -0.059327 5.08842e-23)
(0.51664 -0.0569385 9.0782e-23)
(0.539923 -0.0544549 -1.11226e-22)
(0.562548 -0.0519524 7.146e-24)
(0.584372 -0.0494641 7.76384e-23)
(0.605393 -0.0470417 -1.80404e-22)
(0.625469 -0.0446744 5.55223e-23)
(0.644624 -0.0424018 -2.20617e-23)
(0.662743 -0.040176 4.80092e-23)
(0.679869 -0.0380492 -6.57794e-23)
(0.695942 -0.0359357 1.14823e-22)
(0.711003 -0.0339274 3.03853e-22)
(0.725082 -0.0318974 -5.18059e-22)
(0.738179 -0.0299906 -2.67872e-22)
(0.290864 -0.0627611 1.24496e-22)
(0.31557 -0.0654501 1.1667e-21)
(0.340577 -0.0673185 -1.13123e-21)
(0.365733 -0.0683628 -3.27683e-22)
(0.390914 -0.0686171 6.82308e-22)
(0.415996 -0.0681549 4.11008e-22)
(0.440887 -0.0670676 -1.80853e-22)
(0.465479 -0.0654705 -3.45379e-22)
(0.489708 -0.0634749 -1.43782e-22)
(0.513463 -0.0611958 -3.27882e-22)
(0.536703 -0.0587344 1.2926e-22)
(0.559303 -0.0561724 8.93974e-23)
(0.581243 -0.0535868 -2.63153e-23)
(0.602384 -0.0510118 -2.23213e-23)
(0.622732 -0.0485002 4.74072e-23)
(0.642144 -0.0460422 8.84175e-23)
(0.660653 -0.0436789 -2.74084e-22)
(0.678139 -0.0413627 -2.16583e-22)
(0.694655 -0.0391483 2.10248e-22)
(0.710133 -0.0369492 -2.40353e-22)
(0.724625 -0.0348605 3.33323e-22)
(0.738149 -0.0327534 3.66693e-22)
(0.75072 -0.0307766 2.43365e-22)
(0.316201 -0.0648032 -6.96036e-22)
(0.340589 -0.0675152 2.3813e-21)
(0.365208 -0.0693923 1.59798e-23)
(0.389913 -0.0704319 1.5839e-22)
(0.414589 -0.0706687 -8.66978e-22)
(0.439117 -0.0701773 1.3287e-21)
(0.463416 -0.0690499 -1.58883e-22)
(0.487382 -0.0674034 -2.00666e-22)
(0.510961 -0.0653496 1.22493e-22)
(0.534048 -0.0630053 2.57229e-23)
(0.556608 -0.0604721 4.67235e-23)
(0.578522 -0.057833 -1.93116e-23)
(0.599778 -0.0551659 1.51523e-23)
(0.620237 -0.0525062 3.02562e-23)
(0.639914 -0.0499075 1.05625e-23)
(0.658665 -0.047361 4.81752e-24)
(0.676532 -0.0449094 2.0248e-22)
(0.693391 -0.0425052 -9.17458e-23)
(0.709303 -0.0402056 1.61115e-22)
(0.724194 -0.0379233 -1.08199e-22)
(0.738126 -0.0357564 -1.67644e-22)
(0.751104 -0.0335744 -4.79776e-22)
(0.763159 -0.0315297 1.99583e-23)
(0.341521 -0.0667955 2.61902e-21)
(0.365553 -0.0695267 -5.78913e-21)
(0.389751 -0.0714098 1.58654e-21)
(0.413977 -0.0724426 -2.04041e-21)
(0.438124 -0.0726603 1.16545e-21)
(0.462079 -0.0721388 -1.61405e-21)
(0.485769 -0.070971 1.12516e-21)
(0.509099 -0.0692752 7.21912e-22)
(0.532019 -0.0671639 -1.30229e-22)
(0.554432 -0.0647551 1.96638e-22)
(0.576309 -0.0621513 -7.20542e-23)
(0.597536 -0.0594368 9.18798e-23)
(0.618106 -0.05669 -8.68512e-24)
(0.637886 -0.0539475 6.5483e-23)
(0.656894 -0.051264 -1.91301e-23)
(0.67499 -0.0486313 -1.63043e-22)
(0.692221 -0.0460938 -1.46739e-22)
(0.70846 -0.0436042 -7.20337e-24)
(0.723776 -0.0412218 1.64236e-22)
(0.738089 -0.0388587 -2.83893e-23)
(0.75147 -0.0366159 3.0395e-23)
(0.763914 -0.0343612 1.41833e-22)
(0.775463 -0.0322505 2.84047e-22)
(0.366772 -0.0687342 1.70237e-21)
(0.390411 -0.0714816 -1.92144e-21)
(0.414157 -0.0733682 -7.51141e-22)
(0.437876 -0.0743925 1.06686e-22)
(0.46147 -0.0745902 1.05794e-21)
(0.484833 -0.0740382 2.4166e-22)
(0.507901 -0.0728301 -5.51049e-22)
(0.530582 -0.0710853 -2.1098e-22)
(0.552836 -0.0689172 6.15806e-23)
(0.574569 -0.0664452 -3.01483e-22)
(0.595761 -0.0637722 3.15363e-23)
(0.6163 -0.0609839 3.88997e-23)
(0.636187 -0.0581593 -3.35337e-23)
(0.655291 -0.0553362 1.14322e-23)
(0.673636 -0.0525701 1.35338e-23)
(0.691082 -0.0498537 -1.24994e-22)
(0.707683 -0.0472327 5.00303e-23)
(0.723311 -0.0446602 7.2375e-23)
(0.738039 -0.0421974 -1.32996e-22)
(0.751785 -0.039756 -9.51597e-23)
(0.764625 -0.0374396 -2.19241e-23)
(0.776545 -0.0351145 2.09022e-22)
(0.787601 -0.0329399 -9.96063e-23)
(0.391905 -0.0706158 -1.57311e-22)
(0.415116 -0.0733767 -3.86848e-23)
(0.438376 -0.0752651 -1.15739e-21)
(0.461562 -0.0762797 -1.69682e-21)
(0.484581 -0.0764569 3.17717e-21)
(0.507335 -0.0758742 -1.43932e-21)
(0.529765 -0.0746262 -5.83053e-22)
(0.551789 -0.0728332 4.14045e-22)
(0.573369 -0.0706095 2.3756e-22)
(0.59442 -0.0680754 -6.83879e-23)
(0.614925 -0.0653348 6.65876e-23)
(0.634778 -0.0624745 -1.13742e-22)
(0.653985 -0.0595742 -3.61266e-23)
(0.672416 -0.0566727 -3.62786e-24)
(0.690104 -0.0538264 -4.01115e-24)
(0.706908 -0.0510287 4.61417e-23)
(0.722886 -0.0483269 1.52124e-22)
(0.737911 -0.0456739 -3.24868e-23)
(0.752062 -0.0431333 1.37419e-22)
(0.765251 -0.0406161 -2.50144e-22)
(0.777562 -0.0382284 -1.80334e-22)
(0.788971 -0.0358352 -1.31304e-22)
(0.799545 -0.0335985 2.42054e-22)
(0.416874 -0.0724369 1.67068e-21)
(0.43962 -0.0752094 1.087e-21)
(0.462365 -0.0770982 3.47076e-21)
(0.484992 -0.0781024 -6.63958e-22)
(0.507415 -0.0782589 -9.97286e-22)
(0.529543 -0.077646 1.42732e-21)
(0.551324 -0.0763587 -3.19891e-22)
(0.572681 -0.0745186 1.2665e-22)
(0.593584 -0.0722404 -5.72979e-22)
(0.613949 -0.069646 3.78535e-22)
(0.633768 -0.0668396 -9.12478e-23)
(0.652936 -0.0639093 6.71777e-23)
(0.671466 -0.0609353 8.88201e-24)
(0.689231 -0.0579576 3.48067e-23)
(0.706268 -0.0550335 8.88667e-24)
(0.722437 -0.0521571 -6.47235e-24)
(0.737802 -0.049377 -9.14712e-23)
(0.752235 -0.0466462 7.69573e-23)
(0.765818 -0.0440304 1.59034e-22)
(0.778461 -0.0414398 -8.1192e-23)
(0.790255 -0.0389831 -2.28396e-24)
(0.801165 -0.0365241 2.97977e-22)
(0.811271 -0.0342274 -7.11689e-23)
(0.441634 -0.0741944 -4.79056e-22)
(0.463881 -0.0769768 -4.70728e-21)
(0.486082 -0.0788651 -3.58519e-22)
(0.508125 -0.0798589 7.38415e-22)
(0.529932 -0.0799949 4.39695e-22)
(0.55142 -0.0793525 6.44593e-22)
(0.572542 -0.078027 -1.5154e-21)
(0.593225 -0.0761412 5.45304e-22)
(0.613445 -0.0738102 -6.15769e-22)
(0.633124 -0.0711571 2.24081e-22)
(0.652257 -0.0682868 -2.30455e-22)
(0.670745 -0.0652885 4.01664e-23)
(0.688603 -0.0622431 1.18379e-23)
(0.705708 -0.0591918 -5.16937e-23)
(0.722101 -0.0561923 -8.90716e-23)
(0.737644 -0.0532397 7.14337e-23)
(0.752405 -0.0503838 6.39946e-23)
(0.766255 -0.0475779 8.94859e-23)
(0.779283 -0.0448893 1.21778e-23)
(0.791392 -0.042228 1.67757e-22)
(0.802681 -0.0397046 -3.76177e-23)
(0.813106 -0.037182 -6.41903e-23)
(0.822757 -0.0348274 -2.53927e-23)
(0.466144 -0.0758853 -3.19965e-21)
(0.487858 -0.0786766 3.14637e-22)
(0.509486 -0.0805642 1.37224e-21)
(0.530924 -0.0815476 -7.45703e-22)
(0.552099 -0.0816641 -3.49732e-22)
(0.572933 -0.0809933 -5.70874e-22)
(0.593385 -0.079631 4.23846e-22)
(0.613389 -0.077701 -8.60647e-22)
(0.632924 -0.075319 4.38076e-22)
(0.651917 -0.0726092 -1.71682e-22)
(0.670367 -0.069677 1.38836e-22)
(0.688178 -0.066613 -3.8179e-23)
(0.70537 -0.0634986 6.34427e-24)
(0.721822 -0.0603759 3.88395e-23)
(0.73758 -0.0573036 -9.54856e-23)
(0.752506 -0.0542774 -1.44716e-23)
(0.766674 -0.0513484 1.4924e-23)
(0.779953 -0.0484699 -9.20747e-23)
(0.792436 -0.0457112 -2.80703e-22)
(0.804024 -0.0429815 -1.99555e-23)
(0.81482 -0.0403939 2.73714e-22)
(0.824773 -0.03781 -5.80865e-24)
(0.833982 -0.0353993 7.61882e-23)
(0.490362 -0.0775073 -6.00021e-21)
(0.511513 -0.0803071 4.53011e-21)
(0.532543 -0.0821942 1.36505e-21)
(0.553354 -0.0831681 -1.80756e-21)
(0.573881 -0.0832661 1.66179e-21)
(0.59405 -0.0825683 3.62349e-22)
(0.613826 -0.0811709 7.81819e-22)
(0.633146 -0.0791985 -1.35103e-21)
(0.651995 -0.0767674 -1.77472e-22)
(0.670303 -0.0740029 2.53452e-22)
(0.688074 -0.0710111 1.69589e-22)
(0.705213 -0.0678837 -2.27627e-22)
(0.721747 -0.0647025 3.80272e-23)
(0.737554 -0.0615109 2.07808e-23)
(0.752685 -0.0583683 4.57699e-23)
(0.767005 -0.0552712 -8.14604e-23)
(0.78059 -0.0522717 1.32646e-22)
(0.793309 -0.0493232 -6.72978e-23)
(0.805259 -0.0464969 5.53594e-23)
(0.816339 -0.0437015 1.2028e-22)
(0.826656 -0.0410519 -2.12237e-22)
(0.83615 -0.0384089 1.74862e-22)
(0.844931 -0.0359442 2.001e-23)
(0.514251 -0.0790589 8.92127e-22)
(0.53481 -0.0818672 -1.36334e-21)
(0.555219 -0.0837543 6.52269e-23)
(0.575386 -0.0847198 -2.21681e-21)
(0.595251 -0.0848008 4.79917e-22)
(0.614745 -0.0840777 1.63484e-21)
(0.633839 -0.0826471 -2.05213e-21)
(0.652473 -0.0806342 1.84442e-21)
(0.670637 -0.0781562 8.37943e-23)
(0.688262 -0.0753392 -6.15629e-22)
(0.705358 -0.07229 3.63065e-22)
(0.721832 -0.0691014 -7.11763e-24)
(0.737714 -0.0658559 -3.20621e-23)
(0.752885 -0.062598 1.13477e-23)
(0.7674 -0.0593877 7.01751e-23)
(0.781124 -0.0562221 -4.45487e-23)
(0.794137 -0.0531547 1.01394e-23)
(0.806309 -0.0501389 -1.82471e-22)
(0.817738 -0.0472475 3.93783e-22)
(0.828322 -0.0443889 -2.09066e-22)
(0.838173 -0.0416796 -2.13881e-22)
(0.847223 -0.0389798 -7.42035e-23)
(0.85559 -0.0364631 7.66326e-23)
(0.537775 -0.0805345 4.0089e-21)
(0.557715 -0.0833517 1.23206e-21)
(0.577483 -0.0852399 -2.64079e-22)
(0.596989 -0.0861986 -1.42101e-21)
(0.616181 -0.0862644 -1.3291e-22)
(0.634994 -0.0855183 -1.73243e-21)
(0.653402 -0.0840569 4.29601e-22)
(0.671349 -0.0820062 5.15952e-22)
(0.688828 -0.0794837 -5.50921e-23)
(0.705776 -0.076617 -2.15038e-22)