/*--------------------------------*- C++ -*----------------------------------*\
  =========                 |
  \\      /  F ield         | OpenFOAM: The Open Source CFD Toolbox
   \\    /   O peration     | Website:  https://openfoam.org
    \\  /    A nd           | Version:  7
     \\/     M anipulation  |
\*---------------------------------------------------------------------------*/
FoamFile
{
    version     2.0;
    format      ascii;
    class       volScalarField;
    location    "160";
    object      p;
}
// * * * * * * * * * * * * * * * * * * * * * * * * * * * * * * * * * * * * * //

dimensions      [0 2 -2 0 0 0 0];

internalField   nonuniform List<scalar> 
7156
(
-0.385991
-0.386544
-0.386883
-0.387145
-0.386961
-0.387365
-0.387616
-0.387805
-0.38792
-0.388175
-0.388339
-0.388455
-0.38886
-0.388969
-0.389047
-0.389089
-0.389774
-0.38974
-0.389732
-0.389701
-0.390654
-0.390481
-0.390389
-0.390286
-0.391494
-0.391188
-0.391014
-0.39084
-0.392289
-0.391855
-0.391601
-0.391358
-0.393035
-0.392478
-0.392147
-0.391837
-0.393726
-0.393054
-0.39265
-0.392273
-0.394359
-0.393579
-0.393105
-0.392666
-0.394932
-0.394052
-0.393512
-0.393012
-0.395441
-0.39447
-0.393869
-0.39331
-0.395887
-0.394833
-0.394175
-0.393561
-0.392972
-0.396267
-0.395141
-0.39443
-0.393765
-0.393123
-0.396583
-0.395393
-0.394635
-0.393922
-0.39323
-0.396834
-0.395591
-0.394791
-0.394034
-0.393295
-0.397022
-0.395736
-0.394899
-0.394102
-0.393318
-0.397149
-0.395829
-0.394961
-0.394128
-0.393303
-0.397217
-0.395874
-0.394981
-0.394116
-0.393252
-0.397228
-0.395873
-0.39496
-0.394067
-0.393168
-0.392273
-0.397188
-0.39583
-0.394903
-0.393987
-0.393055
-0.392117
-0.397099
-0.395748
-0.394813
-0.393879
-0.392917
-0.391938
-0.396966
-0.395633
-0.394695
-0.393747
-0.392759
-0.39174
-0.396795
-0.395489
-0.394554
-0.393595
-0.392584
-0.391528
-0.390432
-0.396591
-0.395321
-0.394394
-0.393429
-0.392397
-0.391307
-0.39016
-0.396359
-0.395135
-0.394221
-0.393253
-0.392204
-0.391081
-0.389885
-0.396108
-0.394937
-0.39404
-0.393073
-0.39201
-0.390855
-0.389612
-0.395843
-0.394733
-0.393858
-0.392895
-0.39182
-0.390636
-0.389347
-0.387974
-0.395572
-0.39453
-0.39368
-0.392725
-0.391639
-0.390428
-0.389094
-0.38766
-0.395303
-0.394334
-0.393513
-0.392568
-0.391474
-0.390237
-0.38886
-0.387366
-0.395044
-0.394154
-0.393365
-0.392431
-0.391331
-0.390069
-0.388651
-0.387098
-0.394803
-0.393997
-0.393241
-0.39232
-0.391216
-0.38993
-0.388471
-0.386862
-0.385141
-0.394591
-0.393871
-0.39315
-0.392243
-0.391134
-0.389827
-0.388329
-0.386664
-0.384874
-0.394415
-0.393784
-0.393098
-0.392206
-0.391094
-0.389764
-0.388228
-0.386511
-0.384653
-0.394286
-0.393744
-0.393093
-0.392216
-0.3911
-0.38975
-0.388177
-0.386409
-0.384487
-0.382466
-0.394214
-0.393759
-0.393144
-0.39228
-0.391161
-0.38979
-0.388181
-0.386364
-0.384381
-0.382288
-0.394207
-0.393839
-0.393256
-0.392406
-0.391282
-0.38989
-0.388247
-0.386383
-0.384342
-0.382181
-0.394277
-0.393991
-0.393439
-0.3926
-0.39147
-0.390058
-0.388381
-0.386471
-0.384376
-0.382152
-0.379868
-0.394433
-0.394224
-0.3937
-0.392869
-0.391733
-0.390299
-0.388589
-0.386637
-0.38449
-0.382208
-0.37986
-0.394685
-0.394546
-0.394046
-0.39322
-0.392075
-0.39062
-0.388878
-0.386885
-0.38469
-0.382355
-0.379948
-0.377548
-0.395041
-0.394964
-0.394484
-0.393661
-0.392505
-0.391027
-0.389253
-0.387222
-0.384983
-0.382598
-0.380139
-0.377684
-0.39551
-0.395487
-0.395021
-0.394196
-0.393027
-0.391525
-0.38972
-0.387652
-0.385372
-0.382944
-0.380438
-0.377935
-0.375515
-0.396102
-0.39612
-0.395663
-0.394833
-0.393647
-0.39212
-0.390285
-0.388182
-0.385864
-0.383396
-0.38085
-0.378304
-0.375843
-0.396823
-0.396872
-0.396416
-0.395575
-0.39437
-0.392817
-0.390951
-0.388814
-0.386462
-0.383959
-0.381377
-0.378796
-0.376299
-0.39768
-0.397747
-0.397287
-0.39643
-0.395201
-0.39362
-0.391722
-0.389554
-0.38717
-0.384635
-0.382023
-0.379413
-0.376886
-0.374523
-0.39868
-0.398751
-0.398278
-0.3974
-0.396143
-0.394532
-0.392603
-0.390404
-0.38799
-0.385428
-0.38279
-0.380154
-0.377603
-0.375215
-0.399827
-0.399888
-0.399395
-0.398489
-0.397201
-0.395557
-0.393596
-0.391366
-0.388925
-0.386337
-0.383677
-0.381021
-0.378449
-0.37604
-0.373867
-0.401125
-0.401162
-0.40064
-0.399701
-0.398377
-0.396697
-0.394702
-0.392442
-0.389974
-0.387364
-0.384684
-0.382011
-0.379422
-0.376995
-0.374799
-0.402577
-0.402575
-0.402017
-0.401037
-0.399673
-0.397954
-0.395924
-0.393633
-0.391139
-0.388508
-0.385811
-0.383123
-0.380519
-0.378075
-0.375857
-0.373923
-0.404186
-0.40413
-0.403527
-0.402501
-0.40109
-0.399329
-0.397261
-0.394938
-0.392419
-0.389768
-0.387055
-0.384353
-0.381736
-0.379275
-0.377034
-0.375066
-0.373409
-0.405954
-0.405829
-0.405172
-0.404092
-0.40263
-0.400822
-0.398714
-0.396358
-0.393812
-0.391141
-0.388412
-0.385697
-0.383066
-0.380588
-0.378321
-0.376316
-0.374605
-0.407879
-0.407672
-0.406952
-0.405812
-0.404293
-0.402434
-0.400283
-0.397891
-0.395318
-0.392625
-0.389881
-0.387152
-0.384506
-0.382008
-0.379711
-0.377662
-0.375887
-0.374399
-0.409963
-0.409659
-0.40887
-0.407662
-0.40608
-0.404165
-0.401966
-0.399537
-0.396934
-0.394219
-0.391456
-0.388712
-0.386049
-0.383527
-0.381195
-0.379093
-0.377244
-0.375654
-0.412205
-0.411791
-0.410923
-0.409641
-0.407989
-0.406014
-0.403764
-0.401293
-0.398657
-0.395917
-0.393135
-0.390373
-0.387689
-0.385138
-0.382764
-0.3806
-0.378662
-0.376951
-0.375458
-0.414602
-0.414067
-0.413112
-0.411748
-0.410021
-0.40798
-0.405675
-0.403158
-0.400487
-0.39772
-0.394915
-0.39213
-0.389421
-0.386835
-0.38441
-0.382171
-0.380128
-0.378277
-0.376601
-0.375075
-0.417155
-0.416485
-0.415437
-0.413984
-0.412176
-0.410063
-0.407697
-0.405132
-0.402422
-0.399622
-0.396791
-0.39398
-0.391239
-0.38861
-0.386123
-0.383796
-0.38163
-0.379615
-0.377729
-0.375939
-0.41986
-0.419046
-0.417896
-0.416348
-0.414452
-0.412262
-0.409832
-0.407212
-0.404459
-0.401624
-0.398761
-0.395918
-0.393138
-0.390457
-0.387896
-0.385464
-0.383157
-0.380954
-0.378827
-0.376739
-0.374687
-0.422716
-0.421748
-0.42049
-0.41884
-0.416849
-0.414578
-0.412077
-0.409399
-0.406597
-0.403722
-0.400822
-0.397941
-0.395114
-0.392369
-0.38972
-0.387167
-0.384697
-0.382281
-0.379885
-0.377466
-0.375011
-0.372395
-0.425721
-0.42459
-0.423216
-0.421458
-0.419368
-0.417008
-0.414432
-0.411691
-0.408836
-0.405916
-0.402973
-0.400046
-0.397162
-0.394342
-0.391589
-0.388896
-0.386239
-0.383584
-0.380891
-0.378112
-0.375226
-0.372112
-0.369074
-0.428873
-0.427571
-0.426076
-0.424203
-0.422008
-0.419555
-0.416898
-0.414089
-0.411176
-0.408205
-0.405212
-0.40223
-0.399279
-0.396368
-0.393495
-0.39064
-0.387773
-0.384854
-0.381837
-0.378672
-0.375333
-0.371709
-0.368049
-0.432171
-0.430689
-0.429068
-0.427075
-0.424768
-0.422217
-0.419475
-0.416593
-0.413617
-0.410587
-0.407537
-0.404491
-0.401459
-0.398444
-0.39543
-0.392392
-0.38929
-0.38608
-0.382714
-0.379141
-0.375335
-0.371195
-0.366932
-0.361521
-0.435612
-0.433945
-0.432191
-0.430074
-0.427651
-0.424996
-0.422164
-0.419203
-0.416158
-0.413065
-0.409949
-0.406826
-0.403701
-0.400563
-0.397389
-0.394143
-0.390782
-0.387255
-0.383516
-0.379517
-0.375234
-0.37058
-0.365739
-0.359832
-0.355764
-0.439197
-0.437337
-0.435446
-0.433199
-0.430655
-0.427893
-0.424966
-0.421922
-0.418802
-0.415636
-0.412444
-0.409234
-0.405999
-0.40272
-0.399363
-0.395885
-0.392239
-0.388372
-0.384239
-0.379798
-0.375033
-0.369871
-0.364479
-0.358107
-0.353285
-0.442923
-0.440865
-0.438832
-0.436451
-0.433782
-0.430908
-0.427881
-0.424749
-0.421547
-0.418302
-0.415024
-0.411712
-0.40835
-0.404908
-0.401345
-0.397611
-0.393653
-0.389423
-0.384877
-0.379984
-0.374734
-0.369075
-0.363159
-0.356351
-0.350868
-0.446791
-0.444528
-0.44235
-0.439831
-0.437033
-0.434043
-0.430912
-0.427686
-0.424396
-0.421062
-0.417686
-0.414258
-0.41075
-0.407124
-0.403329
-0.399312
-0.395019
-0.390403
-0.385429
-0.380075
-0.374342
-0.368197
-0.361786
-0.354569
-0.348502
-0.450798
-0.448326
-0.445999
-0.443338
-0.440408
-0.437298
-0.43406
-0.430734
-0.427349
-0.423916
-0.420429
-0.416867
-0.413193
-0.409359
-0.405307
-0.400981
-0.396328
-0.391306
-0.38589
-0.38007
-0.37386
-0.367243
-0.360363
-0.352763
-0.34618
-0.454945
-0.452259
-0.44978
-0.446974
-0.443908
-0.440676
-0.437325
-0.433895
-0.430406
-0.426863
-0.423251
-0.419537
-0.415674
-0.411607
-0.407272
-0.40261
-0.397574
-0.392128
-0.38626
-0.379971
-0.373289
-0.366217
-0.358895
-0.350933
-0.343892
-0.45923
-0.456326
-0.453691
-0.450738
-0.447534
-0.444176
-0.440709
-0.437168
-0.433567
-0.429903
-0.426148
-0.422262
-0.418188
-0.41386
-0.409215
-0.404193
-0.398751
-0.392866
-0.386536
-0.379779
-0.372635
-0.365122
-0.357382
-0.349081
-0.341629
-0.463653
-0.460525
-0.457733
-0.45463
-0.451286
-0.447799
-0.444212
-0.440553
-0.436831
-0.433031
-0.429118
-0.425038
-0.420726
-0.416112
-0.411129
-0.405721
-0.399854
-0.393515
-0.386718
-0.379495
-0.371898
-0.363962
-0.355826
-0.347204
-0.339382
-0.468212
-0.464856
-0.461904
-0.458651
-0.455165
-0.451546
-0.447834
-0.444051
-0.440196
-0.436247
-0.432155
-0.427858
-0.423283
-0.418354
-0.413005
-0.407188
-0.400877
-0.394073
-0.386805
-0.379119
-0.371081
-0.362738
-0.354227
-0.345303
-0.337143
-0.472905
-0.469318
-0.466204
-0.462799
-0.459169
-0.455416
-0.451573
-0.447658
-0.44366
-0.439544
-0.435253
-0.430715
-0.425848
-0.420577
-0.414837
-0.408587
-0.401815
-0.394537
-0.386796
-0.378654
-0.370186
-0.361452
-0.352586
-0.343375
-0.334906
-0.477731
-0.473908
-0.470631
-0.467072
-0.463297
-0.459407
-0.45543
-0.451373
-0.447219
-0.442919
-0.438407
-0.433601
-0.428415
-0.422772
-0.416614
-0.409911
-0.402663
-0.394904
-0.386691
-0.378099
-0.369215
-0.360105
-0.350902
-0.341418
-0.332664
-0.482686
-0.478624
-0.475183
-0.47147
-0.467548
-0.463518
-0.4594
-0.455193
-0.450867
-0.446365
-0.441608
-0.436506
-0.430972
-0.42493
-0.41833
-0.411153
-0.403418
-0.395172
-0.386489
-0.377457
-0.368168
-0.358698
-0.349174
-0.33943
-0.33041
-0.487766
-0.483462
-0.479857
-0.47599
-0.471919
-0.467746
-0.46348
-0.459112
-0.4546
-0.449874
-0.444847
-0.439422
-0.43351
-0.427041
-0.419975
-0.412308
-0.404075
-0.39534
-0.386191
-0.376727
-0.367047
-0.35723
-0.3474
-0.337409
-0.32814
-0.492968
-0.488419
-0.484649
-0.480627
-0.476408
-0.472087
-0.467667
-0.463126
-0.45841
-0.453439
-0.448115
-0.442337
-0.436019
-0.429096
-0.421541
-0.413369
-0.404629
-0.395405
-0.385796
-0.375909
-0.36585
-0.355701
-0.345579
-0.335352
-0.325846
-0.498286
-0.49349
-0.489555
-0.485378
-0.481008
-0.476536
-0.471954
-0.467227
-0.462289
-0.457048
-0.4514
-0.445241
-0.438486
-0.431084
-0.423021
-0.41433
-0.405079
-0.395365
-0.385302
-0.375004
-0.364579
-0.354111
-0.343709
-0.333256
-0.323526
-0.503714
-0.498669
-0.49457
-0.490238
-0.485716
-0.481088
-0.476334
-0.471406
-0.466226
-0.460692
-0.45469
-0.44812
-0.440901
-0.432995
-0.424407
-0.415185
-0.405419
-0.395219
-0.38471
-0.374011
-0.363232
-0.352457
-0.341788
-0.331118
-0.321173
-0.509244
-0.503949
-0.499686
-0.495201
-0.490524
-0.485735
-0.480799
-0.475656
-0.470212
-0.464357
-0.457974
-0.450962
-0.443252
-0.43482
-0.425689
-0.415929
-0.405646
-0.394965
-0.384017
-0.372929
-0.361809
-0.350739
-0.339813
-0.328935
-0.318784
-0.514869
-0.509324
-0.504898
-0.500259
-0.495426
-0.49047
-0.485341
-0.479964
-0.474234
-0.468031
-0.461237
-0.453754
-0.445527
-0.436547
-0.426861
-0.416556
-0.405756
-0.394599
-0.383224
-0.371757
-0.360307
-0.348953
-0.337781
-0.326703
-0.316354
-0.520579
-0.514783
-0.510197
-0.505404
-0.500412
-0.495282
-0.489948
-0.484319
-0.478279
-0.471701
-0.464464
-0.456483
-0.447713
-0.438168
-0.427914
-0.417061
-0.405746
-0.39412
-0.382327
-0.370493
-0.358725
-0.347098
-0.335689
-0.324419
-0.313879
-0.526364
-0.520318
-0.515572
-0.510627
-0.505474
-0.500161
-0.494608
-0.488708
-0.482333
-0.47535
-0.467643
-0.459134
-0.449799
-0.439672
-0.428842
-0.417438
-0.405613
-0.393526
-0.381324
-0.369135
-0.35706
-0.345171
-0.333534
-0.322079
-0.311354
-0.532212
-0.525918
-0.521015
-0.515916
-0.510599
-0.505096
-0.499309
-0.493116
-0.48638
-0.478963
-0.470756
-0.461694
-0.451772
-0.441049
-0.429636
-0.417681
-0.405352
-0.392813
-0.380214
-0.367682
-0.35531
-0.343168
-0.331313
-0.31968
-0.308777
-0.53811
-0.531571
-0.526513
-0.521262
-0.515775
-0.510072
-0.504035
-0.497528
-0.490404
-0.482524
-0.473788
-0.464147
-0.453621
-0.44229
-0.43029
-0.417787
-0.404959
-0.391978
-0.378994
-0.366129
-0.353473
-0.341087
-0.329022
-0.317218
-0.306142
-0.544045
-0.537264
-0.532054
-0.52665
-0.52099
-0.515076
-0.508772
-0.501927
-0.494387
-0.486016
-0.476723
-0.466481
-0.455333
-0.443385
-0.430796
-0.417748
-0.404431
-0.391019
-0.377661
-0.364475
-0.351544
-0.338925
-0.326656
-0.314689
-0.303445
-0.537625
-0.532068
-0.526229
-0.520093
-0.513504
-0.506297
-0.498313
-0.489421
-0.479545
-0.46868
-0.456896
-0.444325
-0.431147
-0.417561
-0.403763
-0.389931
-0.376211
-0.362715
-0.34952
-0.336676
-0.324214
-0.312089
-0.300683
-0.531477
-0.525106
-0.518213
-0.510619
-0.502163
-0.492723
-0.482238
-0.470732
-0.458299
-0.445101
-0.431337
-0.417219
-0.402951
-0.388711
-0.374642
-0.360847
-0.347398
-0.334338
-0.32169
-0.309414
-0.297852
-0.514873
-0.505917
-0.495901
-0.484786
-0.472621
-0.459532
-0.445704
-0.431357
-0.416717
-0.401991
-0.387356
-0.372948
-0.358867
-0.345174
-0.331906
-0.31908
-0.306661
-0.294948
-0.487171
-0.474333
-0.460581
-0.446125
-0.431203
-0.41605
-0.400879
-0.385861
-0.371127
-0.35677
-0.342843
-0.329378
-0.316381
-0.303824
-0.291967
-0.446355
-0.430866
-0.415213
-0.399608
-0.384221
-0.369175
-0.354552
-0.340402
-0.326747
-0.313588
-0.300901
-0.288905
-0.382432
-0.367086
-0.35221
-0.337846
-0.32401
-0.310698
-0.297887
-0.285759
-0.321164
-0.307705
-0.294778
-0.282524
-0.326207
-0.311758
-0.297804
-0.28434
-0.27151
-0.39104
-0.375068
-0.359411
-0.344146
-0.329321
-0.314962
-0.301074
-0.287646
-0.274862
-0.440469
-0.424889
-0.409084
-0.393252
-0.377555
-0.362116
-0.347022
-0.332328
-0.318065
-0.304246
-0.290858
-0.278124
-0.494596
-0.482704
-0.469751
-0.455883
-0.441292
-0.426195
-0.410807
-0.395325
-0.379914
-0.364704
-0.349789
-0.335232
-0.321071
-0.307326
-0.29398
-0.281299
-0.520406
-0.512282
-0.503158
-0.49295
-0.481641
-0.469283
-0.455997
-0.441951
-0.427345
-0.412385
-0.397264
-0.38215
-0.367179
-0.352452
-0.338038
-0.323985
-0.310318
-0.297018
-0.284391
-0.530493
-0.524193
-0.517253
-0.50952
-0.500859
-0.491176
-0.480435
-0.468663
-0.455954
-0.442454
-0.428346
-0.413823
-0.399074
-0.384269
-0.369546
-0.355015
-0.340752
-0.326811
-0.313227
-0.299975
-0.287404
-0.542635
-0.537648
-0.532394
-0.526754
-0.52069
-0.514051
-0.506688
-0.498469
-0.489291
-0.479099
-0.4679
-0.455763
-0.442811
-0.429205
-0.415128
-0.400762
-0.386275
-0.371811
-0.357484
-0.343379
-0.329555
-0.316057
-0.302854
-0.290342
-0.544672
-0.538399
-0.533559
-0.52846
-0.523005
-0.517169
-0.510814
-0.503802
-0.496003
-0.487308
-0.477649
-0.46701
-0.455437
-0.44303
-0.429931
-0.416307
-0.402333
-0.388175
-0.373979
-0.359864
-0.345923
-0.332222
-0.318812
-0.305662
-0.293209
-0.540218
-0.534171
-0.529479
-0.524536
-0.519261
-0.513642
-0.507557
-0.500878
-0.493479
-0.485246
-0.476099
-0.466005
-0.454987
-0.443122
-0.43053
-0.417365
-0.403792
-0.389972
-0.376053
-0.36216
-0.348389
-0.334815
-0.321499
-0.308401
-0.296009
-0.535781
-0.529963
-0.525421
-0.520633
-0.515533
-0.510124
-0.504296
-0.497933
-0.490912
-0.483119
-0.474464
-0.464899
-0.454424
-0.443095
-0.431012
-0.41831
-0.405145
-0.391673
-0.37804
-0.364375
-0.350782
-0.33734
-0.32412
-0.311077
-0.298747
-0.531374
-0.525785
-0.521395
-0.516762
-0.511835
-0.506627
-0.501044
-0.494979
-0.488317
-0.480942
-0.472759
-0.463704
-0.45376
-0.442959
-0.431383
-0.419149
-0.406398
-0.393282
-0.379944
-0.366516
-0.353107
-0.339802
-0.326681
-0.313694
-0.301426
-0.527009
-0.52165
-0.517413
-0.512933
-0.508176
-0.503163
-0.497812
-0.492029
-0.485706
-0.478729
-0.470996
-0.462433
-0.453005
-0.442725
-0.431652
-0.419887
-0.407557
-0.394804
-0.38177
-0.368587
-0.355368
-0.342205
-0.329187
-0.316257
-0.304051
-0.522695
-0.517566
-0.513482
-0.509157
-0.504565
-0.49974
-0.494611
-0.489096
-0.483094
-0.476493
-0.469189
-0.461098
-0.452171
-0.442401
-0.431827
-0.420531
-0.408626
-0.396243
-0.383521
-0.370591
-0.35757
-0.344554
-0.331642
-0.318769
-0.306628
-0.518442
-0.513542
-0.509612
-0.50544
-0.501012
-0.496368
-0.491452
-0.486191
-0.480491
-0.474246
-0.467351
-0.459713
-0.45127
-0.441998
-0.431917
-0.421088
-0.409611
-0.397605
-0.385202
-0.372533
-0.359717
-0.346852
-0.334051
-0.321235
-0.30916
-0.514259
-0.509586
-0.505809
-0.501789
-0.497523
-0.493056
-0.488343
-0.483323
-0.477909
-0.472001
-0.465494
-0.458289
-0.450313
-0.441525
-0.431928
-0.421565
-0.410517
-0.398893
-0.386817
-0.374416
-0.361812
-0.349105
-0.336417
-0.323661
-0.311653
-0.510154
-0.505704
-0.502081
-0.498212
-0.494104
-0.489809
-0.485292
-0.480501
-0.475358
-0.469769
-0.463629
-0.456837
-0.449309
-0.440992
-0.43187
-0.421968
-0.41135
-0.400112
-0.38837
-0.376245
-0.363859
-0.351317
-0.338747
-0.326049
-0.314113
-0.506133
-0.501903
-0.498431
-0.494713
-0.490762
-0.486635
-0.482306
-0.477733
-0.472847
-0.467559
-0.461767
-0.455368
-0.448271
-0.440409
-0.43175
-0.422303
-0.412115
-0.401267
-0.389863
-0.378022
-0.365863
-0.35349
-0.341043
-0.328406
-0.316544
-0.502201
-0.498187
-0.494866
-0.491297
-0.4875
-0.483537
-0.479391
-0.475026
-0.470384
-0.465381
-0.459919
-0.453893
-0.447207
-0.439784
-0.431577
-0.422578
-0.412817
-0.40236
-0.391301
-0.37975
-0.367825
-0.355628
-0.34331
-0.330735
-0.318954
-0.498365
-0.494562
-0.491389
-0.487967
-0.484323
-0.48052
-0.476551
-0.472387
-0.467976
-0.463243
-0.458093
-0.452421
-0.446128
-0.439127
-0.431359
-0.422798
-0.41346
-0.403396
-0.392685
-0.381432
-0.369748
-0.357735
-0.345552
-0.33304
-0.321348
-0.494627
-0.491029
-0.488002
-0.484727
-0.481233
-0.477588
-0.47379
-0.469819
-0.46563
-0.461153
-0.456297
-0.450962
-0.445043
-0.438446
-0.431102
-0.422971
-0.414051
-0.404377
-0.394019
-0.383069
-0.371635
-0.359814
-0.347772
-0.335326
-0.323734
-0.490992
-0.487592
-0.484709
-0.481577
-0.478232
-0.474743
-0.471113
-0.467328
-0.46335
-0.459116
-0.454541
-0.449523
-0.44396
-0.43775
-0.430815
-0.423102
-0.414593
-0.405309
-0.395305
-0.384664
-0.373487
-0.361865
-0.349974
-0.337597
-0.326119
-0.487461
-0.484252
-0.48151
-0.478521
-0.475323
-0.471986
-0.46852
-0.464915
-0.461141
-0.457139
-0.452828
-0.448113
-0.442887
-0.437047
-0.430505
-0.423197
-0.415091
-0.406193
-0.396545
-0.386217
-0.375305
-0.363892
-0.352161
-0.339856
-0.32851
-0.484035
-0.481011
-0.478407
-0.475558
-0.472505
-0.469319
-0.466013
-0.462584
-0.459006
-0.455225
-0.451167
-0.446737
-0.441831
-0.436344
-0.430178
-0.423262
-0.415549
-0.407033
-0.39774
-0.38773
-0.377089
-0.365894
-0.354335
-0.342107
-0.330916
-0.480715
-0.477868
-0.475398
-0.472687
-0.469778
-0.466741
-0.463594
-0.460336
-0.456947
-0.453378
-0.44956
-0.445401
-0.440799
-0.435646
-0.429841
-0.423302
-0.415972
-0.407831
-0.398892
-0.389202
-0.37884
-0.367872
-0.356497
-0.344353
-0.333346
-0.477501
-0.474823
-0.472484
-0.469909
-0.467142
-0.464252
-0.461261
-0.458171
-0.454965
-0.451601
-0.448012
-0.444111
-0.439797
-0.434961
-0.4295
-0.423323
-0.416363
-0.408589
-0.4
-0.390633
-0.380556
-0.369825
-0.358648
-0.346597
-0.335809
-0.474392
-0.471875
-0.469663
-0.467221
-0.464594
-0.461851
-0.459014
-0.456089
-0.453062
-0.449895
-0.446525
-0.442869
-0.438828
-0.434294
-0.429159
-0.423328
-0.416727
-0.409309
-0.401066
-0.392022
-0.382236
-0.371751
-0.360789
-0.348839
-0.338314
-0.471384
-0.46902
-0.466932
-0.464622
-0.462134
-0.459536
-0.456852
-0.454089
-0.451237
-0.448261
-0.445101
-0.441679
-0.437897
-0.433648
-0.428824
-0.423323
-0.417065
-0.409994
-0.40209
-0.393366
-0.383875
-0.373647
-0.362917
-0.351081
-0.340871
-0.468476
-0.466257
-0.464289
-0.462108
-0.459758
-0.457304
-0.454771
-0.452169
-0.449489
-0.446698
-0.443741
-0.440542
-0.437006
-0.433027
-0.428497
-0.42331
-0.41738
-0.410643
-0.40307
-0.394664
-0.385471
-0.375507
-0.365029
-0.35332
-0.343488
-0.465663
-0.463582
-0.46173
-0.459676
-0.457462
-0.455152
-0.45277
-0.450327
-0.447816
-0.445205
-0.442444
-0.439458
-0.436156
-0.432434
-0.428182
-0.423293
-0.417675
-0.411259
-0.404006
-0.395913
-0.387017
-0.377327
-0.367119
-0.355556
-0.346173
-0.462941
-0.46099
-0.459251
-0.457322
-0.455243
-0.453076
-0.450844
-0.448559
-0.446214
-0.443781
-0.441209
-0.438428
-0.435349
-0.43187
-0.42788
-0.423273
-0.417951
-0.411841
-0.404897
-0.397107
-0.388508
-0.379096
-0.36918
-0.35778
-0.348933
-0.460305
-0.458477
-0.456848
-0.455042
-0.453097
-0.451071
-0.448989
-0.44686
-0.44468
-0.44242
-0.440033
-0.437449
-0.434583
-0.431334
-0.427593
-0.423251
-0.41821
-0.412389
-0.405739
-0.398243
-0.389936
-0.380805
-0.371199
-0.359985
-0.457748
-0.456037
-0.454516
-0.45283
-0.451017
-0.449133
-0.447199
-0.445227
-0.44321
-0.44112
-0.438913
-0.43652
-0.433858
-0.430827
-0.427321
-0.423229
-0.418451
-0.412903
-0.406532
-0.399316
-0.391291
-0.382441
-0.373161
-0.455264
-0.453664
-0.452248
-0.450681
-0.449
-0.447256
-0.445471
-0.443654
-0.441798
-0.439876
-0.437844
-0.435636
-0.433169
-0.430347
-0.427062
-0.423205
-0.418674
-0.413382
-0.407272
-0.40032
-0.392565
-0.383989
-0.452846
-0.451353
-0.450039
-0.44859
-0.447039
-0.445435
-0.443797
-0.442134
-0.440438
-0.438682
-0.436821
-0.434792
-0.432513
-0.429889
-0.426814
-0.423179
-0.418878
-0.413825
-0.407957
-0.40125
-0.393746
-0.385432
-0.450486
-0.449097
-0.447883
-0.44655
-0.445128
-0.443663
-0.442172
-0.440662
-0.439124
-0.437531
-0.435838
-0.433983
-0.431886
-0.429451
-0.426575
-0.423147
-0.419062
-0.414229
-0.408584
-0.402099
-0.394823
-0.448177
-0.446889
-0.445773
-0.444555
-0.443261
-0.441934
-0.440588
-0.43923
-0.437848
-0.436416
-0.434888
-0.433203
-0.43128
-0.429027
-0.426339
-0.423106
-0.419223
-0.414593
-0.40915
-0.402863
-0.445912
-0.444722
-0.443704
-0.442598
-0.441431
-0.44024
-0.439039
-0.437831
-0.436604
-0.43533
-0.433963
-0.432443
-0.430689
-0.42861
-0.426101
-0.423053
-0.419357
-0.414914
-0.409652
-0.403538
-0.443681
-0.44259
-0.441667
-0.440674
-0.439632
-0.438576
-0.437518
-0.436458
-0.435383
-0.434264
-0.433056
-0.431695
-0.430105
-0.428193
-0.425856
-0.422982
-0.41946
-0.415189
-0.41009
-0.441479
-0.440486
-0.439658
-0.438776
-0.437858
-0.436935
-0.436017
-0.435102
-0.434177
-0.43321
-0.432156
-0.430952
-0.42952
-0.427769
-0.425595
-0.422886
-0.419529
-0.415416
-0.439296
-0.438403
-0.43767
-0.436898
-0.436102
-0.43531
-0.43453
-0.433758
-0.432979
-0.432161
-0.431256
-0.430204
-0.428925
-0.427329
-0.425311
-0.422759
-0.419557
-0.41559
-0.437127
-0.436335
-0.435698
-0.435034
-0.434358
-0.433695
-0.433049
-0.432417
-0.43178
-0.431106
-0.430348
-0.429442
-0.428311
-0.426863
-0.424996
-0.422594
-0.419538
-0.434965
-0.434277
-0.433735
-0.433179
-0.432621
-0.432083
-0.431569
-0.431072
-0.430574
-0.430039
-0.429421
-0.428656
-0.427668
-0.426364
-0.42464
-0.422381
-0.419466
-0.432805
-0.432224
-0.431778
-0.431328
-0.430886
-0.43047
-0.430084
-0.429718
-0.429352
-0.428952
-0.428469
-0.42784
-0.426987
-0.42582
-0.424235
-0.422114
-0.430641
-0.430172
-0.429821
-0.429476
-0.429148
-0.428851
-0.428587
-0.428347
-0.428109
-0.427837
-0.427483
-0.426983
-0.426261
-0.425225
-0.423771
-0.428469
-0.428117
-0.427862
-0.427621
-0.427403
-0.427221
-0.427075
-0.426955
-0.426838
-0.426688
-0.426456
-0.426079
-0.42548
-0.424569
-0.423241
-0.426288
-0.426056
-0.425898
-0.425759
-0.425649
-0.425577
-0.425544
-0.425537
-0.425535
-0.425499
-0.425382
-0.42512
-0.424638
-0.423845
-0.424093
-0.423988
-0.423927
-0.423889
-0.423882
-0.423916
-0.42399
-0.42409
-0.424195
-0.424267
-0.424257
-0.424103
-0.423729
-0.423046
-0.421886
-0.421911
-0.421947
-0.422008
-0.422103
-0.422237
-0.422411
-0.422612
-0.422816
-0.422987
-0.423076
-0.423021
-0.422748
-0.419666
-0.419826
-0.41996
-0.420117
-0.420308
-0.420539
-0.420806
-0.4211
-0.421396
-0.421658
-0.421837
-0.421873
-0.421692
-0.417435
-0.417734
-0.417965
-0.418217
-0.418501
-0.418821
-0.419176
-0.419555
-0.419935
-0.420279
-0.420539
-0.420658
-0.415195
-0.415636
-0.415964
-0.416308
-0.41668
-0.417084
-0.417521
-0.417978
-0.418432
-0.41885
-0.419184
-0.419375
-0.41295
-0.413537
-0.41396
-0.414393
-0.41485
-0.415332
-0.415842
-0.416369
-0.416891
-0.417373
-0.417771
-0.418027
-0.410704
-0.411439
-0.411957
-0.412476
-0.413012
-0.413567
-0.414144
-0.414733
-0.415314
-0.415853
-0.416306
-0.408464
-0.409348
-0.409959
-0.41056
-0.411171
-0.411792
-0.412429
-0.413074
-0.413705
-0.414293
-0.414793
-0.406235
-0.407268
-0.407971
-0.40865
-0.409331
-0.410013
-0.410704
-0.411396
-0.412071
-0.412698
-0.404026
-0.405207
-0.405998
-0.406753
-0.407499
-0.408236
-0.408973
-0.409706
-0.410417
-0.411077
-0.401843
-0.403171
-0.404047
-0.404873
-0.405679
-0.406465
-0.407243
-0.40801
-0.40875
-0.409437
-0.399696
-0.401168
-0.402125
-0.403018
-0.403878
-0.404708
-0.405521
-0.406316
-0.407079
-0.397593
-0.399204
-0.40024
-0.401194
-0.402104
-0.402972
-0.403814
-0.404631
-0.405412
-0.395544
-0.397288
-0.398398
-0.399409
-0.400364
-0.401265
-0.402131
-0.402965
-0.403757
-0.393556
-0.395429
-0.396607
-0.397671
-0.398666
-0.399594
-0.400479
-0.401325
-0.39164
-0.393633
-0.394875
-0.395986
-0.397016
-0.397968
-0.398867
-0.399721
-0.389804
-0.391909
-0.393209
-0.394363
-0.395423
-0.396393
-0.397302
-0.39816
-0.388057
-0.390265
-0.391618
-0.392809
-0.393893
-0.394878
-0.395793
-0.396651
-0.386406
-0.388707
-0.390107
-0.391329
-0.392434
-0.393429
-0.394347
-0.38486
-0.387243
-0.388683
-0.389932
-0.391053
-0.392054
-0.39297
-0.383425
-0.385879
-0.387352
-0.388623
-0.389754
-0.390757
-0.391669
-0.382107
-0.384619
-0.38612
-0.387406
-0.388545
-0.389546
-0.380911
-0.38347
-0.384992
-0.386288
-0.387429
-0.388425
-0.379841
-0.382435
-0.38397
-0.385272
-0.386411
-0.387399
-0.378901
-0.381517
-0.383059
-0.384361
-0.385493
-0.38647
-0.378093
-0.380718
-0.382261
-0.383557
-0.384678
-0.38564
-0.377418
-0.38004
-0.381576
-0.382861
-0.383968
-0.376877
-0.379482
-0.381005
-0.382275
-0.383363
-0.376468
-0.379045
-0.380549
-0.381798
-0.382864
-0.376191
-0.378727
-0.380205
-0.381429
-0.382469
-0.376041
-0.378525
-0.379971
-0.381165
-0.382177
-0.376016
-0.378437
-0.379845
-0.381005
-0.381983
-0.376111
-0.378457
-0.379822
-0.380943
-0.381885
-0.37632
-0.378582
-0.379897
-0.380975
-0.376637
-0.378805
-0.380067
-0.381098
-0.377057
-0.379121
-0.380324
-0.381305
-0.37757
-0.379524
-0.380663
-0.38159
-0.37817
-0.380004
-0.381076
-0.381946
-0.378848
-0.380556
-0.381556
-0.382367
-0.379595
-0.381171
-0.382096
-0.382845
-0.380402
-0.381841
-0.382688
-0.383373
-0.381261
-0.382558
-0.383324
-0.383942
-0.382161
-0.383313
-0.383996
-0.384546
-0.383093
-0.384097
-0.384696
-0.385175
-0.384048
-0.384902
-0.385416
-0.385823
-0.385017
-0.385721
-0.386147
-0.386482
-0.266572
-0.269823
-0.273001
-0.276108
-0.279149
-0.282126
-0.285043
-0.287903
-0.290708
-0.293462
-0.296168
-0.29883
-0.301448
-0.304027
-0.306569
-0.309077
-0.311552
-0.313996
-0.316412
-0.318803
-0.321169
-0.323513
-0.325839
-0.32815
-0.330449
-0.332741
-0.335035
-0.337339
-0.339665
-0.249089
-0.252334
-0.255522
-0.258655
-0.261736
-0.264768
-0.267753
-0.270694
-0.273595
-0.276458
-0.279287
-0.282083
-0.284852
-0.287595
-0.290318
-0.293022
-0.295712
-0.298393
-0.301068
-0.303743
-0.306422
-0.309112
-0.311819
-0.31455
-0.317313
-0.320118
-0.322975
-0.325896
-0.328895
-0.23287
-0.236065
-0.239217
-0.242327
-0.245398
-0.248433
-0.251433
-0.254401
-0.257341
-0.260254
-0.263142
-0.26601
-0.26886
-0.271694
-0.274516
-0.27733
-0.280137
-0.282943
-0.28575
-0.288563
-0.291386
-0.294222
-0.297077
-0.299955
-0.302862
-0.305802
-0.308783
-0.311809
-0.314887
-0.21789
-0.221006
-0.22409
-0.227141
-0.230164
-0.23316
-0.236131
-0.239078
-0.242006
-0.244914
-0.247807
-0.250685
-0.253552
-0.256411
-0.259263
-0.262111
-0.264958
-0.267808
-0.270662
-0.273523
-0.276397
-0.279284
-0.28219
-0.285118
-0.288072
-0.291056
-0.294077
-0.297138
-0.300247
-0.30341
-0.204006
-0.207023
-0.210016
-0.212985
-0.215934
-0.218862
-0.221773
-0.224668
-0.227548
-0.230417
-0.233275
-0.236126
-0.23897
-0.241811
-0.24465
-0.24749
-0.250333
-0.253182
-0.25604
-0.258909
-0.261791
-0.264691
-0.267611
-0.270555
-0.273526
-0.276528
-0.279566
-0.282643
-0.285764
-0.288934
-0.1911
-0.194005
-0.196891
-0.199761
-0.202616
-0.205457
-0.208285
-0.211104
-0.213913
-0.216715
-0.219512
-0.222304
-0.225095
-0.227886
-0.230679
-0.233476
-0.236279
-0.23909
-0.241912
-0.244746
-0.247595
-0.250462
-0.25335
-0.25626
-0.259195
-0.26216
-0.265155
-0.268186
-0.271255
-0.274365
-0.179075
-0.181858
-0.184628
-0.187386
-0.190134
-0.192873
-0.195604
-0.198328
-0.201048
-0.203764
-0.206478
-0.209192
-0.211906
-0.214624
-0.217346
-0.220074
-0.22281
-0.225555
-0.228313
-0.231084
-0.23387
-0.236674
-0.239499
-0.242345
-0.245216
-0.248113
-0.25104
-0.254
-0.256994
-0.260026
-0.167848
-0.170504
-0.17315
-0.175789
-0.178421
-0.181048
-0.18367
-0.186289
-0.188906
-0.191522
-0.194139
-0.196758
-0.19938
-0.202007
-0.204641
-0.207282
-0.209932
-0.212593
-0.215267
-0.217955
-0.220659
-0.22338
-0.226121
-0.228884
-0.23167
-0.234482
-0.237321
-0.24019
-0.243091
-0.246027
-0.157346
-0.159872
-0.162391
-0.164906
-0.167416
-0.169924
-0.17243
-0.174936
-0.177441
-0.179949
-0.182458
-0.184972
-0.187491
-0.190016
-0.192548
-0.195089
-0.197641
-0.200204
-0.20278
-0.20537
-0.207976
-0.2106
-0.213243
-0.215906
-0.218592
-0.221302
-0.224038
-0.226802
-0.229595
-0.232421
-0.147509
-0.149903
-0.152293
-0.154682
-0.157068
-0.159454
-0.16184
-0.164226
-0.166615
-0.169008
-0.171404
-0.173805
-0.176212
-0.178627
-0.18105
-0.183483
-0.185926
-0.188381
-0.190849
-0.193332
-0.19583
-0.198346
-0.20088
-0.203434
-0.206009
-0.208607
-0.21123
-0.213879
-0.216556
-0.219262
-0.138277
-0.140541
-0.142803
-0.145065
-0.147327
-0.149589
-0.151853
-0.154119
-0.156389
-0.158663
-0.160942
-0.163226
-0.165518
-0.167818
-0.170126
-0.172445
-0.174774
-0.177115
-0.179469
-0.181838
-0.184222
-0.186622
-0.18904
-0.191478
-0.193935
-0.196415
-0.198917
-0.201444
-0.203997
-0.206578
-0.129604
-0.13174
-0.133876
-0.136012
-0.13815
-0.14029
-0.142432
-0.144577
-0.146727
-0.148881
-0.151041
-0.153208
-0.155382
-0.157564
-0.159755
-0.161957
-0.164169
-0.166393
-0.168629
-0.17088
-0.173145
-0.175427
-0.177725
-0.180041
-0.182377