/*--------------------------------*- C++ -*----------------------------------*\
  =========                 |
  \\      /  F ield         | OpenFOAM: The Open Source CFD Toolbox
   \\    /   O peration     | Website:  https://openfoam.org
    \\  /    A nd           | Version:  7
     \\/     M anipulation  |
\*---------------------------------------------------------------------------*/
FoamFile
{
    version     2.0;
    format      ascii;
    class       volVectorField;
    location    "160";
    object      U;
}
// * * * * * * * * * * * * * * * * * * * * * * * * * * * * * * * * * * * * * //

dimensions      [0 1 -1 0 0 0 0];

internalField   nonuniform List<vector> 
7156
(
(-0.000233996 0.0197118 -3.17019e-21)
(-0.00109 0.0556072 -1.57688e-21)
(-0.0026946 0.0885882 2.52915e-21)
(-0.00494714 0.118469 -2.02944e-21)
(-0.00051849 0.0198682 6.94081e-21)
(-0.00178138 0.0560938 3.08138e-21)
(-0.00357549 0.0894231 -6.28803e-21)
(-0.00586164 0.119665 1.39468e-20)
(-0.00080627 0.0199621 1.23164e-21)
(-0.00248518 0.056419 -2.29238e-22)
(-0.00448014 0.0900207 -2.34703e-20)
(-0.00681115 0.120567 -1.67959e-20)
(-0.00109474 0.0199947 1.54822e-20)
(-0.00319527 0.0565851 -2.29776e-21)
(-0.0054007 0.0903834 2.6372e-20)
(-0.00778737 0.121176 1.2147e-20)
(-0.00138146 0.0199673 -2.57547e-20)
(-0.00390578 0.0565947 -5.79021e-21)
(-0.00632958 0.0905134 -9.40362e-21)
(-0.00878228 0.121494 2.86816e-20)
(-0.00166398 0.0198818 9.53977e-23)
(-0.00461098 0.0564519 3.04207e-20)
(-0.00725936 0.0904152 -5.77012e-22)
(-0.0097879 0.121524 2.12172e-20)
(-0.00194008 0.0197404 3.47476e-20)
(-0.00530545 0.0561611 3.2448e-20)
(-0.00818295 0.0900945 -2.31465e-20)
(-0.0107966 0.121271 1.60591e-20)
(-0.00220768 0.0195457 -2.49255e-20)
(-0.00598411 0.0557281 -2.31821e-20)
(-0.0090936 0.089558 3.44097e-20)
(-0.0118009 0.120743 -5.40963e-20)
(-0.00246488 0.0193005 -2.55831e-20)
(-0.00664221 0.0551593 -5.57463e-20)
(-0.00998501 0.0888139 -7.87094e-21)
(-0.0127939 0.119946 -7.97109e-20)
(-0.00270995 0.0190081 5.68739e-20)
(-0.00727548 0.0544621 1.58361e-20)
(-0.0108514 0.0878715 -8.28545e-21)
(-0.0137691 0.118892 1.29675e-19)
(-0.00294141 0.018672 1.84004e-20)
(-0.00788011 0.0536443 -4.14545e-20)
(-0.0116875 0.0867412 -1.60463e-20)
(-0.0147208 0.117591 -1.40089e-20)
(-0.00315799 0.0182957 3.97423e-21)
(-0.00845283 0.0527148 1.01833e-19)
(-0.0124889 0.0854345 -4.15013e-20)
(-0.0156437 0.116056 -2.90802e-20)
(-0.00335867 0.0178833 1.72387e-20)
(-0.00899083 0.0516828 -7.38579e-20)
(-0.0132517 0.0839636 -8.39074e-21)
(-0.0165332 0.1143 2.11086e-20)
(-0.00354262 0.0174389 -1.48988e-20)
(-0.00949186 0.0505581 9.44055e-20)
(-0.0139724 0.0823421 -5.09335e-20)
(-0.0173856 0.112338 -2.86785e-20)
(-0.0198633 0.140193 -4.34006e-20)
(-0.00370929 0.0169665 -8.56503e-20)
(-0.00995415 0.0493508 -6.22232e-20)
(-0.0146484 0.0805837 1.16181e-19)
(-0.0181974 0.110187 1.00837e-19)
(-0.0207241 0.137788 2.38758e-20)
(-0.00385837 0.0164705 7.47444e-20)
(-0.0103766 0.0480715 5.0097e-21)
(-0.0152778 0.0787033 -8.9256e-20)
(-0.0189661 0.107863 1.46323e-20)
(-0.0215535 0.135162 6.15058e-20)
(-0.00398983 0.0159551 -1.76734e-20)
(-0.0107588 0.0467307 1.28119e-20)
(-0.0158596 0.0767157 4.13587e-20)
(-0.0196902 0.105384 -6.49929e-20)
(-0.0223495 0.132332 -6.72731e-20)
(-0.0041039 0.0154245 -1.403e-19)
(-0.0111009 0.0453393 3.32033e-20)
(-0.0163938 0.0746363 -6.11383e-20)
(-0.0203693 0.102768 1.85091e-19)
(-0.0231111 0.129318 5.31326e-20)
(-0.00420108 0.0148832 8.77363e-20)
(-0.0114039 0.0439083 -2.55096e-20)
(-0.0168813 0.0724806 7.65146e-20)
(-0.0210038 0.100034 1.37995e-19)
(-0.0238381 0.126141 5.64704e-20)
(-0.00428213 0.0143355 1.31541e-19)
(-0.0116692 0.0424485 -6.03646e-20)
(-0.0173237 0.0702646 6.84059e-20)
(-0.0215952 0.0972015 -9.74782e-20)
(-0.0245315 0.122821 6.78418e-21)
(-0.00434802 0.0137856 -9.42894e-20)
(-0.0118989 0.0409709 -4.03113e-21)
(-0.0177231 0.0680038 2.17164e-20)
(-0.0221454 0.0942888 -2.41324e-19)
(-0.0251926 0.11938 7.78394e-20)
(-0.0269006 0.142891 9.33856e-20)
(-0.00439996 0.0132377 -2.15465e-20)
(-0.0120954 0.0394862 1.03566e-19)
(-0.0180826 0.0657141 -1.61082e-19)
(-0.0226571 0.0913154 -1.49871e-20)
(-0.0258235 0.11584 -5.62562e-20)
(-0.0275991 0.138895 1.30234e-19)
(-0.00443938 0.0126958 -1.48393e-19)
(-0.0122619 0.0380048 -2.14703e-19)
(-0.0184058 0.0634109 1.99142e-19)
(-0.0231338 0.0883006 -5.28194e-20)
(-0.026427 0.112221 8.52433e-20)
(-0.0282832 0.134778 -2.44477e-19)
(-0.00446791 0.0121637 6.63124e-20)
(-0.012402 0.0365368 3.15897e-19)
(-0.0186972 0.061109 -3.96579e-20)
(-0.0235796 0.0852632 1.09189e-19)
(-0.0270065 0.108547 -6.1143e-20)
(-0.028955 0.130563 9.32103e-20)
(-0.00448737 0.0116451 -1.73239e-19)
(-0.0125197 0.0350919 -4.40384e-21)
(-0.0189615 0.0588229 -2.79238e-19)
(-0.0239993 0.0822213 5.27684e-20)
(-0.0275658 0.104837 -2.72462e-20)
(-0.0296172 0.126275 7.03967e-20)
(-0.0301394 0.146202 -2.38136e-19)
(-0.00449977 0.0111436 -1.50272e-20)
(-0.0126195 0.0336793 -1.3646e-19)
(-0.0192042 0.0565665 1.82291e-19)
(-0.0243984 0.0791927 9.32536e-20)
(-0.0281093 0.101113 -2.03057e-19)
(-0.0302722 0.121937 -3.36435e-20)
(-0.0308548 0.141333 2.49422e-19)
(-0.00450722 0.0106623 2.24678e-19)
(-0.0127062 0.0323075 2.19511e-19)
(-0.0194311 0.0543529 1.6581e-20)
(-0.0247822 0.0761943 -2.12086e-19)
(-0.0286414 0.0973941 7.07941e-20)
(-0.0309224 0.11757 -1.00574e-19)
(-0.0315751 0.136395 -1.62577e-19)
(-0.004512 0.0102042 1.40077e-19)
(-0.0127846 0.0309846 -1.49184e-19)
(-0.0196482 0.0521943 -5.95723e-20)
(-0.0251566 0.073242 -5.98641e-22)
(-0.0291664 0.0937006 -1.42079e-19)
(-0.0315702 0.113197 1.34683e-19)
(-0.0322998 0.131414 -3.43811e-20)
(-0.00451644 0.00977203 -1.42454e-19)
(-0.0128601 0.0297177 -2.41162e-20)
(-0.0198617 0.050102 1.08938e-19)
(-0.0255273 0.0703506 1.40896e-19)
(-0.0296885 0.0900502 3.55868e-19)
(-0.0322172 0.10884 -1.58118e-19)
(-0.0330278 0.126411 5.18093e-20)
(-0.0320638 0.142512 -1.85345e-19)
(-0.00452293 0.00936815 -6.41069e-20)
(-0.0129379 0.0285133 -3.05012e-20)
(-0.0200776 0.0480862 -3.21285e-19)
(-0.0258999 0.067534 2.71812e-20)
(-0.0302117 0.0864599 7.72647e-20)
(-0.0328647 0.104518 -6.57314e-20)
(-0.0337562 0.121411 1.69308e-19)
(-0.0328157 0.136897 1.55149e-19)
(-0.00453389 0.00899458 -1.70905e-21)
(-0.0130231 0.027377 2.19422e-19)
(-0.020302 0.0461558 2.33431e-19)
(-0.0262794 0.0648045 -3.24508e-19)
(-0.0307388 0.0829456 -1.8972e-19)
(-0.0335125 0.10025 2.1393e-21)
(-0.0344812 0.116436 -8.12678e-20)
(-0.0335609 0.131272 -7.56048e-20)
(-0.00455169 0.00865297 -3.05811e-21)
(-0.0131208 0.0263135 -5.08575e-20)
(-0.0205403 0.0443187 -1.87328e-20)
(-0.0266704 0.0621731 -3.44048e-20)
(-0.0312721 0.0795214 4.15608e-20)
(-0.0341593 0.0960541 -3.23498e-20)
(-0.035197 0.111507 -1.21278e-20)
(-0.0342882 0.125661 1.27082e-19)
(-0.00457863 0.00834458 1.38955e-19)
(-0.0132358 0.0253263 -1.43548e-19)
(-0.0207976 0.0425812 -1.55161e-19)
(-0.0270765 0.0596492 1.64038e-19)
(-0.0318125 0.0762 9.87533e-20)
(-0.0348022 0.0919464 1.17832e-20)
(-0.0358957 0.106643 -5.81703e-20)
(-0.034984 0.120086 1.50561e-19)
(-0.0319942 0.132111 -3.80257e-19)
(-0.00461689 0.00807021 2.5686e-20)
(-0.0133724 0.0244182 1.64099e-19)
(-0.0210782 0.0409483 -1.21613e-20)
(-0.0275003 0.0572407 9.53317e-21)
(-0.0323595 0.0729926 -1.92997e-20)
(-0.0354364 0.0879416 -4.50674e-21)
(-0.0365674 0.101863 3.36087e-20)
(-0.0356319 0.11457 -2.36568e-19)
(-0.0325468 0.125911 2.56566e-19)
(-0.00466846 0.00783025 -9.3167e-20)
(-0.0135345 0.0235906 1.06512e-19)
(-0.0213854 0.0394235 1.4685e-20)
(-0.0279433 0.0549535 5.0803e-20)
(-0.0329111 0.0699083 -4.32953e-20)
(-0.0360552 0.0840524 9.24372e-20)
(-0.0371994 0.0971838 -1.64392e-19)
(-0.0362122 0.109134 -1.90353e-20)
(-0.0330008 0.119767 -1.17886e-19)
(-0.0047351 0.00762457 -2.69449e-20)
(-0.0137251 0.0228438 6.24645e-20)
(-0.0217217 0.0380086 1.8155e-19)
(-0.0284052 0.0527919 -1.23713e-19)
(-0.0334631 0.0669546 1.30472e-19)
(-0.0366493 0.08029 -4.47796e-20)
(-0.037776 0.0926209 -6.54718e-20)
(-0.0367018 0.103799 1.23501e-19)
(-0.0333243 0.113703 4.91962e-20)
(-0.0275731 0.12224 7.68696e-20)
(-0.00481829 0.00745257 -2.85746e-20)
(-0.0139468 0.022177 -6.78101e-20)
(-0.0220881 0.0367039 -1.62275e-19)
(-0.0288842 0.0507584 2.15392e-19)
(-0.0340097 0.0641369 -1.19082e-19)
(-0.0372072 0.0766634 -7.39955e-20)
(-0.038279 0.0881873 -6.28747e-20)
(-0.0370743 0.0985816 2.87366e-19)
(-0.0334816 0.107742 1.33911e-19)
(-0.0274205 0.115588 -2.47924e-19)
(-0.00491914 0.00731314 -5.88485e-20)
(-0.0142009 0.0215882 1.87891e-20)
(-0.0224843 0.0355081 -1.14012e-19)
(-0.0293769 0.0488534 -2.80047e-19)
(-0.0345425 0.0614584 -3.87512e-20)
(-0.0377147 0.0731797 2.70742e-19)
(-0.038687 0.0838944 -2.26859e-19)
(-0.0372999 0.0934983 1.22256e-19)
(-0.0334328 0.101906 -7.82439e-20)
(-0.0269953 0.10905 2.24856e-20)
(-0.00503839 0.00720469 -7.90202e-20)
(-0.014488 0.0210741 3.81165e-20)
(-0.0229086 0.0344181 2.13866e-19)
(-0.0298778 0.0470756 1.51385e-19)
(-0.0350511 0.0589205 -7.19475e-20)
(-0.0381552 0.0698437 -8.06052e-20)
(-0.0389758 0.0797515 3.51233e-19)
(-0.0373454 0.0885634 -2.97934e-19)
(-0.0331345 0.096213 1.15678e-19)
(-0.0262423 0.102648 -3.74257e-20)
(-0.0165891 0.107834 4.046e-19)
(-0.00517634 0.00712512 3.70687e-20)
(-0.0148074 0.0206305 -9.32694e-20)
(-0.0233576 0.0334294 -8.68484e-20)
(-0.0303794 0.0454216 1.05574e-19)
(-0.0355229 0.0565224 -1.16477e-19)
(-0.0385094 0.0666582 -2.10336e-20)
(-0.0391182 0.0757655 -3.86802e-19)
(-0.0371746 0.0837887 4.38272e-19)
(-0.0325399 0.0906815 -1.96997e-19)
(-0.0251024 0.0964082 1.48881e-19)
(-0.0147692 0.100945 4.99504e-20)
(-0.0053328 0.00707186 -1.96366e-19)
(-0.0151574 0.0202516 4.27354e-19)
(-0.0238264 0.0325358 9.50494e-20)
(-0.0308724 0.0438863 -9.84041e-20)
(-0.0359428 0.0542612 2.33232e-21)
(-0.0387555 0.0636236 1.59886e-19)
(-0.0390847 0.071941 2.78813e-19)
(-0.0367485 0.0791837 -6.64852e-20)
(-0.0315994 0.085326 -1.27008e-19)
(-0.0235139 0.0903494 -3.29598e-19)
(-0.0123852 0.0942439 -3.64245e-19)
(0.00188485 0.09701 8.07527e-21)
(-0.00550709 0.0070419 1.20998e-19)
(-0.015535 0.0199312 -2.53078e-19)
(-0.0243082 0.0317298 -8.08778e-20)
(-0.0313453 0.0424626 1.37529e-19)
(-0.0362936 0.052132 9.15246e-20)
(-0.0388696 0.0607381 -3.78226e-19)
(-0.038843 0.0682803 7.88694e-20)
(-0.0360258 0.0747553 -3.81921e-19)
(-0.0302609 0.080159 5.21244e-20)
(-0.0214129 0.0844903 3.93636e-19)
(-0.00935996 0.0877538 2.52298e-19)
(0.00601376 0.0899611 -7.89856e-20)
(-0.00569801 0.00703185 -5.72675e-20)
(-0.0159359 0.0196615 -2.00084e-19)
(-0.0247947 0.0310022 1.46771e-19)
(-0.0317849 0.041142 -2.96756e-19)
(-0.0365563 0.0501277 2.98041e-20)
(-0.0388254 0.0579976 5.10591e-19)
(-0.0383591 0.0647832 1.38557e-19)
(-0.0349631 0.0705079 -7.13139e-20)
(-0.0284709 0.0751899 -3.59952e-19)
(-0.0187345 0.0788462 -4.00369e-19)
(-0.0056162 0.0814962 4.73741e-21)
(0.0110183 0.083164 9.97405e-21)
(0.0313057 0.0838804 -1.08884e-19)
(-0.00590381 0.00703797 1.00004e-19)
(-0.0163549 0.0194344 1.08425e-19)
(-0.0252761 0.0303429 -1.67554e-19)
(-0.0321761 0.039914 2.87733e-19)
(-0.0367096 0.0482395 -6.47181e-20)
(-0.0385952 0.0553959 -4.1299e-19)
(-0.0375974 0.0614469 -4.03601e-19)
(-0.0335161 0.066443 -9.89813e-20)
(-0.0261754 0.0704251 4.99237e-19)
(-0.0154138 0.0734287 -1.31321e-19)
(-0.00107763 0.0754887 3.70933e-20)
(0.0169862 0.076642 -8.70265e-20)
(0.0389342 0.0769299 4.61283e-19)
(-0.00612223 0.00705623 1.92034e-19)
(-0.0167852 0.0192407 1.56098e-19)
(-0.0257409 0.0297405 2.38703e-19)
(-0.0325021 0.038767 -1.69371e-19)
(-0.036731 0.0464569 2.10073e-19)
(-0.0381495 0.0529246 6.02146e-21)
(-0.036521 0.0582664 2.71453e-19)
(-0.0316397 0.0625596 3.35173e-19)
(-0.02332 0.065868 -3.0475e-20)
(-0.0113871 0.0682464 2.0705e-19)
(0.0043292 0.0697452 -2.7618e-20)
(0.0240003 0.0704147 1.66729e-19)
(0.0478021 0.0703074 -1.06833e-19)
(-0.00635052 0.00708241 6.99202e-20)
(-0.0172191 0.019071 -2.07709e-19)
(-0.0261762 0.0291829 -2.55254e-19)
(-0.0327447 0.0376882 9.27325e-20)
(-0.0365964 0.0447676 7.44399e-20)
(-0.0374581 0.0505736 -1.73883e-19)
(-0.0350926 0.0552341 2.64027e-19)
(-0.0292889 0.0588539 6.64722e-20)
(-0.0198518 0.0615192 -2.04129e-19)
(-0.00659307 0.0633042 2.36245e-20)
(0.0106737 0.0642756 6.40369e-21)
(0.0321374 0.0644972 -2.88787e-19)
(0.0579906 0.0640329 -1.38239e-19)
(0.0884285 0.0629483 5.91397e-20)
(-0.00658546 0.00711219 -2.77601e-19)
(-0.0176478 0.0189152 -8.68987e-20)
(-0.026568 0.0286573 4.9691e-20)
(-0.0328844 0.0366635 -2.02836e-19)
(-0.0362807 0.0431582 -2.38746e-19)
(-0.0364897 0.0483308 3.5376e-19)
(-0.0332745 0.0523408 -1.95999e-19)
(-0.0264193 0.0553195 -2.10485e-19)
(-0.0157193 0.0573761 1.20789e-19)
(-0.000973462 0.0586039 2.02439e-19)
(0.0180201 0.0590861 -1.44528e-19)
(0.0414658 0.0589002 4.79994e-19)
(0.0695706 0.0581219 -2.20408e-19)
(0.102538 0.0568264 -2.74497e-19)
(-0.0068234 0.00714119 -3.7101e-20)
(-0.0180619 0.0187634 8.13282e-20)
(-0.026901 0.0281504 1.92947e-19)
(-0.0329008 0.0356785 1.57538e-19)
(-0.0357581 0.0416142 2.07215e-19)
(-0.035213 0.0461828 -4.17982e-19)
(-0.0310297 0.0495749 -2.2928e-19)
(-0.0229878 0.0519479 8.80885e-20)
(-0.0108738 0.0534334 1.27613e-19)
(0.0055256 0.054144 -1.01728e-19)
(0.026426 0.0541791 -1.94155e-19)
(0.0520451 0.0536304 -2.44911e-19)
(0.0825993 0.0525849 3.2449e-19)
(0.118296 0.0511279 2.66109e-19)
(0.15932 0.0493428 3.62031e-19)
(-0.00706035 0.0071651 1.72969e-19)
(-0.0184506 0.0186055 1.30309e-19)
(-0.0271593 0.0276488 -1.10247e-19)
(-0.0327725 0.034718 -1.89737e-19)
(-0.0350021 0.0401201 -2.5587e-21)
(-0.0335965 0.0441153 1.49335e-19)
(-0.0283215 0.0469238 3.01543e-20)
(-0.0189531 0.0487287 3.48902e-20)
(-0.00526957 0.0496837 -3.10094e-19)
(0.0129531 0.0499202 -2.75292e-19)
(0.035942 0.0495542 1.92815e-19)
(0.0639244 0.0486907 1.20206e-19)
(0.0971212 0.0474285 -9.73865e-20)
(0.135735 0.0458622 -2.6295e-19)
(0.179933 0.0440824 -4.21108e-20)
(-0.00729201 0.00717976 -2.90366e-19)
(-0.0188031 0.0184317 -1.56576e-19)
(-0.0273261 0.0271393 1.65155e-19)
(-0.0324777 0.033767 2.62994e-21)
(-0.0339863 0.0386602 4.67059e-20)
(-0.0316091 0.0421127 -7.73709e-20)
(-0.0251146 0.0443733 3.47136e-19)
(-0.014276 0.0456497 -1.82327e-20)
(0.00113549 0.0461173 1.3153e-20)
(0.0213527 0.0459261 -1.2972e-20)
(0.046611 0.0452077 2.3124e-19)
(0.0771425 0.044081 -2.67465e-19)
(0.113166 0.0426557 -5.67844e-20)
(0.15487 0.0410351 9.94714e-20)
(0.202393 0.0393161 3.97484e-19)
(0.255792 0.037589 8.39916e-20)
(-0.00751388 0.00718126 6.48303e-20)
(-0.0191078 0.0182326 2.57406e-19)
(-0.0273842 0.026609 -5.7228e-20)
(-0.0319944 0.0328105 -1.22323e-19)
(-0.032684 0.0372188 -5.78105e-20)
(-0.0292203 0.0401596 2.76891e-19)
(-0.0213752 0.0419087 -2.03753e-19)
(-0.00891986 0.042698 -3.6528e-19)
(0.0083795 0.0427235 2.51717e-19)
(0.030762 0.0421531 3.94472e-19)
(0.0584674 0.0411342 -1.13443e-19)
(0.0917271 0.0397986 1.12718e-19)
(0.130749 0.0382665 1.6151e-19)
(0.1757 0.0366489 -2.49554e-19)
(0.226673 0.0350477 -2.68807e-19)
(0.283663 0.0335551 2.04306e-19)
(0.346522 0.0322516 -1.35913e-19)
(-0.00772132 0.00716597 -2.19252e-19)
(-0.0193528 0.0179994 -3.8845e-20)
(-0.0273161 0.0260456 8.06367e-20)
(-0.0313002 0.031834 2.46035e-20)
(-0.0310691 0.0357804 3.12983e-19)
(-0.0264005 0.0382402 -1.68671e-19)
(-0.0170708 0.0395153 9.78257e-20)
(-0.00285082 0.03986 2.75316e-19)
(0.0164964 0.0394904 -4.57453e-19)
(0.0412129 0.0385919 -5.27495e-20)
(0.071538 0.0373268 1.67465e-19)
(0.107695 0.0358391 -1.02387e-19)
(0.149874 0.0342589 1.7126e-20)
(0.198203 0.0327039 9.23309e-20)
(0.252723 0.0312791 1.38935e-19)
(0.313345 0.0300762 -1.33054e-19)
(0.379818 0.0291705 3.79122e-19)
(-0.00790955 0.00713059 2.81154e-20)
(-0.019526 0.0177241 -4.39912e-21)
(-0.0271041 0.0254377 3.02564e-20)
(-0.0303731 0.0308241 -4.79064e-20)
(-0.0291157 0.0343303 1.1135e-19)
(-0.023121 0.0363397 -5.61415e-21)
(-0.012171 0.0371784 -3.32627e-19)
(0.00396217 0.0371222 7.72133e-20)
(0.025516 0.0364063 -1.69018e-19)
(0.0527313 0.0352328 9.06556e-20)
(0.0858411 0.0337779 -1.59151e-19)
(0.125053 0.0321976 -6.26865e-20)
(0.170528 0.0306303 -2.22181e-19)
(0.222346 0.0291991 -3.17008e-19)
(0.280475 0.0280104 -7.27357e-20)
(0.344733 0.0271525 -3.27483e-19)
(0.414742 0.0266922 2.69917e-20)
(0.489902 0.0266724 -4.40687e-19)
(-0.00807389 0.00707229 1.8374e-19)
(-0.0196154 0.0173997 -2.33588e-19)
(-0.0267307 0.0247752 1.77916e-19)
(-0.0291911 0.0297682 -9.23067e-20)
(-0.0267985 0.0328549 2.47756e-20)
(-0.0193543 0.0344441 -3.48511e-19)
(-0.00664724 0.0348843 4.70775e-19)
(0.0115473 0.034472 3.37567e-19)
(0.0354638 0.03346 1.72367e-19)
(0.0653373 0.0320664 -2.78108e-19)
(0.101388 0.0304806 3.15899e-19)
(0.143799 0.028869 -2.18051e-19)
(0.192689 0.0273778 3.46205e-19)
(0.248077 0.0261333 1.2928e-19)
(0.309847 0.0252414 6.9389e-21)
(0.377699 0.0247838 5.33167e-19)
(0.451121 0.0248151 -3.43073e-19)
(0.529348 0.0253586 6.73568e-19)
(-0.00820964 0.00698873 6.88738e-21)
(-0.019609 0.0170201 6.41056e-20)
(-0.0261784 0.024049 -2.01018e-19)
(-0.0277328 0.0286555 2.27545e-19)
(-0.0240932 0.031342 -1.2559e-19)
(-0.0150741 0.0325407 2.49987e-19)
(-0.00047261 0.0326209 -2.64623e-19)
(0.0199301 0.031898 -5.11908e-19)
(0.0463617 0.0306417 2.00395e-19)
(0.0790458 0.0290846 -3.66516e-20)
(0.118182 0.0274287 -2.61778e-20)
(0.163919 0.0258497 4.06404e-19)
(0.216322 0.0244994 -2.71964e-20)
(0.275335 0.0235061 5.20542e-20)
(0.340737 0.022972 1.21e-20)
(0.412103 0.0229695 -1.24551e-19)
(0.488764 0.023537 7.97941e-20)
(0.569787 0.0246737 -2.17431e-20)
(0.65397 0.026336 -5.7567e-21)
(-0.00831221 0.00687803 1.79267e-21)
(-0.0194952 0.0165803 1.26808e-19)
(-0.0254302 0.0232516 -6.15454e-20)
(-0.025977 0.0274768 -3.50895e-19)
(-0.020976 0.0297813 2.85278e-20)
(-0.0102553 0.0306189 -4.55135e-20)
(0.00637783 0.0303778 1.0823e-19)
(0.0291333 0.0293907 3.88992e-19)
(0.0582276 0.0279432 -5.32846e-20)
(0.0938665 0.0262814 2.49616e-19)
(0.13622 0.0246182 -3.91022e-19)
(0.185393 0.0231373 -1.03485e-19)
(0.241383 0.0219948 1.34044e-19)
(0.304044 0.0213181 -4.68316e-20)
(0.373036 0.0212031 -1.63709e-19)
(0.44779 0.0217094 2.13439e-19)
(0.527471 0.0228551 -1.28156e-19)
(0.61097 0.0246115 -2.70539e-19)
(0.696908 0.0268994 1.53871e-19)
(0.783692 0.0295969 -4.99325e-19)
(-0.00837721 0.0067388 -1.42324e-19)
(-0.0192625 0.0160766 -1.29605e-19)
(-0.0244696 0.0223773 1.9013e-19)
(-0.0239034 0.0262247 8.79172e-20)
(-0.0174238 0.0281648 1.44441e-19)
(-0.00487378 0.0286705 5.00955e-19)
(0.0139273 0.0281472 -4.49239e-19)
(0.0391771 0.0269434 -3.1469e-19)
(0.0710759 0.0253593 2.28875e-23)
(0.109804 0.0236531 3.45656e-20)
(0.155495 0.0220475 2.59861e-19)
(0.208193 0.0207324 -2.75927e-19)
(0.267819 0.0198658 3.05012e-20)
(0.334118 0.0195718 -2.68437e-19)
(0.406619 0.0199368 -2.77793e-20)
(0.484595 0.0210036 -3.31304e-20)
(0.567035 0.0227661 1.46854e-20)
(0.652649 0.0251642 3.01886e-19)
(0.739889 0.0280804 1.34827e-19)
(0.827021 0.0313493 3.24407e-20)
(-0.00840043 0.00657017 -5.79982e-20)
(-0.0188997 0.0155064 1.12022e-19)
(-0.0232803 0.021422 -1.38835e-19)
(-0.0214921 0.024894 7.65028e-20)
(-0.0134147 0.0264866 -3.0196e-19)
(0.00109314 0.0266896 -3.4745e-19)
(0.0221974 0.0259238 1.25613e-19)
(0.0500796 0.0245521 4.05496e-19)
(0.0849179 0.0228875 -4.43235e-19)
(0.12686 0.0211994 1.08036e-19)
(0.17599 0.0197181 1.27778e-19)
(0.232284 0.0186381 2.09096e-19)
(0.295567 0.0181167 1.69548e-19)
(0.365464 0.0182717 1.05657e-19)
(0.441355 0.0191761 -2.40463e-19)
(0.522344 0.0208522 3.06365e-19)
(0.60724 0.0232655 4.93186e-20)
(0.694573 0.0263212 -1.95204e-19)
(0.782638 0.0298622 -6.49784e-19)
(0.869585 0.0336809 1.52826e-19)
(0.953506 0.0374775 -4.12605e-19)
(-0.00837787 0.00637175 7.6256e-20)
(-0.0183962 0.0148684 8.03462e-20)
(-0.0218468 0.0203833 4.7629e-20)
(-0.018724 0.0234817 -1.34317e-19)
(-0.00892739 0.0247435 1.14576e-19)
(0.00766712 0.0246735 1.80731e-19)
(0.031208 0.0237057 1.32281e-19)
(0.0618563 0.0222162 -2.41438e-19)
(0.0997616 0.0205292 6.51897e-19)
(0.14503 0.0189233 2.77752e-20)
(0.197686 0.0176351 -1.69349e-19)
(0.257622 0.0168609 -3.81852e-20)
(0.324556 0.0167546 7.85937e-20)
(0.397976 0.0174241 1.23893e-19)
(0.477101 0.0189251 -1.84412e-19)
(0.560857 0.0212549 -1.49659e-19)
(0.647868 0.024347 -1.18273e-19)
(0.736495 0.0280691 -3.06423e-19)
(0.824892 0.0322235 2.8479e-19)
(0.911126 0.0365632 -4.57612e-20)
(0.99327 0.0407585 5.99836e-19)
(1.06967 0.0446199 2.5597e-19)
(-0.00830572 0.00614358 -1.68535e-19)
(-0.0177418 0.0141623 2.87533e-19)
(-0.0201539 0.0192607 -3.22318e-19)
(-0.0155804 0.0219872 3.34373e-19)
(-0.00394134 0.0229351 -1.97905e-19)
(0.0148687 0.0226223 -4.06146e-21)
(0.0409776 0.0214944 1.31137e-19)
(0.0745208 0.0199387 1.97498e-19)
(0.115612 0.0182891 -3.04951e-19)
(0.164307 0.0168317 -3.52608e-20)
(0.220557 0.0158069 3.59848e-19)
(0.28416 0.0154103 -3.50329e-20)
(0.35471 0.0157889 1.92938e-19)
(0.431544 0.0170368 -2.83823e-19)
(0.513709 0.0191881 -1.18411e-19)
(0.599947 0.0222106 2.3541e-19)
(0.688701 0.0260023 -8.464e-20)
(0.778173 0.0303907 -4.02097e-20)
(0.866404 0.0351384 -1.46783e-19)
(0.951409 0.0399621 -8.52105e-20)
(1.03129 0.0445098 2.24979e-19)
(1.10447 0.0485652 -2.94964e-19)
(1.16944 0.0512718 -1.80689e-19)
(-0.00818041 0.00588615 -1.60326e-19)
(-0.0169266 0.0133893 8.49892e-20)
(-0.0181871 0.0180554 1.98911e-19)
(-0.0120436 0.0204121 1.16591e-19)
(0.00156302 0.0210638 -1.33812e-19)
(0.0227173 0.0205396 -3.53365e-19)
(0.051523 0.0192949 -2.09769e-20)
(0.0880842 0.0177264 -2.69316e-19)
(0.132471 0.0161761 7.6141e-20)
(0.184677 0.0149352 -1.35144e-19)
(0.244572 0.0142457 -3.18427e-21)
(0.311841 0.0142989 -1.21014e-19)
(0.385941 0.0152314 -2.01988e-19)
(0.466046 0.017119 -6.6561e-20)
(0.551023 0.0199694 1.91819e-19)
(0.639424 0.0237169 -4.77464e-21)
(0.729521 0.0282201 1.305e-19)
(0.819374 0.0332655 1.33548e-19)
(0.906943 0.0385767 4.31075e-19)
(0.990227 0.0438389 -3.40486e-19)
(1.0674 0.0486853 -5.85341e-19)
(1.13702 0.0528834 5.70549e-19)
(1.19782 0.0556679 -1.4067e-20)
(-0.00799853 0.00560032 2.71655e-20)
(-0.0159414 0.0125513 -2.83926e-20)
(-0.0159323 0.0167705 -8.87286e-20)
(-0.00809622 0.0187603 -4.64425e-19)
(0.00760443 0.0191347 1.82427e-19)
(0.0312312 0.0184319 2.0872e-19)
(0.0628593 0.0171155 -5.71958e-20)
(0.102555 0.0155898 -1.05334e-19)
(0.150337 0.0142027 -4.66173e-19)
(0.206126 0.0132482 3.89169e-20)
(0.269694 0.0129667 -3.08127e-20)
(0.340604 0.0135419 -3.04796e-19)
(0.418158 0.0150956 -3.19225e-20)
(0.501358 0.0176802 8.93725e-20)
(0.58888 0.0212726 1.87452e-19)
(0.679095 0.025769 2.52987e-20)
(0.770112 0.0309861 -2.82913e-19)
(0.859876 0.0366688 5.69097e-20)
(0.946297 0.0425043 4.71945e-22)
(1.0274 0.0481515 -2.5943e-19)
(1.10148 0.0532364 2.58896e-19)
(1.16727 0.0575208 -2.12374e-19)
(1.22375 0.0603292 2.54619e-19)
(1.27129 0.0629268 -3.56684e-19)
(-0.00775687 0.00528729 -1.60493e-20)
(-0.014777 0.0116515 9.29122e-20)
(-0.0133762 0.0154104 1.31644e-19)
(-0.00372184 0.017038 3.05991e-19)
(0.0142007 0.0171557 -1.98814e-19)
(0.0404273 0.0163093 -2.09402e-20)
(0.0749999 0.0149685 -3.42102e-19)
(0.117941 0.0135432 4.42112e-19)
(0.169205 0.0123852 3.62286e-19)
(0.228632 0.0117884 -1.63011e-19)
(0.295882 0.0119882 -2.94161e-19)
(0.370378 0.0131567 1.03214e-19)
(0.45126 0.0153957 -6.18643e-20)
(0.537343 0.0187298 -3.2039e-19)
(0.627116 0.0230995 2.49985e-19)
(0.718769 0.0283596 -2.62212e-19)
(0.810269 0.0342826 -2.82727e-20)
(0.899473 0.0405724 -2.21698e-20)
(0.984279 0.0468837 -1.20672e-19)
(1.06279 0.0528554 7.49885e-19)
(1.13344 0.0581137 -2.99379e-19)
(1.19517 0.0624245 -1.58866e-19)
(1.24726 0.0651999 -1.35694e-19)
(1.29021 0.067558 3.04934e-19)
(1.32182 0.0650093 -1.82427e-19)
(-0.00745233 0.00494856 2.52916e-20)
(-0.0134248 0.0106938 -1.35591e-19)
(-0.0105057 0.0139815 -6.34856e-20)
(0.00109539 0.0152535 -2.59701e-19)
(0.0213688 0.0151374 2.09534e-19)
(0.0503212 0.0141846 3.6115e-20)
(0.0879562 0.012869 -7.23403e-21)
(0.134243 0.0116044 -2.05833e-19)
(0.189067 0.0107432 -1.83028e-19)
(0.252169 0.0105766 -1.56018e-19)
(0.323085 0.011331 3.03766e-19)
(0.401088 0.013162 7.87147e-20)
(0.485139 0.0161466 4.51357e-19)
(0.573864 0.020276 1.23752e-19)
(0.665561 0.02545 -1.27435e-20)
(0.758255 0.0314781 3.10156e-19)
(0.84979 0.0380883 -2.06958e-20)
(0.937972 0.044945 9.09328e-20)
(1.02073 0.0516751 -3.60896e-19)
(1.09627 0.0579048 -3.51677e-19)
(1.16321 0.0632684 4.53278e-19)
(1.22075 0.0675445 1.83473e-19)
(1.26842 0.0702299 3.41864e-19)
(1.30691 0.0723234 -1.36284e-19)
(1.3347 0.0698883 2.7884e-19)
(-0.00708197 0.00458589 7.56002e-20)
(-0.0118766 0.00968307 -5.99448e-20)
(-0.0073084 0.0124913 -6.20502e-20)
(0.00637055 0.0134172 1.37747e-19)
(0.0291244 0.0130929 -2.29476e-19)
(0.0609269 0.0120736 2.78388e-20)
(0.101737 0.0108357 1.96907e-19)
(0.151464 0.00979401 2.90159e-19)
(0.209909 0.00929932 -2.17336e-19)
(0.276705 0.00963608 5.33139e-19)
(0.351249 0.0110174 -3.10406e-19)
(0.43265 0.0135773 -1.78787e-19)
(0.519681 0.0173626 -2.1164e-19)
(0.610775 0.0223256 6.7817e-20)
(0.704045 0.0283209 -3.47397e-19)
(0.797366 0.0351108 -3.61946e-19)
(0.888489 0.0423783 5.30842e-19)
(0.975203 0.0497521 2.47943e-20)
(1.0555 0.056837 5.33955e-19)
(1.12775 0.063254 -2.3092e-19)
(1.19078 0.0686535 -3.25366e-19)
(1.24404 0.0728348 2.48765e-19)
(1.28734 0.0753757 -7.65555e-19)
(1.32153 0.0771807 -3.3913e-20)
(1.34569 0.0747959 9.547e-20)
(-0.00664288 0.00420126 8.47115e-20)
(-0.0101242 0.00862485 9.62646e-20)
(-0.00377239 0.0109486 1.43408e-19)
(0.0121179 0.0115412 -1.05066e-19)
(0.0374821 0.0110375 8.99116e-20)
(0.0722566 0.00999487 -2.25006e-20)
(0.116349 0.00888986 -1.59518e-20)
(0.169599 0.00813585 -3.56178e-19)
(0.231713 0.00807866 1.36811e-19)
(0.302202 0.008992 -3.41915e-19)
(0.380312 0.0110707 1.16286e-19)
(0.464972 0.0144221 7.45527e-20)
(0.554765 0.0190566 1.0988e-19)
(0.647926 0.0248827 1.70378e-19)
(0.742397 0.0317062 1.28764e-19)
(0.835922 0.0392403 1.45977e-19)
(0.926191 0.047125 -3.8019e-19)
(1.01101 0.0549573 -2.56114e-19)
(1.08849 0.0623272 9.02945e-20)
(1.15718 0.0688586 -7.81066e-20)
(1.21615 0.074225 1.45361e-19)
(1.26509 0.0782539 -3.67723e-20)
(1.30412 0.0806003 2.68325e-19)
(1.33423 0.0820955 8.59143e-20)
(1.35495 0.0797045 -6.98303e-19)
(-0.00613225 0.00379682 -6.30085e-20)
(-0.00816001 0.00752537 -1.80324e-19)
(0.000113748 0.00936376 -1.02773e-19)
(0.0183509 0.00963945 1.47904e-19)
(0.0464551 0.00898863 -9.40725e-20)
(0.0843204 0.00796914 1.43008e-19)
(0.131796 0.00705514 5.12271e-21)
(0.188641 0.00665579 2.7364e-19)
(0.254456 0.00710816 -3.00466e-19)
(0.328616 0.00867074 7.40033e-20)
(0.410203 0.0115149 3.40266e-19)
(0.497958 0.0157149 1.47582e-19)
(0.590265 0.0212397 -2.09542e-19)
(0.685168 0.0279487 -2.01766e-19)
(0.78045 0.0355962 -1.96713e-20)
(0.873752 0.0438459 2.49893e-19)
(0.962738 0.0522976 1.44604e-21)
(1.04528 0.0605227 -5.59092e-22)
(1.11962 0.0681036 3.24411e-20)
(1.18453 0.0746757 9.74052e-21)
(1.23934 0.0799426 1.01183e-19)
(1.28401 0.0837656 -2.50784e-19)
(1.31889 0.0858731 3.76939e-19)
(1.34513 0.0870412 -2.90053e-20)
(1.36266 0.0845953 8.26042e-20)
(-0.00554731 0.0033749 -9.90514e-20)
(-0.00597641 0.00639146 1.41939e-19)
(0.00436085 0.00774779 -4.421e-20)
(0.0250818 0.00772725 1.75687e-19)
(0.0560549 0.0069657 -1.10881e-20)
(0.097126 0.00601929 -3.05428e-19)
(0.148078 0.00535738 -4.11597e-20)
(0.208578 0.00538157 -1.50641e-19)
(0.27811 0.00641611 5.64265e-19)
(0.355898 0.00869921 -3.95637e-19)
(0.440847 0.012373 -3.10919e-19)
(0.531503 0.0174729 -3.79753e-19)
(0.626049 0.0239203 6.19605e-21)
(0.722347 0.0315218 4.02283e-20)
(0.818041 0.0399776 4.22851e-21)
(0.910696 0.0489036 -1.47224e-19)
(0.997989 0.0578635 1.20001e-19)
(1.07789 0.0664096 2.45882e-19)
(1.14883 0.0741254 -1.94217e-19)
(1.2098 0.0806656 4.3773e-19)
(1.26041 0.0857701 -1.55968e-19)
(1.30087 0.0893387 1.21535e-19)
(1.33178 0.0911696 -5.95118e-19)
(1.35441 0.0919974 1.46807e-19)
(1.36897 0.0894566 7.54383e-20)
(-0.00488528 0.00293797 -2.3355e-20)
(-0.0035662 0.00523048 4.89654e-20)
(0.00897913 0.00611285 7.2848e-20)
(0.032322 0.00582126 -1.89644e-19)
(0.0662914 0.00498951 1.35439e-19)
(0.110679 0.00416985 5.6301e-20)
(0.165191 0.00382395 -5.4494e-20)
(0.229394 0.00434221 3.47556e-20)
(0.302639 0.00603147 -9.64422e-20)
(0.383988 0.0091042 2.88826e-19)
(0.472159 0.0136672 2.8036e-19)
(0.565496 0.0197109 6.20567e-20)
(0.661983 0.027104 4.56913e-19)
(0.759313 0.0355963 -3.17586e-20)
(0.855012 0.0448339 5.6907e-20)
(0.946607 0.0543869 -7.71262e-20)
(1.03182 0.0637883 -2.64762e-19)
(1.10876 0.0725796 -1.19459e-19)
(1.17607 0.0803534 -7.8612e-20)
(1.23301 0.0867917 -6.90909e-20)
(1.27943 0.0916759 -1.63284e-19)
(1.3158 0.0949476 2.84261e-19)
(1.34293 0.0964709 3.9254e-19)
(1.3622 0.0969496 -1.48024e-20)
(1.37404 0.094282 -5.96135e-21)
(-0.00414342 0.00248864 2.62391e-19)
(-0.000922405 0.00405024 -2.713e-19)
(0.0139781 0.00447187 -1.0668e-19)
(0.0400814 0.0039393 2.50885e-19)
(0.0771724 0.00308228 -1.69083e-19)
(0.124981 0.00244673 1.67089e-20)
(0.183128 0.00248344 1.6323e-19)
(0.251066 0.00356749 2.19457e-19)
(0.328002 0.00598328 4.23626e-21)
(0.412824 0.00991168 -4.63298e-19)
(0.504051 0.0154178 -2.14196e-20)
(0.599822 0.0224411 2.57643e-19)
(0.69793 0.0307927 -2.4915e-19)
(0.795916 0.0401634 4.94397e-21)
(0.891215 0.0501452 -3.48867e-19)
(0.981352 0.0602666 -1.12277e-19)
(1.06414 0.0700371 -1.74794e-19)
(1.13785 0.078995 -2.55985e-19)
(1.20136 0.086751 1.95708e-19)
(1.2542 0.0930211 4.6229e-19)
(1.29649 0.0976328 -4.91073e-19)